 vasp.5.4.4.18Apr17-6-g9f103f2a35 (build Jan 14 2022 15:04:31) complex          
  
 executed on             LinuxIFC date 2023.01.27  22:54:36
 running on   48 total cores
 distrk:  each k-point on   48 cores,    1 groups
 distr:  one band on NCORES_PER_BAND=  12 cores,    4 groups


--------------------------------------------------------------------------------------------------------


 INCAR:
 POTCAR:    PAW_PBE C 08Apr2002                   
 POTCAR:    PAW_PBE N 08Apr2002                   
 POTCAR:    PAW_PBE C 08Apr2002                   
 POTCAR:    PAW_PBE Cr_pv 02Aug2007               
 POTCAR:    PAW_PBE C 08Apr2002                   
 POTCAR:    PAW_PBE O 08Apr2002                   
 POTCAR:    PAW_PBE C 08Apr2002                   
   SHA256 =  253f7b50bb8d59471dbedb8285d89021f4a42ed1a2c5d38a03a736e69125dd95 C/
   COPYR  = (c) Copyright 08Apr2002 Georg Kresse                                
   COPYR  = This file is part of the software VASP. Any use, copying, and all ot
   COPYR  = If you do not have a valid VASP license, you may not use, copy or di
   VRHFIN =C: s2p2                                                              
   LEXCH  = PE                                                                  
   EATOM  =   147.1560 eV,   10.8157 Ry                                         
                                                                                
   TITEL  = PAW_PBE C 08Apr2002                                                 
   LULTRA =        F    use ultrasoft PP ?                                      
   IUNSCR =        1    unscreen: 0-lin 1-nonlin 2-no                           
   RPACOR =    1.200    partial core radius                                     
   POMASS =   12.011; ZVAL   =    4.000    mass and valenz                      
   RCORE  =    1.500    outmost cutoff radius                                   
   RWIGS  =    1.630; RWIGS  =    0.863    wigner-seitz radius (au A)           
   ENMAX  =  400.000; ENMIN  =  300.000 eV                                      
   ICORE  =        2    local potential                                         
   LCOR   =        T    correct aug charges                                     
   LPAW   =        T    paw PP                                                  
   EAUG   =  644.873                                                            
   DEXC   =    0.000                                                            
   RMAX   =    1.529    core radius for proj-oper                               
   RAUG   =    1.300    factor for augmentation sphere                          
   RDEP   =    1.501    radius for radial grids                                 
   RDEPT  =    1.300    core radius for aug-charge                              
                                                                                
   Atomic configuration                                                         
    4 entries                                                                   
     n  l   j            E        occ.                                          
     1  0  0.50      -273.3789   2.0000                                         
     2  0  0.50       -13.7508   2.0000                                         
     2  1  0.50        -5.2854   2.0000                                         
     3  2  1.50        -5.4423   0.0000                                         
   Description                                                                  
     l       E           TYP  RCUT    TYP  RCUT                                 
     0    -13.7508458     23  1.200                                             
     0     -8.2022199     23  1.200                                             
     1     -5.2854383     23  1.500                                             
     1     34.0145650     23  1.500                                             
     2     -5.4423304      7  1.500                                             
  local pseudopotential read in
  partial core-charges read in
  partial kinetic energy density read in
  atomic valenz-charges read in
  non local Contribution for L=           0  read in
    real space projection operators read in
  non local Contribution for L=           0  read in
    real space projection operators read in
  non local Contribution for L=           1  read in
    real space projection operators read in
  non local Contribution for L=           1  read in
    real space projection operators read in
    PAW grid and wavefunctions read in
 
   number of l-projection  operators is LMAX  =           4
   number of lm-projection operators is LMMAX =           8
 
 POTCAR:    PAW_PBE N 08Apr2002                   
   SHA256 =  e053789ff3a61a86a1b75d8a110fcc91f86041011e7b0817c7c99e4e8a6349d7 N/
   COPYR  = (c) Copyright 08Apr2002 Georg Kresse                                
   COPYR  = This file is part of the software VASP. Any use, copying, and all ot
   COPYR  = If you do not have a valid VASP license, you may not use, copy or di
   VRHFIN =N: s2p3                                                              
   LEXCH  = PE                                                                  
   EATOM  =   264.5486 eV,   19.4438 Ry                                         
                                                                                
   TITEL  = PAW_PBE N 08Apr2002                                                 
   LULTRA =        F    use ultrasoft PP ?                                      
   IUNSCR =        1    unscreen: 0-lin 1-nonlin 2-no                           
   RPACOR =    1.200    partial core radius                                     
   POMASS =   14.001; ZVAL   =    5.000    mass and valenz                      
   RCORE  =    1.500    outmost cutoff radius                                   
   RWIGS  =    1.400; RWIGS  =    0.741    wigner-seitz radius (au A)           
   ENMAX  =  400.000; ENMIN  =  300.000 eV                                      
   ICORE  =        2    local potential                                         
   LCOR   =        T    correct aug charges                                     
   LPAW   =        T    paw PP                                                  
   EAUG   =  627.112                                                            
   DEXC   =    0.000                                                            
   RMAX   =    1.529    core radius for proj-oper                               
   RAUG   =    1.300    factor for augmentation sphere                          
   RDEP   =    1.514    radius for radial grids                                 
   RDEPT  =    1.338    core radius for aug-charge                              
                                                                                
   Atomic configuration                                                         
    4 entries                                                                   
     n  l   j            E        occ.                                          
     1  0  0.50      -384.7179   2.0000                                         
     2  0  0.50       -18.5828   2.0000                                         
     2  1  0.50        -7.0898   3.0000                                         
     3  2  1.50        -6.8029   0.0000                                         
   Description                                                                  
     l       E           TYP  RCUT    TYP  RCUT                                 
     0    -18.5828119     23  1.200                                             
     0    -13.5018863     23  1.200                                             
     1     -7.0897853     23  1.500                                             
     1      9.5240782     23  1.500                                             
     2     -6.8029130      7  1.500                                             
  local pseudopotential read in
  partial core-charges read in
  partial kinetic energy density read in
  atomic valenz-charges read in
  non local Contribution for L=           0  read in
    real space projection operators read in
  non local Contribution for L=           0  read in
    real space projection operators read in
  non local Contribution for L=           1  read in
    real space projection operators read in
  non local Contribution for L=           1  read in
    real space projection operators read in
    PAW grid and wavefunctions read in
 
   number of l-projection  operators is LMAX  =           4
   number of lm-projection operators is LMMAX =           8
 
 POTCAR:    PAW_PBE C 08Apr2002                   
   SHA256 =  253f7b50bb8d59471dbedb8285d89021f4a42ed1a2c5d38a03a736e69125dd95 C/
   COPYR  = (c) Copyright 08Apr2002 Georg Kresse                                
   COPYR  = This file is part of the software VASP. Any use, copying, and all ot
   COPYR  = If you do not have a valid VASP license, you may not use, copy or di
   VRHFIN =C: s2p2                                                              
   LEXCH  = PE                                                                  
   EATOM  =   147.1560 eV,   10.8157 Ry                                         
                                                                                
   TITEL  = PAW_PBE C 08Apr2002                                                 
   LULTRA =        F    use ultrasoft PP ?                                      
   IUNSCR =        1    unscreen: 0-lin 1-nonlin 2-no                           
   RPACOR =    1.200    partial core radius                                     
   POMASS =   12.011; ZVAL   =    4.000    mass and valenz                      
   RCORE  =    1.500    outmost cutoff radius                                   
   RWIGS  =    1.630; RWIGS  =    0.863    wigner-seitz radius (au A)           
   ENMAX  =  400.000; ENMIN  =  300.000 eV                                      
   ICORE  =        2    local potential                                         
   LCOR   =        T    correct aug charges                                     
   LPAW   =        T    paw PP                                                  
   EAUG   =  644.873                                                            
   DEXC   =    0.000                                                            
   RMAX   =    1.529    core radius for proj-oper                               
   RAUG   =    1.300    factor for augmentation sphere                          
   RDEP   =    1.501    radius for radial grids                                 
   RDEPT  =    1.300    core radius for aug-charge                              
                                                                                
   Atomic configuration                                                         
    4 entries                                                                   
     n  l   j            E        occ.                                          
     1  0  0.50      -273.3789   2.0000                                         
     2  0  0.50       -13.7508   2.0000                                         
     2  1  0.50        -5.2854   2.0000                                         
     3  2  1.50        -5.4423   0.0000                                         
   Description                                                                  
     l       E           TYP  RCUT    TYP  RCUT                                 
     0    -13.7508458     23  1.200                                             
     0     -8.2022199     23  1.200                                             
     1     -5.2854383     23  1.500                                             
     1     34.0145650     23  1.500                                             
     2     -5.4423304      7  1.500                                             
  local pseudopotential read in
  partial core-charges read in
  partial kinetic energy density read in
  atomic valenz-charges read in
  non local Contribution for L=           0  read in
    real space projection operators read in
  non local Contribution for L=           0  read in
    real space projection operators read in
  non local Contribution for L=           1  read in
    real space projection operators read in
  non local Contribution for L=           1  read in
    real space projection operators read in
    PAW grid and wavefunctions read in
 
   number of l-projection  operators is LMAX  =           4
   number of lm-projection operators is LMMAX =           8
 
 POTCAR:    PAW_PBE Cr_pv 02Aug2007               
   SHA256 =  c9a7df34d3cdbacf1090e328ef39c0b420964e11c23f63548d1ac9dd218cdba0 Cr
   COPYR  = (c) Copyright 02Aug2007 Georg Kresse                                
   COPYR  = This file is part of the software VASP. Any use, copying, and all ot
   COPYR  = If you do not have a valid VASP license, you may not use, copy or di
   VRHFIN =Cr : p6d5s1                                                          
   LEXCH  = PE                                                                  
   EATOM  =  1647.9177 eV,  121.1185 Ry                                         
                                                                                
   TITEL  = PAW_PBE Cr_pv 02Aug2007                                             
   LULTRA =        F    use ultrasoft PP ?                                      
   IUNSCR =        1    unscreen: 0-lin 1-nonlin 2-no                           
   RPACOR =    2.080    partial core radius                                     
   POMASS =   51.996; ZVAL   =   12.000    mass and valenz                      
   RCORE  =    2.300    outmost cutoff radius                                   
   RWIGS  =    2.500; RWIGS  =    1.323    wigner-seitz radius (au A)           
   ENMAX  =  265.681; ENMIN  =  199.261 eV                                      
   ICORE  =        3    local potential                                         
   LCOR   =        T    correct aug charges                                     
   LPAW   =        T    paw PP                                                  
   EAUG   =  519.424                                                            
   DEXC   =    0.000                                                            
   RMAX   =    2.356    core radius for proj-oper                               
   RAUG   =    1.300    factor for augmentation sphere                          
   RDEP   =    2.447    radius for radial grids                                 
   RDEPT  =    1.882    core radius for aug-charge                              
                                                                                
   Atomic configuration                                                         
    8 entries                                                                   
     n  l   j            E        occ.                                          
     1  0  0.50     -5880.4963   2.0000                                         
     2  0  0.50      -667.0865   2.0000                                         
     2  1  1.50      -560.6250   6.0000                                         
     3  0  0.50       -73.9860   2.0000                                         
     3  1  1.50       -45.4378   6.0000                                         
     3  2  2.50        -2.9137   5.0000                                         
     4  0  0.50        -4.0071   1.0000                                         
     4  3  2.50        -1.3606   0.0000                                         
   Description                                                                  
     l       E           TYP  RCUT    TYP  RCUT                                 
     1    -45.4377911     23  2.000                                             
     1      1.3605826     23  2.000                                             
     2     -2.9136672     23  2.300                                             
     2     -4.2742498     23  2.300                                             
     0     -4.0071320     23  2.300                                             
     0      9.4498803     23  2.300                                             
     3      2.7211652     23  2.300                                             
  local pseudopotential read in
  partial core-charges read in
  partial kinetic energy density read in
  atomic valenz-charges read in
  non local Contribution for L=           1  read in
    real space projection operators read in
  non local Contribution for L=           1  read in
    real space projection operators read in
  non local Contribution for L=           2  read in
    real space projection operators read in
  non local Contribution for L=           2  read in
    real space projection operators read in
  non local Contribution for L=           0  read in
    real space projection operators read in
  non local Contribution for L=           0  read in
    real space projection operators read in
    PAW grid and wavefunctions read in
 
   number of l-projection  operators is LMAX  =           6
   number of lm-projection operators is LMMAX =          18
 
 POTCAR:    PAW_PBE C 08Apr2002                   
   SHA256 =  253f7b50bb8d59471dbedb8285d89021f4a42ed1a2c5d38a03a736e69125dd95 C/
   COPYR  = (c) Copyright 08Apr2002 Georg Kresse                                
   COPYR  = This file is part of the software VASP. Any use, copying, and all ot
   COPYR  = If you do not have a valid VASP license, you may not use, copy or di
   VRHFIN =C: s2p2                                                              
   LEXCH  = PE                                                                  
   EATOM  =   147.1560 eV,   10.8157 Ry                                         
                                                                                
   TITEL  = PAW_PBE C 08Apr2002                                                 
   LULTRA =        F    use ultrasoft PP ?                                      
   IUNSCR =        1    unscreen: 0-lin 1-nonlin 2-no                           
   RPACOR =    1.200    partial core radius                                     
   POMASS =   12.011; ZVAL   =    4.000    mass and valenz                      
   RCORE  =    1.500    outmost cutoff radius                                   
   RWIGS  =    1.630; RWIGS  =    0.863    wigner-seitz radius (au A)           
   ENMAX  =  400.000; ENMIN  =  300.000 eV                                      
   ICORE  =        2    local potential                                         
   LCOR   =        T    correct aug charges                                     
   LPAW   =        T    paw PP                                                  
   EAUG   =  644.873                                                            
   DEXC   =    0.000                                                            
   RMAX   =    1.529    core radius for proj-oper                               
   RAUG   =    1.300    factor for augmentation sphere                          
   RDEP   =    1.501    radius for radial grids                                 
   RDEPT  =    1.300    core radius for aug-charge                              
                                                                                
   Atomic configuration                                                         
    4 entries                                                                   
     n  l   j            E        occ.                                          
     1  0  0.50      -273.3789   2.0000                                         
     2  0  0.50       -13.7508   2.0000                                         
     2  1  0.50        -5.2854   2.0000                                         
     3  2  1.50        -5.4423   0.0000                                         
   Description                                                                  
     l       E           TYP  RCUT    TYP  RCUT                                 
     0    -13.7508458     23  1.200                                             
     0     -8.2022199     23  1.200                                             
     1     -5.2854383     23  1.500                                             
     1     34.0145650     23  1.500                                             
     2     -5.4423304      7  1.500                                             
  local pseudopotential read in
  partial core-charges read in
  partial kinetic energy density read in
  atomic valenz-charges read in
  non local Contribution for L=           0  read in
    real space projection operators read in
  non local Contribution for L=           0  read in
    real space projection operators read in
  non local Contribution for L=           1  read in
    real space projection operators read in
  non local Contribution for L=           1  read in
    real space projection operators read in
    PAW grid and wavefunctions read in
 
   number of l-projection  operators is LMAX  =           4
   number of lm-projection operators is LMMAX =           8
 
 POTCAR:    PAW_PBE O 08Apr2002                   
   SHA256 =  818f92134a0a090dccd8ba1447fa70422a3b330e708bb4f08108d8ae51209ddf O/
   COPYR  = (c) Copyright 08Apr2002 Georg Kresse                                
   COPYR  = This file is part of the software VASP. Any use, copying, and all ot
   COPYR  = If you do not have a valid VASP license, you may not use, copy or di
   VRHFIN =O: s2p4                                                              
   LEXCH  = PE                                                                  
   EATOM  =   432.3788 eV,   31.7789 Ry                                         
                                                                                
   TITEL  = PAW_PBE O 08Apr2002                                                 
   LULTRA =        F    use ultrasoft PP ?                                      
   IUNSCR =        1    unscreen: 0-lin 1-nonlin 2-no                           
   RPACOR =    1.200    partial core radius                                     
   POMASS =   16.000; ZVAL   =    6.000    mass and valenz                      
   RCORE  =    1.520    outmost cutoff radius                                   
   RWIGS  =    1.550; RWIGS  =    0.820    wigner-seitz radius (au A)           
   ENMAX  =  400.000; ENMIN  =  300.000 eV                                      
   ICORE  =        2    local potential                                         
   LCOR   =        T    correct aug charges                                     
   LPAW   =        T    paw PP                                                  
   EAUG   =  605.392                                                            
   DEXC   =    0.000                                                            
   RMAX   =    1.553    core radius for proj-oper                               
   RAUG   =    1.300    factor for augmentation sphere                          
   RDEP   =    1.550    radius for radial grids                                 
   RDEPT  =    1.329    core radius for aug-charge                              
                                                                                
   Atomic configuration                                                         
    4 entries                                                                   
     n  l   j            E        occ.                                          
     1  0  0.50      -514.6923   2.0000                                         
     2  0  0.50       -23.9615   2.0000                                         
     2  1  0.50        -9.0305   4.0000                                         
     3  2  1.50        -9.5241   0.0000                                         
   Description                                                                  
     l       E           TYP  RCUT    TYP  RCUT                                 
     0    -23.9615318     23  1.200                                             
     0     -9.5240782     23  1.200                                             
     1     -9.0304911     23  1.520                                             
     1      8.1634956     23  1.520                                             
     2     -9.5240782      7  1.500                                             
  local pseudopotential read in
  partial core-charges read in
  partial kinetic energy density read in
  kinetic energy density of atom read in
  atomic valenz-charges read in
  non local Contribution for L=           0  read in
    real space projection operators read in
  non local Contribution for L=           0  read in
    real space projection operators read in
  non local Contribution for L=           1  read in
    real space projection operators read in
  non local Contribution for L=           1  read in
    real space projection operators read in
    PAW grid and wavefunctions read in
 
   number of l-projection  operators is LMAX  =           4
   number of lm-projection operators is LMMAX =           8
 

 ----------------------------------------------------------------------------- 
|                                                                             |
|  ADVICE TO THIS USER RUNNING 'VASP/VAMP'   (HEAR YOUR MASTER'S VOICE ...):  |
|                                                                             |
|      You have a (more or less) 'large supercell' and for larger cells       |
|      it might be more efficient to use real space projection opertators     |
|      So try LREAL= Auto  in the INCAR   file.                               |
|      Mind:          For very  accurate calculation you might also keep the  |
|      reciprocal projection scheme          (i.e. LREAL=.FALSE.)             |
|                                                                             |
 ----------------------------------------------------------------------------- 

  PAW_PBE C 08Apr2002                   :
 energy of atom  1       EATOM= -147.1560
 kinetic energy error for atom=    0.0132 (will be added to EATOM!!)
  PAW_PBE N 08Apr2002                   :
 energy of atom  2       EATOM= -264.5486
 kinetic energy error for atom=    0.0298 (will be added to EATOM!!)
  PAW_PBE C 08Apr2002                   :
 energy of atom  3       EATOM= -147.1560
 kinetic energy error for atom=    0.0132 (will be added to EATOM!!)
  PAW_PBE Cr_pv 02Aug2007               :
 energy of atom  4       EATOM=-1647.9177
 kinetic energy error for atom=    0.0134 (will be added to EATOM!!)
  PAW_PBE C 08Apr2002                   :
 energy of atom  5       EATOM= -147.1560
 kinetic energy error for atom=    0.0132 (will be added to EATOM!!)
  PAW_PBE O 08Apr2002                   :
 energy of atom  6       EATOM= -432.3788
 kinetic energy error for atom=    0.0458 (will be added to EATOM!!)
 
 
 POSCAR: POSCAR-clean                            
  positions in cartesian coordinates
  No initial velocities read in
 exchange correlation table for  LEXCH =        8
   RHO(1)=    0.500       N(1)  =     2000
   RHO(2)=  100.500       N(2)  =     4000

 VTST: version 3.2, (02/03/18)

 CHAIN: initializing optimizer
 
 OPT: Using VASP Dynamics algorithm
 CHAIN: Read ICHAIN            0
 
 POSCAR: POSCAR-clean                            
  positions in cartesian coordinates
  No initial velocities read in
 


--------------------------------------------------------------------------------------------------------


 ion  position               nearest neighbor table
   1  1.000  1.000  0.484-   2 1.42  60 1.43  70 1.44
   2  0.056  0.111  0.484-   1 1.42  13 1.42  15 1.44
   3  0.168  0.002  0.483-   4 1.42  62 1.43  60 1.43
   4  0.224  0.114  0.484-   3 1.42  15 1.43  17 1.44
   5  0.334  0.003  0.484-   6 1.42  62 1.43  64 1.43
   6  0.390  0.114  0.484-   5 1.42  19 1.42  17 1.44
   7  0.500  0.000  0.483-   8 1.42  64 1.42  66 1.43
   8  0.556  0.111  0.483-   7 1.42  21 1.43  19 1.43
   9  0.665  0.997  0.485-  66 1.42  10 1.42  68 1.44
  10  0.722  0.109  0.484-   9 1.42  23 1.43  21 1.43
  11  0.831  0.997  0.485-  70 1.43  12 1.43  68 1.44
  12  0.888  0.108  0.484-  11 1.43  23 1.43  13 1.43
  13  0.999  0.165  0.484-  14 1.42   2 1.42  12 1.43
  14  0.055  0.277  0.485-  25 1.42  13 1.42  27 1.43
  15  0.168  0.169  0.485-   4 1.43  16 1.43   2 1.44
  16  0.224  0.281  0.486-  15 1.43  27 1.43  29 1.45
  17  0.336  0.171  0.486-  18 1.42   4 1.44   6 1.44
  18  0.392  0.282  0.490-  17 1.42  31 1.44  29 1.45
  19  0.501  0.168  0.484-  20 1.42   6 1.42   8 1.43
  20  0.558  0.279  0.486-  19 1.42  33 1.43  31 1.44
  21  0.667  0.165  0.483-  22 1.42   8 1.43  10 1.43
  22  0.723  0.276  0.484-  21 1.42  35 1.42  33 1.42
  23  0.833  0.164  0.484-  24 1.42  10 1.43  12 1.43
  24  0.889  0.276  0.484-  23 1.42  35 1.42  25 1.43
  25  1.000  0.332  0.484-  14 1.42  26 1.43  24 1.43
  26  0.055  0.444  0.485-  39 1.41  37 1.42  25 1.43
  27  0.167  0.334  0.486-  28 1.42  16 1.43  14 1.43
  28  0.220  0.445  0.488-  39 1.42  27 1.42  41 1.42
  29  0.336  0.339  0.488-  30 1.42  16 1.45  18 1.45
  30  0.388  0.450  0.490-  41 1.41  29 1.42  71 1.98
  31  0.504  0.337  0.494-  32 1.41  20 1.44  18 1.44
  32  0.563  0.446  0.505-  43 1.41  31 1.41  71 1.99
  33  0.669  0.332  0.485-  34 1.42  22 1.42  20 1.43
  34  0.726  0.443  0.486-  43 1.41  33 1.42  45 1.42
  35  0.834  0.332  0.484-  22 1.42  24 1.42  36 1.43
  36  0.890  0.443  0.484-  45 1.41  37 1.42  35 1.43
  37  0.001  0.500  0.484-  36 1.42  26 1.42  38 1.42
  38  0.056  0.611  0.484-  49 1.42  47 1.42  37 1.42
  39  0.165  0.500  0.486-  26 1.41  28 1.42  40 1.42
  40  0.220  0.612  0.485-  49 1.42  51 1.42  39 1.42
  41  0.331  0.502  0.490-  30 1.41  28 1.42  42 1.45
  42  0.386  0.615  0.492-  53 1.36  51 1.40  41 1.45
  43  0.672  0.498  0.494-  32 1.41  34 1.41  44 1.44
  44  0.727  0.610  0.490-  55 1.40  57 1.41  43 1.44
  45  0.836  0.499  0.484-  36 1.41  34 1.42  46 1.42
  46  0.891  0.611  0.485-  47 1.41  57 1.42  45 1.42
  47  0.001  0.667  0.484-  46 1.41  38 1.42  48 1.43
  48  0.056  0.779  0.484-  61 1.42  59 1.43  47 1.43
  49  0.166  0.668  0.484-  40 1.42  38 1.42  50 1.42
  50  0.222  0.779  0.484-  63 1.42  49 1.42  61 1.43
  51  0.330  0.669  0.487-  42 1.40  52 1.41  40 1.42
  52  0.387  0.780  0.486-  51 1.41  65 1.42  63 1.42
  53  0.491  0.667  0.500-  42 1.36  54 1.37  71 2.05
  54  0.550  0.774  0.492-  53 1.37  65 1.43  67 1.45
  55  0.669  0.661  0.492-  44 1.40  56 1.41  71 1.99
  56  0.719  0.771  0.489-  55 1.41  67 1.45  69 1.45
  57  0.837  0.667  0.487-  44 1.41  58 1.42  46 1.42
  58  0.890  0.778  0.485-  57 1.42  59 1.43  69 1.43
  59  0.001  0.834  0.484-  60 1.42  48 1.43  58 1.43
  60  0.056  0.946  0.484-  59 1.42   1 1.43   3 1.43
  61  0.167  0.835  0.484-  62 1.42  48 1.42  50 1.43
  62  0.223  0.947  0.484-  61 1.42   3 1.43   5 1.43
  63  0.333  0.835  0.484-  64 1.42  50 1.42  52 1.42
  64  0.389  0.946  0.484-  63 1.42   7 1.42   5 1.43
  65  0.498  0.833  0.487-  66 1.42  52 1.42  54 1.43
  66  0.555  0.944  0.484-  65 1.42   9 1.42   7 1.43
  67  0.662  0.827  0.490-  68 1.43  54 1.45  56 1.45
  68  0.719  0.939  0.486-  67 1.43   9 1.44  11 1.44
  69  0.832  0.831  0.486-  70 1.43  58 1.43  56 1.45
  70  0.888  0.942  0.485-  11 1.43  69 1.43   1 1.44
  71  0.528  0.555  0.535-  30 1.98  32 1.99  55 1.99  53 2.05
  72  0.528  0.555  0.934-  73 1.16
  73  0.477  0.498  0.990-  72 1.16
 

IMPORTANT INFORMATION: All symmetrisations will be switched off!
NOSYMM: (Re-)initialisation of all symmetry stuff for point group C_1.

 
 
 KPOINTS: K-Points                                

Automatic generation of k-mesh.
Space group operators:
 irot       det(A)        alpha          n_x          n_y          n_z        tau_x        tau_y        tau_z
    1     1.000000     0.000000     1.000000     0.000000     0.000000     0.000000     0.000000     0.000000
 
 Subroutine IBZKPT returns following result:
 ===========================================
 
 Found      5 irreducible k-points:
 
 Following reciprocal coordinates:
            Coordinates               Weight
  0.000000  0.000000  0.000000      1.000000
  0.333333  0.000000  0.000000      2.000000
 -0.000000  0.333333  0.000000      2.000000
  0.333333  0.333333  0.000000      2.000000
 -0.333333  0.333333  0.000000      2.000000
 
 Following cartesian coordinates:
            Coordinates               Weight
  0.000000  0.000000  0.000000      1.000000
  0.022424  0.013064  0.000000      2.000000
  0.000106  0.026129  0.000000      2.000000
  0.022529  0.039193  0.000000      2.000000
 -0.022318  0.013064  0.000000      2.000000
 
 TETIRR: Found     24 inequivalent tetrahedra from       54


--------------------------------------------------------------------------------------------------------




 Dimension of arrays:
   k-points           NKPTS =      5   k-points in BZ     NKDIM =      5   number of bands    NBANDS=    192
   number of dos      NEDOS =   4000   number of ions     NIONS =     73
   non local maximal  LDIM  =      6   non local SUM 2l+1 LMDIM =     18
   total plane-waves  NPLWV = 512000
   max r-space proj   IRMAX =      1   max aug-charges    IRDMAX=   6447
   dimension x,y,z NGX =    80 NGY =   80 NGZ =   80
   dimension x,y,z NGXF=   160 NGYF=  160 NGZF=  160
   support grid    NGXF=   160 NGYF=  160 NGZF=  160
   ions per type =              52   1  17   1   1   1
   NGX,Y,Z   is equivalent  to a cutoff of   8.93,  8.99,  8.87 a.u.
   NGXF,Y,Z  is equivalent  to a cutoff of  17.85, 17.97, 17.73 a.u.

 SYSTEM =  unknown system                          
 POSCAR =  POSCAR-clean                            

 Startparameter for this run:
   NWRITE =      2    write-flag & timer
   PREC   = normal    normal or accurate (medium, high low for compatibility)
   ISTART =      0    job   : 0-new  1-cont  2-samecut
   ICHARG =      2    charge: 1-file 2-atom 10-const
   ISPIN  =      2    spin polarized calculation?
   LNONCOLLINEAR =      F non collinear calculations
   LSORBIT =      F    spin-orbit coupling
   INIWAV =      1    electr: 0-lowe 1-rand  2-diag
   LASPH  =      F    aspherical Exc in radial PAW
   METAGGA=      F    non-selfconsistent MetaGGA calc.

 Electronic Relaxation 1
   ENCUT  =  440.0 eV  32.34 Ry    5.69 a.u.  25.49 25.31 25.66*2*pi/ulx,y,z
   ENINI  =  440.0     initial cutoff
   ENAUG  =  644.9 eV  augmentation charge cutoff
   NELM   =    100;   NELMIN=  2; NELMDL= -5     # of ELM steps 
   EDIFF  = 0.1E-03   stopping-criterion for ELM
   LREAL  =      F    real-space projection
   NLSPLINE    = F    spline interpolate recip. space projectors
   LCOMPAT=      F    compatible to vasp.4.4
   GGA_COMPAT  = T    GGA compatible to vasp.4.4-vasp.4.6
   LMAXPAW     = -100 max onsite density
   LMAXMIX     =    2 max onsite mixed and CHGCAR
   VOSKOWN=      0    Vosko Wilk Nusair interpolation
   ROPT   =    0.00000   0.00000   0.00000   0.00000
   ROPT   =    0.00000   0.00000
 Ionic relaxation
   EDIFFG = -.1E-01   stopping-criterion for IOM
   NSW    =      0    number of steps for IOM
   NBLOCK =      1;   KBLOCK =      1    inner block; outer block 
   IBRION =     -1    ionic relax: 0-MD 1-quasi-New 2-CG
   NFREE  =      0    steps in history (QN), initial steepest desc. (CG)
   ISIF   =      2    stress and relaxation
   IWAVPR =     10    prediction:  0-non 1-charg 2-wave 3-comb
   ISYM   =      0    0-nonsym 1-usesym 2-fastsym
   LCORR  =      T    Harris-Foulkes like correction to forces

   POTIM  = 0.5000    time-step for ionic-motion
   TEIN   =    0.0    initial temperature
   TEBEG  =    0.0;   TEEND  =   0.0 temperature during run
   SMASS  =  -3.00    Nose mass-parameter (am)
   estimated Nose-frequenzy (Omega)   =  0.10E-29 period in steps =****** mass=  -0.507E-26a.u.
   SCALEE = 1.0000    scale energy and forces
   NPACO  =    256;   APACO  = 16.0  distance and # of slots for P.C.
   PSTRESS=    0.0 pullay stress

  Mass of Ions in am
   POMASS =  12.01 14.00 12.01 52.00 12.01 16.00
  Ionic Valenz
   ZVAL   =   4.00  5.00  4.00 12.00  4.00  6.00
  Atomic Wigner-Seitz radii
   RWIGS  =  -1.00 -1.00 -1.00 -1.00 -1.00 -1.00
  virtual crystal weights 
   VCA    =   1.00  1.00  1.00  1.00  1.00  1.00
   NELECT =     303.0000    total number of electrons
   NUPDOWN=      -1.0000    fix difference up-down

 DOS related values:
   EMIN   = -14.00;   EMAX   =  6.00  energy-range for DOS
   EFERMI =   0.00
   ISMEAR =    -5;   SIGMA  =   0.20  broadening in eV -4-tet -1-fermi 0-gaus

 Electronic relaxation 2 (details)
   IALGO  =     38    algorithm
   LDIAG  =      T    sub-space diagonalisation (order eigenvalues)
   LSUBROT=      F    optimize rotation matrix (better conditioning)
   TURBO    =      0    0=normal 1=particle mesh
   IRESTART =      0    0=no restart 2=restart with 2 vectors
   NREBOOT  =      0    no. of reboots
   NMIN     =      0    reboot dimension
   EREF     =   0.00    reference energy to select bands
   IMIX   =      4    mixing-type and parameters
     AMIX     =   0.25;   BMIX     =  0.00
     AMIX_MAG =   1.00;   BMIX_MAG =  0.00
     AMIN     =   0.10
     WC   =   100.;   INIMIX=   1;  MIXPRE=   1;  MAXMIX= -45

 Intra band minimization:
   WEIMIN = 0.0000     energy-eigenvalue tresh-hold
   EBREAK =  0.13E-06  absolut break condition
   DEPER  =   0.30     relativ break condition  

   TIME   =   0.40     timestep for ELM

  volume/ion in A,a.u.               =      39.06       263.59
  Fermi-wavevector in a.u.,A,eV,Ry     =   0.775422  1.465336  8.180906  0.601280
  Thomas-Fermi vector in A             =   1.877686
 
 Write flags
   LWAVE        =      F    write WAVECAR
   LDOWNSAMPLE  =      F    k-point downsampling of WAVECAR
   LCHARG       =      F    write CHGCAR
   LVTOT        =      F    write LOCPOT, total local potential
   LVHAR        =      F    write LOCPOT, Hartree potential only
   LELF         =      F    write electronic localiz. function (ELF)
   LORBIT       =     11    0 simple, 1 ext, 2 COOP (PROOUT), +10 PAW based schemes


 Dipole corrections
   LMONO  =      F    monopole corrections only (constant potential shift)
   LDIPOL =      F    correct potential (dipole corrections)
   IDIPOL =      0    1-x, 2-y, 3-z, 4-all directions 
   EPSILON=  1.0000000 bulk dielectric constant

 Exchange correlation treatment:
   GGA     =    --    GGA type
   LEXCH   =     8    internal setting for exchange type
   VOSKOWN=      0    Vosko Wilk Nusair interpolation
   LHFCALC =     F    Hartree Fock is set to
   LHFONE  =     F    Hartree Fock one center treatment
   AEXX    =    0.0000 exact exchange contribution

 Linear response parameters
   LEPSILON=     F    determine dielectric tensor
   LRPA    =     F    only Hartree local field effects (RPA)
   LNABLA  =     F    use nabla operator in PAW spheres
   LVEL    =     F    velocity operator in full k-point grid
   LINTERFAST=   F  fast interpolation
   KINTER  =     0    interpolate to denser k-point grid
   CSHIFT  =0.1000    complex shift for real part using Kramers Kronig
   OMEGAMAX=  -1.0    maximum frequency
   DEG_THRESHOLD= 0.2000000E-02 threshold for treating states as degnerate
   RTIME   =   -0.100 relaxation time in fs
  (WPLASMAI=    0.000 imaginary part of plasma frequency in eV, 0.658/RTIME)
   DFIELD  = 0.0000000 0.0000000 0.0000000 field for delta impulse in time
 
 Orbital magnetization related:
   ORBITALMAG=     F  switch on orbital magnetization
   LCHIMAG   =     F  perturbation theory with respect to B field
   DQ        =  0.001000  dq finite difference perturbation B field
   LLRAUG    =     F  two centre corrections for induced B field



--------------------------------------------------------------------------------------------------------


 Static calculation
 charge density and potential will be updated during run
 spin polarized calculation
 Variant of blocked Davidson
 Davidson routine will perform the subspace rotation
 perform sub-space diagonalisation
    after iterative eigenvector-optimisation
 modified Broyden-mixing scheme, WC =      100.0
 initial mixing is a Kerker type mixing with AMIX =  0.2500 and BMIX =      0.0001
 Hartree-type preconditioning will be used
 using additional bands           40
 reciprocal scheme for non local part
 use partial core corrections
 calculate Harris-corrections to forces 
   (improved forces if not selfconsistent)
 use gradient corrections 
 use of overlap-Matrix (Vanderbilt PP)
 Fermi weights with tetrahedron method with Bloechl corrections


--------------------------------------------------------------------------------------------------------


  energy-cutoff  :      440.00
  volume of cell :     2851.36
      direct lattice vectors                 reciprocal lattice vectors
    14.900557007 -0.060417792  0.000000000     0.067270503  0.039193260  0.000000000
    -7.450278504 12.787504481  0.000000000     0.000317836  0.078386520  0.000000000
     0.000000000  0.000000000 15.000000000     0.000000000  0.000000000  0.066666667

  length of vectors
    14.900679496 14.799558123 15.000000000     0.077855200  0.078387164  0.066666667


 
 k-points in units of 2pi/SCALE and weight: K-Points                                
   0.00000000  0.00000000  0.00000000       0.111
   0.02242350  0.01306442  0.00000000       0.222
   0.00010595  0.02612884  0.00000000       0.222
   0.02252945  0.03919326  0.00000000       0.222
  -0.02231756  0.01306442  0.00000000       0.222
 
 k-points in reciprocal lattice and weights: K-Points                                
   0.00000000  0.00000000  0.00000000       0.111
   0.33333333  0.00000000  0.00000000       0.222
  -0.00000000  0.33333333  0.00000000       0.222
   0.33333333  0.33333333  0.00000000       0.222
  -0.33333333  0.33333333  0.00000000       0.222
 
 position of ions in fractional coordinates (direct lattice) 
   0.99961311  0.99967447  0.48403111
   0.05571069  0.11133167  0.48416287
   0.16773051  0.00240590  0.48348635
   0.22373979  0.11409674  0.48434996
   0.33411280  0.00260800  0.48370424
   0.39034718  0.11392941  0.48437270
   0.49976943  0.00012721  0.48334210
   0.55590721  0.11115056  0.48299487
   0.66534328  0.99710408  0.48474193
   0.72166952  0.10863649  0.48375080
   0.83128254  0.99660733  0.48473205
   0.88761986  0.10840006  0.48372316
   0.99925629  0.16536599  0.48390603
   0.05507929  0.27701647  0.48467221
   0.16766278  0.16860505  0.48492954
   0.22380761  0.28053121  0.48624229
   0.33576269  0.17106168  0.48580954
   0.39205435  0.28228082  0.49003350
   0.50120341  0.16767935  0.48380391
   0.55769594  0.27891629  0.48644749
   0.66691809  0.16484221  0.48329041
   0.72321741  0.27602239  0.48365501
   0.83279713  0.16434603  0.48371426
   0.88873568  0.27579865  0.48384620
   0.99975607  0.33214951  0.48447433
   0.05492614  0.44385419  0.48501443
   0.16658497  0.33407432  0.48620401
   0.22028865  0.44540498  0.48774454
   0.33634030  0.33901321  0.48832212
   0.38824229  0.45022033  0.49007413
   0.50430456  0.33678845  0.49386681
   0.56335647  0.44649689  0.50540553
   0.66860021  0.33192693  0.48534307
   0.72585372  0.44284133  0.48638342
   0.83403182  0.33160780  0.48372276
   0.89019705  0.44338120  0.48379636
   0.00058850  0.49984383  0.48433828
   0.05575401  0.61132953  0.48437752
   0.16505374  0.50034026  0.48636311
   0.21999444  0.61181665  0.48548003
   0.33089771  0.50187538  0.48987881
   0.38576119  0.61530672  0.49214945
   0.67177571  0.49758578  0.49369343
   0.72732366  0.61038351  0.49036873
   0.83624353  0.49918336  0.48439213
   0.89146113  0.61078346  0.48518044
   0.00141401  0.66719604  0.48449841
   0.05619242  0.77893321  0.48412509
   0.16610442  0.66772793  0.48438566
   0.22183671  0.77936229  0.48410576
   0.33039621  0.66873992  0.48698960
   0.38711497  0.77954397  0.48609160
   0.49122115  0.66680237  0.49994624
   0.54979780  0.77350278  0.49231518
   0.66881698  0.66067364  0.49196067
   0.71896663  0.77129397  0.48877200
   0.83692796  0.66656941  0.48655574
   0.88972145  0.77758321  0.48544772
   0.00093441  0.83426036  0.48411882
   0.05626541  0.94564565  0.48364187
   0.16707530  0.83527243  0.48383619
   0.22288483  0.94673569  0.48365053
   0.33252612  0.83530405  0.48434558
   0.38888115  0.94644786  0.48368424
   0.49776108  0.83254875  0.48677120
   0.55464228  0.94370191  0.48439891
   0.66239280  0.82720842  0.48976705
   0.71899025  0.93918546  0.48621651
   0.83184063  0.83052105  0.48622629
   0.88760734  0.94234364  0.48498548
   0.52753535  0.55537020  0.53505284
   0.52753535  0.55537020  0.93371951
   0.47749240  0.49837181  0.99007532
 
 position of ions in cartesian coordinates  (Angst):
   7.44693888 12.72294733  7.26046660
   0.00066841  1.42028827  7.26244312
   2.48135348  0.02063150  7.25229524
   2.48379504  1.44549471  7.26524938
   4.95903655  0.01316341  7.25556361
   4.96758456  1.43328893  7.26559051
   7.44589519 -0.02856824  7.25013149
   7.45522450  1.38775161  7.24492303
   2.48528235 12.71027427  7.27112899
   9.94390576  1.34558795  7.25626205
   4.96157072 12.69389649  7.27098073
  12.41841964  1.33253828  7.25584734
  13.65745267  2.05424543  7.25859040
  -1.24313778  3.53902158  7.27008320
   1.24211422  2.14590798  7.27394314
   1.24482244  3.57377217  7.29363429
   3.72859395  2.16716602  7.28714316
   3.73875740  3.58598024  7.35050244
   6.21895208  2.11391886  7.25705858
   6.23197617  3.53294849  7.29671233
   8.70933070  2.06762680  7.24935619
   8.71989860  3.48594241  7.25482517
  11.18471745  2.05125979  7.25571390
  11.18787993  3.47308104  7.25769294
  12.42231604  4.18696025  7.26711492
  -2.48840725  5.67246898  7.27521643
  -0.00673797  4.26191220  7.29306022
  -0.03596756  5.68230880  7.31616813
   2.48591497  4.31481197  7.32483182
   2.43075960  5.73373774  7.35111200
   5.00525116  4.27621479  7.40800214
   5.06779902  5.67554421  7.58108297
   7.48956754  4.20412171  7.28014605
   7.51633352  5.61898104  7.29575123
   9.95696817  4.19004588  7.25584138
   9.96111846  5.61595536  7.25694544
  -3.71520686  6.39171972  7.26507423
  -3.72380952  7.81401060  7.26566278
  -1.26828154  6.38813108  7.29544672
  -1.28016474  7.81031663  7.28220047
   1.19144884  6.39774153  7.34818210
   1.16385021  7.84493055  7.38224175
   6.30267958  6.32229324  7.40540149
   6.29000051  7.76133862  7.35553096
   8.74143936  6.33278550  7.26588193
   8.73276050  7.75653615  7.27770663
  -4.94972680  8.53168687  7.26747613
  -4.96597102  9.95721695  7.26187630
  -2.49971070  8.52853829  7.26578492
  -2.50097554  9.95269589  7.26158644
  -0.05921110  8.53155295  7.30484407
  -0.03959102  9.94503340  7.29137398
   2.35160540  8.49705985  7.49919365
   2.42948235  9.85795270  7.38472770
   5.04354289  8.40795863  7.37941008
   4.96664831  9.81948677  7.33158003
   7.50456511  8.47319393  7.29833612
   7.46413380  9.88959372  7.28171585
  -6.20154878 10.66805165  7.26178234
  -6.20693750 12.08904850  7.25462801
  -3.73349718 10.67095560  7.25754288
  -3.73233644 12.09292063  7.25475801
  -1.26842346 10.66136384  7.26518370
  -1.25675443 12.07921091  7.25526363
   1.21419732 10.61614728  7.30156798
   1.23363687 12.03408209  7.26598367
   3.70708859 10.53791104  7.34650571
   3.71616191 11.96639850  7.29324767
   6.20727569 10.57003364  7.29339435
   6.20512115 11.99659628  7.27478226
   3.72290795  7.06992639  8.02579258
   3.72290795  7.06992639 14.00579258
   3.40189400  6.34408269 14.85112976
 


--------------------------------------------------------------------------------------------------------


 k-point  1 :   0.0000 0.0000 0.0000  plane waves:   59727
 k-point  2 :   0.3333 0.0000 0.0000  plane waves:   59738
 k-point  3 :  -0.0000 0.3333 0.0000  plane waves:   59792
 k-point  4 :   0.3333 0.3333 0.0000  plane waves:   59781
 k-point  5 :  -0.3333 0.3333 0.0000  plane waves:   59752

 maximum and minimum number of plane-waves per node :      5008     4944

 maximum number of plane-waves:     59792
 maximum index in each direction: 
   IXMAX=   25   IYMAX=   25   IZMAX=   25
   IXMIN=  -25   IYMIN=  -25   IZMIN=  -25


 parallel 3D FFT for wavefunctions:
    minimum data exchange during FFTs selected (reduces bandwidth)
 parallel 3D FFT for charge:
    minimum data exchange during FFTs selected (reduces bandwidth)


 total amount of memory used by VASP MPI-rank0   116462. kBytes
=======================================================================

   base      :      30000. kBytes
   nonl-proj :      27461. kBytes
   fftplans  :       4700. kBytes
   grid      :      15193. kBytes
   one-center:        217. kBytes
   wavefun   :      38891. kBytes
 
     INWAV:  cpu time    0.0000: real time    0.0000
 Broyden mixing: mesh for mixing (old mesh)
   NGX = 51   NGY = 51   NGZ = 51
  (NGX  =160   NGY  =160   NGZ  =160)
  gives a total of 132651 points

 initial charge density was supplied:
 charge density of overlapping atoms calculated
 number of electron     303.0000000 magnetization       2.0000000
 keeping initial charge density in first step


--------------------------------------------------------------------------------------------------------


 Maximum index for augmentation-charges          178 (set IRDMAX)


--------------------------------------------------------------------------------------------------------


 First call to EWALD:  gamma=   0.125
 Maximum number of real-space cells 3x 3x 3
 Maximum number of reciprocal cells 3x 3x 3

    FEWALD:  cpu time    0.0046: real time    0.0050


--------------------------------------- Iteration      1(   1)  ---------------------------------------


    POTLOK:  cpu time    0.1724: real time    0.2383
    SETDIJ:  cpu time    0.0498: real time    0.0522
     EDDAV:  cpu time   11.1772: real time   11.2709
 BZINTS: Fermi energy:  7.947709;303.000000 electrons
         Band energy:***********;  BLOECHL correction: -0.014706
       DOS:  cpu time    0.1081: real time    0.1088
    --------------------------------------------
      LOOP:  cpu time   11.5076: real time   11.6701

 eigenvalue-minimisations  :  4352
 total energy-change (2. order) : 0.2523915E+04  (-0.1117339E+05)
 number of electron     303.0000000 magnetization       2.0000000
 augmentation part      303.0000000 magnetization       2.0000000

 Free energy of the ion-electron system (eV)
  ---------------------------------------------------
  alpha Z        PSCENC =       166.77096332
  Ewald energy   TEWEN  =     28839.39065679
  -Hartree energ DENC   =    -38518.92719126
  -exchange      EXHF   =         0.00000000
  -V(xc)+E(xc)   XCENC  =      1021.76226354
  PAW double counting   =      9455.23336183    -9546.47664214
  entropy T*S    EENTRO =         0.00000000
  eigenvalues    EBANDS =     -1538.59164415
  atomic energy  EATOM  =     12644.75315347
  Solvation  Ediel_sol  =         0.00000000
  ---------------------------------------------------
  free energy    TOTEN  =      2523.91492140 eV

  energy without entropy =     2523.91492140  energy(sigma->0) =     2523.91492140


--------------------------------------------------------------------------------------------------------




--------------------------------------- Iteration      1(   2)  ---------------------------------------


     EDDAV:  cpu time   15.2354: real time   15.3757
 BZINTS: Fermi energy: -1.432371;303.000000 electrons
         Band energy:***********;  BLOECHL correction: -0.041628
       DOS:  cpu time    0.0114: real time    0.0115
    --------------------------------------------
      LOOP:  cpu time   15.2468: real time   15.3872

 eigenvalue-minimisations  :  5520
 total energy-change (2. order) :-0.2766558E+04  (-0.2640765E+04)
 number of electron     303.0000000 magnetization       2.0000000
 augmentation part      303.0000000 magnetization       2.0000000

 Free energy of the ion-electron system (eV)
  ---------------------------------------------------
  alpha Z        PSCENC =       166.77096332
  Ewald energy   TEWEN  =     28839.39065679
  -Hartree energ DENC   =    -38518.92719126
  -exchange      EXHF   =         0.00000000
  -V(xc)+E(xc)   XCENC  =      1021.76226354
  PAW double counting   =      9455.23336183    -9546.47664214
  entropy T*S    EENTRO =         0.00000000
  eigenvalues    EBANDS =     -4305.14987740
  atomic energy  EATOM  =     12644.75315347
  Solvation  Ediel_sol  =         0.00000000
  ---------------------------------------------------
  free energy    TOTEN  =      -242.64331185 eV

  energy without entropy =     -242.64331185  energy(sigma->0) =     -242.64331185


--------------------------------------------------------------------------------------------------------




--------------------------------------- Iteration      1(   3)  ---------------------------------------


     EDDAV:  cpu time   12.7189: real time   12.8395
 BZINTS: Fermi energy: -4.538930;303.000000 electrons
         Band energy:***********;  BLOECHL correction: -0.050239
       DOS:  cpu time    0.0112: real time    0.0113
    --------------------------------------------
      LOOP:  cpu time   12.7301: real time   12.8508

 eigenvalue-minimisations  :  4576
 total energy-change (2. order) :-0.4619762E+03  (-0.4586310E+03)
 number of electron     303.0000000 magnetization       2.0000000
 augmentation part      303.0000000 magnetization       2.0000000

 Free energy of the ion-electron system (eV)
  ---------------------------------------------------
  alpha Z        PSCENC =       166.77096332
  Ewald energy   TEWEN  =     28839.39065679
  -Hartree energ DENC   =    -38518.92719126
  -exchange      EXHF   =         0.00000000
  -V(xc)+E(xc)   XCENC  =      1021.76226354
  PAW double counting   =      9455.23336183    -9546.47664214
  entropy T*S    EENTRO =         0.00000000
  eigenvalues    EBANDS =     -4767.12610194
  atomic energy  EATOM  =     12644.75315347
  Solvation  Ediel_sol  =         0.00000000
  ---------------------------------------------------
  free energy    TOTEN  =      -704.61953639 eV

  energy without entropy =     -704.61953639  energy(sigma->0) =     -704.61953639


--------------------------------------------------------------------------------------------------------




--------------------------------------- Iteration      1(   4)  ---------------------------------------


     EDDAV:  cpu time   12.9228: real time   13.0175
 BZINTS: Fermi energy: -4.684449;303.000000 electrons
         Band energy:***********;  BLOECHL correction: -0.051661
       DOS:  cpu time    0.0111: real time    0.0112
    --------------------------------------------
      LOOP:  cpu time   12.9339: real time   13.0287

 eigenvalue-minimisations  :  4640
 total energy-change (2. order) :-0.1654798E+02  (-0.1640996E+02)
 number of electron     303.0000000 magnetization       2.0000000
 augmentation part      303.0000000 magnetization       2.0000000

 Free energy of the ion-electron system (eV)
  ---------------------------------------------------
  alpha Z        PSCENC =       166.77096332
  Ewald energy   TEWEN  =     28839.39065679
  -Hartree energ DENC   =    -38518.92719126
  -exchange      EXHF   =         0.00000000
  -V(xc)+E(xc)   XCENC  =      1021.76226354
  PAW double counting   =      9455.23336183    -9546.47664214
  entropy T*S    EENTRO =         0.00000000
  eigenvalues    EBANDS =     -4783.67408411
  atomic energy  EATOM  =     12644.75315347
  Solvation  Ediel_sol  =         0.00000000
  ---------------------------------------------------
  free energy    TOTEN  =      -721.16751856 eV

  energy without entropy =     -721.16751856  energy(sigma->0) =     -721.16751856


--------------------------------------------------------------------------------------------------------




--------------------------------------- Iteration      1(   5)  ---------------------------------------


     EDDAV:  cpu time   14.3313: real time   14.4248
 BZINTS: Fermi energy: -4.692858;303.000000 electrons
         Band energy:***********;  BLOECHL correction: -0.052056
       DOS:  cpu time    0.0113: real time    0.0113
    CHARGE:  cpu time    0.1713: real time    0.1756
    MIXING:  cpu time    0.0048: real time    0.0049
    --------------------------------------------
      LOOP:  cpu time   14.5187: real time   14.6166

 eigenvalue-minimisations  :  5248
 total energy-change (2. order) :-0.5383770E+00  (-0.5368243E+00)
 number of electron     302.9999967 magnetization       0.0181124
 augmentation part       12.3469242 magnetization       0.0602629

 Broyden mixing:
  rms(total) = 0.47810E+01    rms(broyden)= 0.47804E+01
  rms(prec ) = 0.55654E+01
  weight for this iteration     100.00

 Free energy of the ion-electron system (eV)
  ---------------------------------------------------
  alpha Z        PSCENC =       166.77096332
  Ewald energy   TEWEN  =     28839.39065679
  -Hartree energ DENC   =    -38518.92719126
  -exchange      EXHF   =         0.00000000
  -V(xc)+E(xc)   XCENC  =      1021.76226354
  PAW double counting   =      9455.23336183    -9546.47664214
  entropy T*S    EENTRO =         0.00000000
  eigenvalues    EBANDS =     -4784.21246114
  atomic energy  EATOM  =     12644.75315347
  Solvation  Ediel_sol  =         0.00000000
  ---------------------------------------------------
  free energy    TOTEN  =      -721.70589559 eV

  energy without entropy =     -721.70589559  energy(sigma->0) =     -721.70589559


--------------------------------------------------------------------------------------------------------




--------------------------------------- Iteration      1(   6)  ---------------------------------------


    POTLOK:  cpu time    0.1408: real time    0.1433
    SETDIJ:  cpu time    0.0105: real time    0.0106
     EDDAV:  cpu time   13.0402: real time   13.1375
 BZINTS: Fermi energy: -5.552844;303.000000 electrons
         Band energy:***********;  BLOECHL correction: -0.012680
       DOS:  cpu time    0.0122: real time    0.0122
    CHARGE:  cpu time    0.1858: real time    0.1933
    MIXING:  cpu time    0.0033: real time    0.0038
    --------------------------------------------
      LOOP:  cpu time   13.3927: real time   13.5006

 eigenvalue-minimisations  :  5016
 total energy-change (2. order) :-0.6822512E+01  (-0.8467752E+01)
 number of electron     303.0000002 magnetization      -0.0084783
 augmentation part       18.1606249 magnetization       0.0821399

 Broyden mixing:
  rms(total) = 0.82043E+01    rms(broyden)= 0.82040E+01
  rms(prec ) = 0.92871E+01
  weight for this iteration     100.00

 eigenvalues of (default mixing * dielectric matrix)
  average eigenvalue GAMMA=   0.2437
  0.2437

 Free energy of the ion-electron system (eV)
  ---------------------------------------------------
  alpha Z        PSCENC =       166.77096332
  Ewald energy   TEWEN  =     28839.39065679
  -Hartree energ DENC   =    -38887.13548183
  -exchange      EXHF   =         0.00000000
  -V(xc)+E(xc)   XCENC  =      1034.65930596
  PAW double counting   =     13228.89616763   -13319.99334103
  entropy T*S    EENTRO =         0.00000000
  eigenvalues    EBANDS =     -4435.86983202
  atomic energy  EATOM  =     12644.75315347
  Solvation  Ediel_sol  =         0.00000000
  ---------------------------------------------------
  free energy    TOTEN  =      -728.52840772 eV

  energy without entropy =     -728.52840772  energy(sigma->0) =     -728.52840772


--------------------------------------------------------------------------------------------------------




--------------------------------------- Iteration      1(   7)  ---------------------------------------


    POTLOK:  cpu time    0.1432: real time    0.1513
    SETDIJ:  cpu time    0.0105: real time    0.0107
     EDDAV:  cpu time   13.0146: real time   13.0976
 BZINTS: Fermi energy: -4.892614;303.000000 electrons
         Band energy:***********;  BLOECHL correction: -0.061156
       DOS:  cpu time    0.0116: real time    0.0116
    CHARGE:  cpu time    0.1655: real time    0.1711
    MIXING:  cpu time    0.0039: real time    0.0042
    --------------------------------------------
      LOOP:  cpu time   13.3493: real time   13.4465

 eigenvalue-minimisations  :  4944
 total energy-change (2. order) : 0.5068914E+02  (-0.6125790E+01)
 number of electron     302.9999999 magnetization       0.0375119
 augmentation part       15.6534834 magnetization       0.0477110

 Broyden mixing:
  rms(total) = 0.33255E+01    rms(broyden)= 0.33248E+01
  rms(prec ) = 0.39035E+01
  weight for this iteration     100.00

 eigenvalues of (default mixing * dielectric matrix)
  average eigenvalue GAMMA=   0.5200
  0.6570  0.3830

 Free energy of the ion-electron system (eV)
  ---------------------------------------------------
  alpha Z        PSCENC =       166.77096332
  Ewald energy   TEWEN  =     28839.39065679
  -Hartree energ DENC   =    -39020.71092869
  -exchange      EXHF   =         0.00000000
  -V(xc)+E(xc)   XCENC  =      1038.79918860
  PAW double counting   =     14390.33686806   -14485.67419375
  entropy T*S    EENTRO =         0.00000000
  eigenvalues    EBANDS =     -4251.50497491
  atomic energy  EATOM  =     12644.75315347
  Solvation  Ediel_sol  =         0.00000000
  ---------------------------------------------------
  free energy    TOTEN  =      -677.83926711 eV

  energy without entropy =     -677.83926711  energy(sigma->0) =     -677.83926711


--------------------------------------------------------------------------------------------------------




--------------------------------------- Iteration      1(   8)  ---------------------------------------


    POTLOK:  cpu time    0.1464: real time    0.1488
    SETDIJ:  cpu time    0.0087: real time    0.0088
     EDDAV:  cpu time   13.4866: real time   13.5725
 BZINTS: Fermi energy: -2.559992;303.000000 electrons
         Band energy:***********;  BLOECHL correction: -0.043669
       DOS:  cpu time    0.0116: real time    0.0116
    CHARGE:  cpu time    0.2168: real time    0.2185
    MIXING:  cpu time    0.0039: real time    0.0039
    --------------------------------------------
      LOOP:  cpu time   13.8741: real time   13.9642

 eigenvalue-minimisations  :  5328
 total energy-change (2. order) :-0.2042590E+01  (-0.8048236E+01)
 number of electron     302.9999973 magnetization       0.0504423
 augmentation part       11.9272012 magnetization       0.0184162

 Broyden mixing:
  rms(total) = 0.31023E+01    rms(broyden)= 0.31014E+01
  rms(prec ) = 0.37416E+01
  weight for this iteration     100.00

 eigenvalues of (default mixing * dielectric matrix)
  average eigenvalue GAMMA=   1.0113
  2.3163  0.3588  0.3588

 Free energy of the ion-electron system (eV)
  ---------------------------------------------------
  alpha Z        PSCENC =       166.77096332
  Ewald energy   TEWEN  =     28839.39065679
  -Hartree energ DENC   =    -39245.59271179
  -exchange      EXHF   =         0.00000000
  -V(xc)+E(xc)   XCENC  =      1046.07173300
  PAW double counting   =     16878.56608947   -16977.03140028
  entropy T*S    EENTRO =         0.00000000
  eigenvalues    EBANDS =     -4032.81034153
  atomic energy  EATOM  =     12644.75315347
  Solvation  Ediel_sol  =         0.00000000
  ---------------------------------------------------
  free energy    TOTEN  =      -679.88185755 eV

  energy without entropy =     -679.88185755  energy(sigma->0) =     -679.88185755


--------------------------------------------------------------------------------------------------------




--------------------------------------- Iteration      1(   9)  ---------------------------------------


    POTLOK:  cpu time    0.1461: real time    0.1486
    SETDIJ:  cpu time    0.0103: real time    0.0104
     EDDAV:  cpu time   12.3124: real time   12.3909
 BZINTS: Fermi energy: -2.125487;303.000000 electrons
         Band energy:***********;  BLOECHL correction: -0.001035
       DOS:  cpu time    0.0117: real time    0.0117
    CHARGE:  cpu time    0.1695: real time    0.1704
    MIXING:  cpu time    0.0037: real time    0.0037
    --------------------------------------------
      LOOP:  cpu time   12.6536: real time   12.7358

 eigenvalue-minimisations  :  4584
 total energy-change (2. order) : 0.1696186E+02  (-0.3084221E+01)
 number of electron     303.0000000 magnetization      -0.6947946
 augmentation part       13.5112354 magnetization      -0.2917704

 Broyden mixing:
  rms(total) = 0.11326E+01    rms(broyden)= 0.11308E+01
  rms(prec ) = 0.11733E+01
  weight for this iteration     100.00

 eigenvalues of (default mixing * dielectric matrix)
  average eigenvalue GAMMA=   1.0702
  2.9509  0.6168  0.3566  0.3566

 Free energy of the ion-electron system (eV)
  ---------------------------------------------------
  alpha Z        PSCENC =       166.77096332
  Ewald energy   TEWEN  =     28839.39065679
  -Hartree energ DENC   =    -39743.87223447
  -exchange      EXHF   =         0.00000000
  -V(xc)+E(xc)   XCENC  =      1064.18321837
  PAW double counting   =     25538.10920893   -25640.73266752
  entropy T*S    EENTRO =         0.00000000
  eigenvalues    EBANDS =     -3531.52229737
  atomic energy  EATOM  =     12644.75315347
  Solvation  Ediel_sol  =         0.00000000
  ---------------------------------------------------
  free energy    TOTEN  =      -662.91999849 eV

  energy without entropy =     -662.91999849  energy(sigma->0) =     -662.91999849


--------------------------------------------------------------------------------------------------------




--------------------------------------- Iteration      1(  10)  ---------------------------------------


    POTLOK:  cpu time    0.1480: real time    0.1504
    SETDIJ:  cpu time    0.0087: real time    0.0088
     EDDAV:  cpu time   12.1216: real time   12.2040
 BZINTS: Fermi energy: -1.951978;303.000000 electrons
         Band energy:***********;  BLOECHL correction:  0.000000
       DOS:  cpu time    0.0062: real time    0.0062
    CHARGE:  cpu time    0.1660: real time    0.1668
    MIXING:  cpu time    0.0039: real time    0.0039
    --------------------------------------------
      LOOP:  cpu time   12.4545: real time   12.5401

 eigenvalue-minimisations  :  4592
 total energy-change (2. order) :-0.5275632E+00  (-0.3871358E+00)
 number of electron     302.9999996 magnetization      -1.1694251
 augmentation part       13.3078225 magnetization      -0.8369918

 Broyden mixing:
  rms(total) = 0.80037E+00    rms(broyden)= 0.80017E+00
  rms(prec ) = 0.82060E+00
  weight for this iteration     100.00

 eigenvalues of (default mixing * dielectric matrix)
  average eigenvalue GAMMA=   1.2575
  3.3786  1.0996  1.0996  0.3548  0.3548

 Free energy of the ion-electron system (eV)
  ---------------------------------------------------
  alpha Z        PSCENC =       166.77096332
  Ewald energy   TEWEN  =     28839.39065679
  -Hartree energ DENC   =    -39783.05959955
  -exchange      EXHF   =         0.00000000
  -V(xc)+E(xc)   XCENC  =      1065.88750666
  PAW double counting   =     27879.68422530   -27982.50532981
  entropy T*S    EENTRO =         0.00000000
  eigenvalues    EBANDS =     -3494.36913790
  atomic energy  EATOM  =     12644.75315347
  Solvation  Ediel_sol  =         0.00000000
  ---------------------------------------------------
  free energy    TOTEN  =      -663.44756172 eV

  energy without entropy =     -663.44756172  energy(sigma->0) =     -663.44756172


--------------------------------------------------------------------------------------------------------




--------------------------------------- Iteration      1(  11)  ---------------------------------------


    POTLOK:  cpu time    0.1497: real time    0.1516
    SETDIJ:  cpu time    0.0088: real time    0.0088
     EDDAV:  cpu time   12.0780: real time   12.1531
 BZINTS: Fermi energy: -2.085712;303.000000 electrons
         Band energy:***********;  BLOECHL correction: -0.004885
       DOS:  cpu time    0.0117: real time    0.0117
    CHARGE:  cpu time    0.1688: real time    0.1699
    MIXING:  cpu time    0.0041: real time    0.0041
    --------------------------------------------
      LOOP:  cpu time   12.4210: real time   12.4993

 eigenvalue-minimisations  :  4552
 total energy-change (2. order) :-0.5984602E-01  (-0.1118772E+00)
 number of electron     302.9999989 magnetization      -1.6237569
 augmentation part       13.5126250 magnetization      -0.5090170

 Broyden mixing:
  rms(total) = 0.75247E+00    rms(broyden)= 0.75151E+00
  rms(prec ) = 0.77638E+00
  weight for this iteration     100.00

 eigenvalues of (default mixing * dielectric matrix)
  average eigenvalue GAMMA=   1.0507
  3.3770  1.0998  1.0998  0.3548  0.3548  0.0177

 Free energy of the ion-electron system (eV)
  ---------------------------------------------------
  alpha Z        PSCENC =       166.77096332
  Ewald energy   TEWEN  =     28839.39065679
  -Hartree energ DENC   =    -39737.65480012
  -exchange      EXHF   =         0.00000000
  -V(xc)+E(xc)   XCENC  =      1064.90935264
  PAW double counting   =     30347.32469333   -30449.11825386
  entropy T*S    EENTRO =         0.00000000
  eigenvalues    EBANDS =     -3539.88317331
  atomic energy  EATOM  =     12644.75315347
  Solvation  Ediel_sol  =         0.00000000
  ---------------------------------------------------
  free energy    TOTEN  =      -663.50740775 eV

  energy without entropy =     -663.50740775  energy(sigma->0) =     -663.50740775


--------------------------------------------------------------------------------------------------------




--------------------------------------- Iteration      1(  12)  ---------------------------------------


    POTLOK:  cpu time    0.1475: real time    0.1499
    SETDIJ:  cpu time    0.0089: real time    0.0094
     EDDAV:  cpu time   12.3769: real time   12.4576
 BZINTS: Fermi energy: -2.064470;303.000000 electrons
         Band energy:***********;  BLOECHL correction: -0.000895
       DOS:  cpu time    0.0129: real time    0.0130
    CHARGE:  cpu time    0.1672: real time    0.1683
    MIXING:  cpu time    0.0040: real time    0.0040
    --------------------------------------------
      LOOP:  cpu time   12.7174: real time   12.8022

 eigenvalue-minimisations  :  4584
 total energy-change (2. order) :-0.1744970E+00  (-0.1311338E-01)
 number of electron     302.9999988 magnetization      -3.9028182
 augmentation part       13.5067765 magnetization      -2.4947609

 Broyden mixing:
  rms(total) = 0.68144E+00    rms(broyden)= 0.68133E+00
  rms(prec ) = 0.70463E+00
  weight for this iteration     100.00

 eigenvalues of (default mixing * dielectric matrix)
  average eigenvalue GAMMA=   1.3077
  3.4241  1.6063  1.6063  0.3550  0.3550  0.9036  0.9036

 Free energy of the ion-electron system (eV)
  ---------------------------------------------------
  alpha Z        PSCENC =       166.77096332
  Ewald energy   TEWEN  =     28839.39065679
  -Hartree energ DENC   =    -39732.88516016
  -exchange      EXHF   =         0.00000000
  -V(xc)+E(xc)   XCENC  =      1064.86596061
  PAW double counting   =     30515.04837658   -30616.76768934
  entropy T*S    EENTRO =         0.00000000
  eigenvalues    EBANDS =     -3544.85816603
  atomic energy  EATOM  =     12644.75315347
  Solvation  Ediel_sol  =         0.00000000
  ---------------------------------------------------
  free energy    TOTEN  =      -663.68190476 eV

  energy without entropy =     -663.68190476  energy(sigma->0) =     -663.68190476


--------------------------------------------------------------------------------------------------------




--------------------------------------- Iteration      1(  13)  ---------------------------------------


    POTLOK:  cpu time    0.1467: real time    0.1490
    SETDIJ:  cpu time    0.0103: real time    0.0103
     EDDAV:  cpu time   12.5391: real time   12.6081
 BZINTS: Fermi energy: -2.107027;303.000000 electrons
         Band energy:***********;  BLOECHL correction:  0.000000
       DOS:  cpu time    0.0096: real time    0.0096
    CHARGE:  cpu time    0.2074: real time    0.2086
    MIXING:  cpu time    0.0045: real time    0.0045
    --------------------------------------------
      LOOP:  cpu time   12.9176: real time   12.9901

 eigenvalue-minimisations  :  4696
 total energy-change (2. order) :-0.8962403E-01  (-0.7527076E-01)
 number of electron     302.9999989 magnetization      -3.4607689
 augmentation part       13.5201228 magnetization      -2.2300068

 Broyden mixing:
  rms(total) = 0.29989E+00    rms(broyden)= 0.29982E+00
  rms(prec ) = 0.33797E+00
  weight for this iteration     100.00

 eigenvalues of (default mixing * dielectric matrix)
  average eigenvalue GAMMA=   1.2377
  3.6373  1.3228  1.3228  1.3492  0.3551  0.3551  0.8594  0.6996

 Free energy of the ion-electron system (eV)
  ---------------------------------------------------
  alpha Z        PSCENC =       166.77096332
  Ewald energy   TEWEN  =     28839.39065679
  -Hartree energ DENC   =    -39714.29541110
  -exchange      EXHF   =         0.00000000
  -V(xc)+E(xc)   XCENC  =      1065.06652681
  PAW double counting   =     31195.06811436   -31296.70589487
  entropy T*S    EENTRO =         0.00000000
  eigenvalues    EBANDS =     -3563.81963756
  atomic energy  EATOM  =     12644.75315347
  Solvation  Ediel_sol  =         0.00000000
  ---------------------------------------------------
  free energy    TOTEN  =      -663.77152879 eV

  energy without entropy =     -663.77152879  energy(sigma->0) =     -663.77152879


--------------------------------------------------------------------------------------------------------




--------------------------------------- Iteration      1(  14)  ---------------------------------------


    POTLOK:  cpu time    0.1453: real time    0.1476
    SETDIJ:  cpu time    0.0104: real time    0.0106
     EDDAV:  cpu time   12.1697: real time   12.2626
 BZINTS: Fermi energy: -2.157039;303.000000 electrons
         Band energy:***********;  BLOECHL correction:  0.000000
       DOS:  cpu time    0.0082: real time    0.0084
    CHARGE:  cpu time    0.1698: real time    0.1707
    MIXING:  cpu time    0.0043: real time    0.0044
    --------------------------------------------
      LOOP:  cpu time   12.5078: real time   12.6043

 eigenvalue-minimisations  :  4568
 total energy-change (2. order) : 0.8728318E-02  (-0.1579437E-01)
 number of electron     302.9999988 magnetization      -3.0214186
 augmentation part       13.4851229 magnetization      -1.7907899

 Broyden mixing:
  rms(total) = 0.23103E+00    rms(broyden)= 0.23101E+00
  rms(prec ) = 0.25140E+00
  weight for this iteration     100.00

 eigenvalues of (default mixing * dielectric matrix)
  average eigenvalue GAMMA=   1.2923
  3.7385  2.0205  1.3059  1.3059  0.3551  0.3551  0.9063  0.9063  0.7367

 Free energy of the ion-electron system (eV)
  ---------------------------------------------------
  alpha Z        PSCENC =       166.77096332
  Ewald energy   TEWEN  =     28839.39065679
  -Hartree energ DENC   =    -39702.94082845
  -exchange      EXHF   =         0.00000000
  -V(xc)+E(xc)   XCENC  =      1064.75089544
  PAW double counting   =     31610.38554627   -31711.90572186
  entropy T*S    EENTRO =         0.00000000
  eigenvalues    EBANDS =     -3574.96746544
  atomic energy  EATOM  =     12644.75315347
  Solvation  Ediel_sol  =         0.00000000
  ---------------------------------------------------
  free energy    TOTEN  =      -663.76280047 eV

  energy without entropy =     -663.76280047  energy(sigma->0) =     -663.76280047


--------------------------------------------------------------------------------------------------------




--------------------------------------- Iteration      1(  15)  ---------------------------------------


    POTLOK:  cpu time    0.1444: real time    0.1468
    SETDIJ:  cpu time    0.0088: real time    0.0088
     EDDAV:  cpu time   12.1373: real time   12.2155
 BZINTS: Fermi energy: -2.182026;303.000000 electrons
         Band energy:***********;  BLOECHL correction:  0.000000
       DOS:  cpu time    0.0059: real time    0.0059
    CHARGE:  cpu time    0.1684: real time    0.1695
    MIXING:  cpu time    0.0045: real time    0.0045
    --------------------------------------------
      LOOP:  cpu time   12.4693: real time   12.5510

 eigenvalue-minimisations  :  4600
 total energy-change (2. order) :-0.5366253E-01  (-0.1096431E-01)
 number of electron     302.9999988 magnetization      -2.9152869
 augmentation part       13.4445908 magnetization      -1.6376701

 Broyden mixing:
  rms(total) = 0.12520E+00    rms(broyden)= 0.12519E+00
  rms(prec ) = 0.13568E+00
  weight for this iteration     100.00

 eigenvalues of (default mixing * dielectric matrix)
  average eigenvalue GAMMA=   1.3223
  3.7759  2.1497  1.4365  1.4365  0.3551  0.3551  1.0453  1.0453  0.8121  0.8121

 Free energy of the ion-electron system (eV)
  ---------------------------------------------------
  alpha Z        PSCENC =       166.77096332
  Ewald energy   TEWEN  =     28839.39065679
  -Hartree energ DENC   =    -39697.80028004
  -exchange      EXHF   =         0.00000000
  -V(xc)+E(xc)   XCENC  =      1064.38774423
  PAW double counting   =     31771.74520964   -31873.20670453
  entropy T*S    EENTRO =         0.00000000
  eigenvalues    EBANDS =     -3579.85720588
  atomic energy  EATOM  =     12644.75315347
  Solvation  Ediel_sol  =         0.00000000
  ---------------------------------------------------
  free energy    TOTEN  =      -663.81646300 eV

  energy without entropy =     -663.81646300  energy(sigma->0) =     -663.81646300


--------------------------------------------------------------------------------------------------------




--------------------------------------- Iteration      1(  16)  ---------------------------------------


    POTLOK:  cpu time    0.1441: real time    0.1467
    SETDIJ:  cpu time    0.0087: real time    0.0087
     EDDAV:  cpu time   12.9323: real time   13.0268
 BZINTS: Fermi energy: -2.181967;303.000000 electrons
         Band energy:***********;  BLOECHL correction:  0.000000
       DOS:  cpu time    0.0055: real time    0.0055
    CHARGE:  cpu time    0.1698: real time    0.1738
    MIXING:  cpu time    0.0042: real time    0.0045
    --------------------------------------------
      LOOP:  cpu time   13.2646: real time   13.3659

 eigenvalue-minimisations  :  4824
 total energy-change (2. order) : 0.9034036E-03  (-0.2376854E-02)
 number of electron     302.9999988 magnetization      -2.9857142
 augmentation part       13.4174808 magnetization      -1.6806762

 Broyden mixing:
  rms(total) = 0.86191E-01    rms(broyden)= 0.86183E-01
  rms(prec ) = 0.89869E-01
  weight for this iteration     100.00

 eigenvalues of (default mixing * dielectric matrix)
  average eigenvalue GAMMA=   1.3467
  3.7595  2.2226  1.9248  1.2813  1.2813  0.3551  0.3551  0.9721  0.9721  0.9009
  0.7889

 Free energy of the ion-electron system (eV)
  ---------------------------------------------------
  alpha Z        PSCENC =       166.77096332
  Ewald energy   TEWEN  =     28839.39065679
  -Hartree energ DENC   =    -39696.99903806
  -exchange      EXHF   =         0.00000000
  -V(xc)+E(xc)   XCENC  =      1064.29178339
  PAW double counting   =     31851.17967041   -31952.62318273
  entropy T*S    EENTRO =         0.00000000
  eigenvalues    EBANDS =     -3580.57956618
  atomic energy  EATOM  =     12644.75315347
  Solvation  Ediel_sol  =         0.00000000
  ---------------------------------------------------
  free energy    TOTEN  =      -663.81555960 eV

  energy without entropy =     -663.81555960  energy(sigma->0) =     -663.81555960


[...]
   0.125E+02 0.120E+01 0.914E+01   -.128E+02 -.151E+01 -.922E+01   0.365E+00 0.324E+00 0.880E-01   -.697E-02 0.282E-03 -.366E-02
   0.337E+02 0.168E+02 0.195E+02   -.327E+02 -.181E+02 -.202E+02   -.889E+00 0.130E+01 0.659E+00   -.587E-01 -.219E-01 -.240E-01
   0.562E+02 0.138E+02 0.123E+02   -.593E+02 -.160E+02 -.129E+02   0.328E+01 0.222E+01 0.648E+00   -.603E-01 0.248E-01 -.223E-01
   -.292E+02 0.732E+01 0.453E+01   0.279E+02 -.805E+01 -.443E+01   0.120E+01 0.694E+00 -.532E-01   0.556E-01 -.185E-01 -.204E-01
   -.296E+02 -.844E+01 0.177E+02   0.286E+02 0.841E+01 -.180E+02   0.898E+00 -.251E-01 0.258E+00   0.498E-01 0.280E-01 -.226E-01
   -.883E+01 -.171E+00 0.136E+02   0.863E+01 0.483E-01 -.137E+02   0.171E+00 0.992E-01 0.101E+00   0.382E-02 -.648E-03 -.292E-02
   -.682E+01 -.128E+01 0.784E+01   0.668E+01 0.124E+01 -.777E+01   0.134E+00 0.701E-01 -.744E-01   0.296E-02 0.113E-02 -.313E-02
   -.496E+01 -.585E+01 0.551E+01   0.488E+01 0.580E+01 -.554E+01   0.687E-01 0.436E-01 0.146E-01   -.865E-03 0.165E-02 -.223E-02
   -.109E+01 -.430E+01 0.567E+01   0.935E+00 0.431E+01 -.566E+01   0.144E+00 0.916E-02 -.151E-01   -.575E-03 0.199E-02 -.187E-02
   0.675E+01 -.485E+01 0.746E+01   -.688E+01 0.480E+01 -.748E+01   0.133E+00 0.284E-01 0.246E-01   -.149E-02 0.131E-02 -.215E-02
   0.648E+01 -.433E+01 0.641E+01   -.657E+01 0.437E+01 -.640E+01   0.108E+00 -.767E-02 -.110E-01   -.160E-02 0.126E-02 -.192E-02
   0.264E+02 -.557E+01 0.130E+02   -.270E+02 0.554E+01 -.132E+02   0.584E+00 0.342E-01 0.193E+00   -.133E-01 0.471E-02 -.618E-02
   0.142E+02 -.164E+02 0.813E+01   -.144E+02 0.168E+02 -.801E+01   0.221E+00 -.334E+00 -.109E+00   -.693E-02 0.737E-02 -.427E-02
   -.126E+02 -.410E+02 -.137E+02   0.317E+02 0.299E+02 0.160E+02   -.190E+02 0.110E+02 -.222E+01   -.114E+00 0.139E+00 -.607E-01
   -.103E+02 -.580E+02 0.287E+01   0.109E+02 0.618E+02 -.329E+01   -.678E+00 -.395E+01 0.439E+00   -.882E-02 0.400E-01 -.152E-01
   -.235E+01 -.363E+02 0.454E+02   -.414E+01 0.321E+02 -.446E+02   0.643E+01 0.407E+01 -.688E+00   0.991E-01 0.106E+00 -.555E-01
   -.302E+01 -.270E+02 0.159E+02   0.311E+01 0.259E+02 -.161E+02   -.111E+00 0.111E+01 0.258E+00   0.190E-01 0.294E-01 -.147E-01
   -.164E+02 -.904E+01 0.108E+02   0.161E+02 0.892E+01 -.109E+02   0.306E+00 0.134E+00 0.845E-01   0.558E-02 0.529E-02 -.552E-02
   -.606E+01 -.137E+02 0.899E+01   0.580E+01 0.137E+02 -.900E+01   0.261E+00 0.241E-01 -.998E-02   -.370E-03 0.605E-02 -.374E-02
   -.271E+01 -.482E+01 0.789E+01   0.259E+01 0.484E+01 -.792E+01   0.138E+00 -.220E-01 0.245E-01   -.819E-03 0.215E-02 -.207E-02
   -.167E+01 -.461E+01 0.816E+01   0.167E+01 0.466E+01 -.817E+01   0.291E-01 -.322E-01 0.196E-01   -.189E-02 0.503E-05 -.180E-02
   0.129E+01 -.299E+01 0.575E+01   -.138E+01 0.305E+01 -.577E+01   0.130E+00 -.880E-01 0.104E-01   -.165E-02 0.121E-02 -.162E-02
   0.164E+01 -.266E+01 0.624E+01   -.166E+01 0.276E+01 -.622E+01   0.516E-01 -.100E+00 -.268E-01   -.244E-02 0.124E-02 -.160E-02
   0.704E+01 -.608E+01 0.762E+01   -.733E+01 0.633E+01 -.765E+01   0.271E+00 -.257E+00 0.354E-01   -.147E-02 0.134E-02 -.230E-02
   0.447E+01 -.634E+01 0.763E+01   -.457E+01 0.655E+01 -.762E+01   0.816E-01 -.226E+00 -.190E-01   -.774E-04 0.262E-04 -.184E-02
   0.370E+01 -.207E+02 0.110E+02   -.364E+01 0.212E+02 -.111E+02   -.953E-01 -.458E+00 0.125E+00   0.741E-03 0.105E-01 -.517E-02
   0.260E+01 -.123E+02 0.110E+02   -.250E+01 0.127E+02 -.111E+02   -.110E+00 -.408E+00 0.607E-01   0.358E-02 0.322E-02 -.274E-02
   -.865E+01 -.161E+02 0.282E+01   0.948E+01 0.158E+02 -.264E+01   -.818E+00 0.356E+00 -.160E+00   0.292E-02 0.267E-01 -.114E-01
   -.412E+01 -.109E+02 0.579E+01   0.417E+01 0.107E+02 -.581E+01   -.692E-01 0.216E+00 0.219E-01   0.273E-02 0.257E-02 -.382E-02
   -.915E+00 -.109E+02 0.866E+01   0.519E+00 0.107E+02 -.872E+01   0.408E+00 0.230E+00 0.493E-01   0.347E-03 0.801E-02 -.524E-02
   -.391E+01 -.727E+01 0.630E+01   0.387E+01 0.715E+01 -.628E+01   0.513E-01 0.110E+00 -.302E-01   -.179E-02 0.709E-03 -.289E-02
   -.195E+02 0.132E+02 -.536E+03   0.235E+02 -.169E+02 0.523E+03   -.406E+01 0.368E+01 0.131E+02   0.306E-01 0.240E-01 -.720E-01
   -.640E+02 -.144E+03 0.100E+03   0.712E+02 0.160E+03 -.119E+03   -.774E+01 -.175E+02 0.204E+02   0.441E-05 -.421E-03 0.967E-02
   0.555E+02 0.127E+03 -.149E+03   -.711E+02 -.162E+03 0.191E+03   0.161E+02 0.365E+02 -.426E+02   -.298E-03 -.119E-02 0.770E-02
 -----------------------------------------------------------------------------------------------
   0.114E+01 -.259E+02 0.118E+02   -.142E-13 0.995E-12 0.142E-12   -.114E+01 0.259E+02 -.111E+02   -.956E-02 0.341E-01 -.611E+00
 
 
 POSITION                                       TOTAL-FORCE (eV/Angst)
 -----------------------------------------------------------------------------------
      7.44694     12.72295      7.26047         0.029109     -0.004331      0.005459
      0.00067      1.42029      7.26244         0.031080     -0.017149      0.000776
      2.48135      0.02063      7.25230         0.000095     -0.000168      0.014579
      2.48380      1.44549      7.26525        -0.001298     -0.023600      0.003587
      4.95904      0.01316      7.25556         0.014613     -0.020280     -0.011104
      4.96758      1.43329      7.26559        -0.012111     -0.011733      0.011685
      7.44590     -0.02857      7.25013         0.020089     -0.003417     -0.007272
      7.45522      1.38775      7.24492         0.028104      0.008058     -0.005071
      2.48528     12.71027      7.27113        -0.002216     -0.006253      0.005561
      9.94391      1.34559      7.25626        -0.015101     -0.003288     -0.015594
      4.96157     12.69390      7.27098        -0.004162     -0.009734      0.005330
     12.41842      1.33254      7.25585        -0.015412      0.024562      0.023759
     13.65745      2.05425      7.25859        -0.032008      0.017421      0.019223
     -1.24314      3.53902      7.27008        -0.039172     -0.001270     -0.002767
      1.24211      2.14591      7.27394         0.003703     -0.017749     -0.011255
      1.24482      3.57377      7.29363         0.013325      0.005068     -0.011564
      3.72859      2.16717      7.28714        -0.002674     -0.038319     -0.000482
      3.73876      3.58598      7.35050        -0.002679     -0.005847      0.010398
      6.21895      2.11392      7.25706        -0.006321      0.008692      0.017059
      6.23198      3.53295      7.29671         0.007700     -0.027889      0.018363
      8.70933      2.06763      7.24936         0.019480     -0.002515     -0.013952
      8.71990      3.48594      7.25483        -0.002932      0.022247      0.008607
     11.18472      2.05126      7.25571        -0.000009      0.001338      0.000412
     11.18788      3.47308      7.25769        -0.016973      0.017340     -0.016990
     12.42232      4.18696      7.26711        -0.005172     -0.003913      0.004764
     -2.48841      5.67247      7.27522        -0.014755      0.025654     -0.007995
     -0.00674      4.26191      7.29306         0.005278     -0.014491     -0.031551
     -0.03597      5.68231      7.31617        -0.022993      0.020945     -0.021572
      2.48591      4.31481      7.32483         0.017415      0.006935      0.008518
      2.43076      5.73374      7.35111        -0.027255      0.027493     -0.003250
      5.00525      4.27621      7.40800         0.002258      0.017161      0.022215
      5.06780      5.67554      7.58108         0.058303     -0.008512      0.042015
      7.48957      4.20412      7.28015        -0.007799      0.004734      0.026589
      7.51633      5.61898      7.29575         0.027551     -0.009740      0.000054
      9.95697      4.19005      7.25584        -0.026511      0.005103     -0.020061
      9.96112      5.61596      7.25695        -0.013853      0.001350     -0.004372
     -3.71521      6.39172      7.26507         0.025698     -0.043638     -0.012743
     -3.72381      7.81401      7.26566         0.009075      0.001222     -0.014596
     -1.26828      6.38813      7.29545         0.002285     -0.014149     -0.006245
     -1.28016      7.81032      7.28220         0.023874      0.012147      0.002206
      1.19145      6.39774      7.34818         0.007019     -0.038373     -0.007597
      1.16385      7.84493      7.38224         0.074421      0.042835      0.008406
      6.30268      6.32229      7.40540        -0.041614     -0.053096      0.020552
      6.29000      7.76134      7.35553        -0.036429     -0.017397      0.010873
      8.74144      6.33279      7.26588        -0.020421     -0.026054     -0.001788
      8.73276      7.75654      7.27771         0.007721      0.033037     -0.007608
     -4.94973      8.53169      7.26748        -0.011990      0.000124     -0.017080
     -4.96597      9.95722      7.26188        -0.012244      0.027227     -0.008328
     -2.49971      8.52854      7.26578        -0.000895     -0.026094      0.004670
     -2.50098      9.95270      7.26159         0.010979      0.037354     -0.001485
     -0.05921      8.53155      7.30484        -0.036595      0.009428     -0.001851
     -0.03959      9.94503      7.29137         0.004958      0.020744      0.010598
      2.35161      8.49706      7.49919        -0.085589      0.043680     -0.027744
      2.42948      9.85795      7.38473        -0.039579     -0.018802      0.007910
      5.04354      8.40796      7.37941         0.014199     -0.021616      0.033302
      4.96665      9.81949      7.33158        -0.010336      0.007837      0.000930
      7.50457      8.47319      7.29834         0.028377      0.022578     -0.015348
      7.46413      9.88959      7.28172         0.006210      0.033368     -0.022421
     -6.20155     10.66805      7.26178         0.016454      0.004032     -0.004823
     -6.20694     12.08905      7.25463         0.018733      0.016458      0.010126
     -3.73350     10.67096      7.25754         0.032612     -0.019734     -0.011356
     -3.73234     12.09292      7.25476         0.031390      0.002904     -0.007803
     -1.26842     10.66136      7.26518        -0.015086     -0.000932      0.000888
     -1.25675     12.07921      7.25526        -0.012200     -0.017027     -0.014371
      1.21420     10.61615      7.30157        -0.021330     -0.007384      0.013255
      1.23364     12.03408      7.26598        -0.006157     -0.000709      0.011832
      3.70709     10.53791      7.34651         0.016329     -0.000094      0.010430
      3.71616     11.96640      7.29325        -0.015079      0.026590      0.004676
      6.20728     10.57003      7.29339         0.009135     -0.009549     -0.018561
      6.20512     11.99660      7.27478         0.005302     -0.018597     -0.006620
      3.72291      7.06993      8.02579         0.014605      0.008888      0.000198
      3.72291      7.06993     14.00579        -0.487930     -1.100187      1.263489
      3.40189      6.34408     14.85113         0.487406      1.099071     -1.270073
 -----------------------------------------------------------------------------------
    total drift:                               -0.007335      0.003258      0.010208


--------------------------------------------------------------------------------------------------------



  FREE ENERGIE OF THE ION-ELECTRON SYSTEM (eV)
  ---------------------------------------------------
  free  energy   TOTEN  =      -670.22992253 eV

  energy  without entropy=     -670.22992253  energy(sigma->0) =     -670.22992253
 


--------------------------------------------------------------------------------------------------------


    POTLOK:  cpu time    0.1474: real time    0.1477


--------------------------------------------------------------------------------------------------------


 stress matrix after NEB project (eV)
     -2.17284     -0.21684      0.41067
     -0.21684     -2.18856      0.90831
      0.41067      0.90831     -4.49583
  FORCES: max atom, RMS     1.748888    0.291142
  FORCE total and by dimension    2.487514    1.270073
  Stress total and by dimension    5.639579    4.495826
     LOOP+:  cpu time  278.8555: real time  280.9163
    4ORBIT:  cpu time    0.0000: real time    0.0000
 


 total charge     
 
# of ion       s       p       d       tot
------------------------------------------
    1        0.862   1.776   0.000   2.638
    2        0.863   1.775   0.000   2.638
    3        0.863   1.780   0.000   2.642
    4        0.863   1.772   0.000   2.635
    5        0.864   1.784   0.000   2.647
    6        0.863   1.778   0.000   2.641
    7        0.864   1.785   0.000   2.649
    8        0.865   1.783   0.000   2.648
    9        0.863   1.781   0.000   2.643
   10        0.864   1.779   0.000   2.643
   11        0.861   1.775   0.000   2.635
   12        0.863   1.775   0.000   2.637
   13        0.863   1.781   0.000   2.644
   14        0.864   1.779   0.000   2.644
   15        0.862   1.776   0.000   2.637
   16        0.862   1.763   0.000   2.626
   17        0.861   1.769   0.000   2.630
   18        0.863   1.752   0.000   2.615
   19        0.864   1.783   0.000   2.647
   20        0.865   1.776   0.000   2.641
   21        0.864   1.787   0.000   2.651
   22        0.867   1.788   0.000   2.655
   23        0.864   1.785   0.000   2.649
   24        0.865   1.785   0.000   2.651
   25        0.864   1.786   0.000   2.651
   26        0.867   1.792   0.000   2.660
   27        0.864   1.780   0.000   2.644
   28        0.868   1.792   0.000   2.661
   29        0.858   1.748   0.000   2.606
   30        0.877   1.691   0.000   2.567
   31        0.863   1.766   0.000   2.628
   32        0.881   1.697   0.000   2.578
   33        0.866   1.793   0.000   2.660
   34        0.873   1.808   0.000   2.681
   35        0.864   1.788   0.000   2.652
   36        0.868   1.795   0.000   2.663
   37        0.867   1.794   0.000   2.661
   38        0.867   1.796   0.000   2.663
   39        0.867   1.799   0.000   2.666
   40        0.868   1.798   0.000   2.665
   41        0.871   1.782   0.000   2.653
   42        0.869   1.765   0.000   2.634
   43        0.878   1.791   0.000   2.669
   44        0.879   1.782   0.000   2.661
   45        0.868   1.798   0.000   2.666
   46        0.868   1.795   0.000   2.663
   47        0.868   1.797   0.000   2.665
   48        0.865   1.783   0.000   2.648
   49        0.868   1.798   0.000   2.665
   50        0.866   1.785   0.000   2.650
   51        0.872   1.819   0.000   2.691
   52        0.869   1.790   0.000   2.659
   53        1.242   2.657   0.000   3.899
   54        0.855   1.740   0.000   2.596
   55        0.877   1.703   0.000   2.580
   56        0.859   1.744   0.000   2.603
   57        0.871   1.804   0.000   2.675
   58        0.866   1.783   0.000   2.649
   59        0.865   1.786   0.000   2.650
   60        0.864   1.780   0.000   2.645
   61        0.865   1.788   0.000   2.653
   62        0.865   1.780   0.000   2.644
   63        0.866   1.797   0.000   2.663
   64        0.865   1.785   0.000   2.651
   65        0.865   1.791   0.000   2.656
   66        0.864   1.784   0.000   2.648
   67        0.856   1.757   0.000   2.612
   68        0.859   1.758   0.000   2.617
   69        0.861   1.764   0.000   2.625
   70        0.863   1.770   0.000   2.633
   71        0.373   6.309   4.223  10.904
   72        1.036   1.403   0.000   2.439
   73        1.637   3.515   0.000   5.152
--------------------------------------------------
tot         64.020 136.571   4.223 204.813
 


 magnetization (x)
 
# of ion       s       p       d       tot
------------------------------------------
    1       -0.000  -0.002   0.000  -0.002
    2        0.000   0.001   0.000   0.001
    3       -0.000  -0.002   0.000  -0.002
    4        0.000   0.001   0.000   0.001
    5       -0.000  -0.003   0.000  -0.003
    6        0.000   0.002   0.000   0.002
    7       -0.000  -0.002   0.000  -0.002
    8        0.000   0.001   0.000   0.001
    9       -0.000  -0.001   0.000  -0.001
   10        0.000   0.001   0.000   0.001
   11       -0.000  -0.004   0.000  -0.004
   12        0.000   0.001   0.000   0.001
   13       -0.000  -0.003   0.000  -0.004
   14        0.000   0.002   0.000   0.002
   15       -0.000  -0.004   0.000  -0.004
   16        0.001   0.005   0.000   0.006
   17       -0.000  -0.005   0.000  -0.005
   18        0.001   0.006   0.000   0.007
   19       -0.000  -0.002   0.000  -0.003
   20        0.001   0.006   0.000   0.007
   21       -0.000  -0.004   0.000  -0.005
   22        0.000   0.003   0.000   0.003
   23       -0.000  -0.006   0.000  -0.006
   24        0.000   0.001   0.000   0.002
   25       -0.000  -0.004   0.000  -0.005
   26        0.000   0.001   0.000   0.001
   27       -0.000  -0.005   0.000  -0.006
   28        0.000   0.004   0.000   0.004
   29       -0.001  -0.008   0.000  -0.009
   30        0.015   0.067   0.000   0.082
   31       -0.002  -0.019   0.000  -0.021
   32        0.011   0.047   0.000   0.059
   33       -0.001  -0.014   0.000  -0.015
   34        0.001   0.005   0.000   0.006
   35       -0.000  -0.007   0.000  -0.008
   36        0.000   0.001   0.000   0.002
   37       -0.000  -0.002   0.000  -0.002
   38        0.000   0.001   0.000   0.001
   39       -0.000  -0.001   0.000  -0.001
   40       -0.000  -0.001   0.000  -0.001
   41       -0.002  -0.009   0.000  -0.012
   42       -0.001  -0.011   0.000  -0.012
   43       -0.003  -0.025   0.000  -0.028
   44       -0.002  -0.006   0.000  -0.008
   45       -0.000  -0.005   0.000  -0.006
   46        0.000   0.001   0.000   0.001
   47       -0.000  -0.002   0.000  -0.002
   48       -0.000  -0.001   0.000  -0.001
   49       -0.000  -0.002   0.000  -0.002
   50       -0.000  -0.003   0.000  -0.003
   51       -0.000   0.000   0.000   0.000
   52       -0.000  -0.005   0.000  -0.005
   53        0.003   0.013   0.000   0.016
   54       -0.001  -0.004   0.000  -0.005
   55        0.015   0.063   0.000   0.078
   56       -0.000  -0.001   0.000  -0.001
   57        0.000   0.002   0.000   0.002
   58       -0.000  -0.003   0.000  -0.003
   59       -0.000  -0.002   0.000  -0.002
   60        0.000   0.000   0.000   0.000
   61       -0.000  -0.001   0.000  -0.001
   62       -0.000  -0.001   0.000  -0.001
   63        0.000  -0.000   0.000  -0.000
   64        0.000   0.000   0.000   0.001
   65       -0.000  -0.001   0.000  -0.001
   66        0.000   0.000   0.000   0.000
   67        0.000  -0.001   0.000  -0.001
   68       -0.000  -0.002   0.000  -0.002
   69        0.001   0.003   0.000   0.004
   70        0.000   0.001   0.000   0.001
   71       -0.046  -0.017  -2.654  -2.717
   72        0.000   0.000   0.000   0.000
   73        0.000  -0.000   0.000  -0.000
--------------------------------------------------
tot         -0.012   0.035  -2.654  -2.631
 
 BZINTS: Fermi energy: -2.176966;303.000000 electrons
         Band energy:***********;  BLOECHL correction:  0.000000

 total amount of memory used by VASP MPI-rank0   116462. kBytes
=======================================================================

   base      :      30000. kBytes
   nonl-proj :      27461. kBytes
   fftplans  :       4700. kBytes
   grid      :      15193. kBytes
   one-center:        217. kBytes
   wavefun   :      38891. kBytes
 
  
  
 General timing and accounting informations for this job:
 ========================================================
  
                  Total CPU time used (sec):      297.681
                            User time (sec):      292.722
                          System time (sec):        4.959
                         Elapsed time (sec):      308.456
  
                   Maximum memory used (kb):      473784.
                   Average memory used (kb):           0.
  
                          Minor page faults:       364424
                          Major page faults:            0
                 Voluntary context switches:         8552
