       N       E                     dE             d eps       ncg     rms          rms(c)
DAV:   1     0.228165869966E+04    0.22817E+04   -0.85166E+04  3920   0.103E+03
DAV:   2     0.227661621446E+03   -0.20540E+04   -0.19543E+04  4952   0.234E+02
DAV:   3    -0.376281345151E+03   -0.60394E+03   -0.59736E+03  4272   0.135E+02
DAV:   4    -0.412191692904E+03   -0.35910E+02   -0.34627E+02  4000   0.434E+01
DAV:   5    -0.414446582916E+03   -0.22549E+01   -0.22150E+01  5192   0.977E+00    0.308E+01
DAV:   6    -0.397994650245E+03    0.16452E+02   -0.71364E+01  4704   0.181E+01    0.171E+01
DAV:   7    -0.397793048962E+03    0.20160E+00   -0.10648E+01  4200   0.112E+01    0.127E+01
DAV:   8    -0.398253600253E+03   -0.46055E+00   -0.22670E+01  4832   0.107E+01    0.100E+01
DAV:   9    -0.398099973143E+03    0.15363E+00   -0.20396E+01  4800   0.820E+00    0.727E+00
DAV:  10    -0.396971809179E+03    0.11282E+01   -0.70687E+00  4992   0.676E+00    0.421E+00
DAV:  11    -0.396559947312E+03    0.41186E+00   -0.15667E+00  4688   0.409E+00    0.217E+00
DAV:  12    -0.396522078289E+03    0.37869E-01   -0.65279E-01  4176   0.223E+00    0.132E+00
DAV:  13    -0.396511195061E+03    0.10883E-01   -0.19158E-01  4152   0.130E+00    0.978E-01
DAV:  14    -0.396501359657E+03    0.98354E-02   -0.44294E-02  4416   0.757E-01    0.617E-01
DAV:  15    -0.396501066928E+03    0.29273E-03   -0.23578E-02  4288   0.545E-01    0.310E-01
DAV:  16    -0.396500560131E+03    0.50680E-03   -0.84374E-03  4224   0.324E-01    0.166E-01
DAV:  17    -0.396500828169E+03   -0.26804E-03   -0.40751E-03  4256   0.141E-01    0.143E-01
DAV:  18    -0.396502166825E+03   -0.13387E-02   -0.28635E-03  3936   0.746E-02    0.184E-01
DAV:  19    -0.396501448807E+03    0.71802E-03   -0.16435E-03  2968   0.563E-02    0.169E-01
DAV:  20    -0.396499812817E+03    0.16360E-02   -0.43980E-03  3656   0.805E-02    0.789E-02
DAV:  21    -0.396500011563E+03   -0.19875E-03   -0.55337E-04  3160   0.528E-02    0.547E-02
DAV:  22    -0.396500148255E+03   -0.13669E-03   -0.34769E-04  2456   0.336E-02    0.327E-02
DAV:  23    -0.396500184308E+03   -0.36053E-04   -0.18633E-04  2112   0.207E-02
   1 F= -.39950556E+03 E0= -.39950556E+03  d E =0.000000E+00  mag=     0.0049
