       N       E                     dE             d eps       ncg     rms          rms(c)
DAV:   1     0.253029460647E+04    0.25303E+04   -0.11224E+05  4368   0.107E+03
DAV:   2    -0.241341492589E+03   -0.27716E+04   -0.26479E+04  5480   0.280E+02
DAV:   3    -0.700043378200E+03   -0.45870E+03   -0.45457E+03  4584   0.120E+02
DAV:   4    -0.716710289595E+03   -0.16667E+02   -0.16532E+02  4672   0.281E+01
DAV:   5    -0.717256581524E+03   -0.54629E+00   -0.54466E+00  5336   0.424E+00    0.479E+01
DAV:   6    -0.711232293580E+03    0.60243E+01   -0.72462E+01  4808   0.300E+01    0.720E+01
DAV:   7    -0.675359493560E+03    0.35873E+02   -0.77686E+01  5352   0.587E+01    0.254E+01
DAV:   8    -0.668821937564E+03    0.65376E+01   -0.31474E+01  4816   0.126E+01    0.228E+01
DAV:   9    -0.664896622874E+03    0.39253E+01   -0.21827E+01  4664   0.142E+01    0.156E+01
DAV:  10    -0.663419995054E+03    0.14766E+01   -0.10176E+01  5248   0.113E+01    0.722E+00
DAV:  11    -0.663255541606E+03    0.16445E+00   -0.10176E+00  4984   0.335E+00    0.584E+00
DAV:  12    -0.663171336518E+03    0.84205E-01   -0.69952E-01  4616   0.245E+00    0.396E+00
DAV:  13    -0.663246098706E+03   -0.74762E-01   -0.22614E-01  4616   0.124E+00    0.232E+00
DAV:  14    -0.663244655924E+03    0.14428E-02   -0.44600E-02  5112   0.943E-01    0.181E+00
DAV:  15    -0.663248979823E+03   -0.43239E-02   -0.25520E-02  4920   0.430E-01    0.141E+00
DAV:  16    -0.663248695434E+03    0.28439E-03   -0.47236E-03  4680   0.186E-01    0.104E+00
DAV:  17    -0.663247831461E+03    0.86397E-03   -0.16946E-03  4880   0.116E-01    0.714E-01
DAV:  18    -0.663247833081E+03   -0.16208E-05   -0.71922E-04  3880   0.691E-02
   1 F= -.66982423E+03 E0= -.66982423E+03  d E =0.000000E+00  mag=     0.9889
