 vasp.5.4.4.18Apr17-6-g9f103f2a35 (build Jan 14 2022 15:04:31) complex          
  
 executed on             LinuxIFC date 2023.01.27  22:53:25
 running on   48 total cores
 distrk:  each k-point on   48 cores,    1 groups
 distr:  one band on NCORES_PER_BAND=  12 cores,    4 groups


--------------------------------------------------------------------------------------------------------


 INCAR:
 POTCAR:    PAW_PBE C 08Apr2002                   
 POTCAR:    PAW_PBE N 08Apr2002                   
 POTCAR:    PAW_PBE C 08Apr2002                   
 POTCAR:    PAW_PBE Cr_pv 02Aug2007               
 POTCAR:    PAW_PBE C 08Apr2002                   
 POTCAR:    PAW_PBE O 08Apr2002                   
 POTCAR:    PAW_PBE C 08Apr2002                   
   SHA256 =  253f7b50bb8d59471dbedb8285d89021f4a42ed1a2c5d38a03a736e69125dd95 C/
   COPYR  = (c) Copyright 08Apr2002 Georg Kresse                                
   COPYR  = This file is part of the software VASP. Any use, copying, and all ot
   COPYR  = If you do not have a valid VASP license, you may not use, copy or di
   VRHFIN =C: s2p2                                                              
   LEXCH  = PE                                                                  
   EATOM  =   147.1560 eV,   10.8157 Ry                                         
                                                                                
   TITEL  = PAW_PBE C 08Apr2002                                                 
   LULTRA =        F    use ultrasoft PP ?                                      
   IUNSCR =        1    unscreen: 0-lin 1-nonlin 2-no                           
   RPACOR =    1.200    partial core radius                                     
   POMASS =   12.011; ZVAL   =    4.000    mass and valenz                      
   RCORE  =    1.500    outmost cutoff radius                                   
   RWIGS  =    1.630; RWIGS  =    0.863    wigner-seitz radius (au A)           
   ENMAX  =  400.000; ENMIN  =  300.000 eV                                      
   ICORE  =        2    local potential                                         
   LCOR   =        T    correct aug charges                                     
   LPAW   =        T    paw PP                                                  
   EAUG   =  644.873                                                            
   DEXC   =    0.000                                                            
   RMAX   =    1.529    core radius for proj-oper                               
   RAUG   =    1.300    factor for augmentation sphere                          
   RDEP   =    1.501    radius for radial grids                                 
   RDEPT  =    1.300    core radius for aug-charge                              
                                                                                
   Atomic configuration                                                         
    4 entries                                                                   
     n  l   j            E        occ.                                          
     1  0  0.50      -273.3789   2.0000                                         
     2  0  0.50       -13.7508   2.0000                                         
     2  1  0.50        -5.2854   2.0000                                         
     3  2  1.50        -5.4423   0.0000                                         
   Description                                                                  
     l       E           TYP  RCUT    TYP  RCUT                                 
     0    -13.7508458     23  1.200                                             
     0     -8.2022199     23  1.200                                             
     1     -5.2854383     23  1.500                                             
     1     34.0145650     23  1.500                                             
     2     -5.4423304      7  1.500                                             
  local pseudopotential read in
  partial core-charges read in
  partial kinetic energy density read in
  atomic valenz-charges read in
  non local Contribution for L=           0  read in
    real space projection operators read in
  non local Contribution for L=           0  read in
    real space projection operators read in
  non local Contribution for L=           1  read in
    real space projection operators read in
  non local Contribution for L=           1  read in
    real space projection operators read in
    PAW grid and wavefunctions read in
 
   number of l-projection  operators is LMAX  =           4
   number of lm-projection operators is LMMAX =           8
 
 POTCAR:    PAW_PBE N 08Apr2002                   
   SHA256 =  e053789ff3a61a86a1b75d8a110fcc91f86041011e7b0817c7c99e4e8a6349d7 N/
   COPYR  = (c) Copyright 08Apr2002 Georg Kresse                                
   COPYR  = This file is part of the software VASP. Any use, copying, and all ot
   COPYR  = If you do not have a valid VASP license, you may not use, copy or di
   VRHFIN =N: s2p3                                                              
   LEXCH  = PE                                                                  
   EATOM  =   264.5486 eV,   19.4438 Ry                                         
                                                                                
   TITEL  = PAW_PBE N 08Apr2002                                                 
   LULTRA =        F    use ultrasoft PP ?                                      
   IUNSCR =        1    unscreen: 0-lin 1-nonlin 2-no                           
   RPACOR =    1.200    partial core radius                                     
   POMASS =   14.001; ZVAL   =    5.000    mass and valenz                      
   RCORE  =    1.500    outmost cutoff radius                                   
   RWIGS  =    1.400; RWIGS  =    0.741    wigner-seitz radius (au A)           
   ENMAX  =  400.000; ENMIN  =  300.000 eV                                      
   ICORE  =        2    local potential                                         
   LCOR   =        T    correct aug charges                                     
   LPAW   =        T    paw PP                                                  
   EAUG   =  627.112                                                            
   DEXC   =    0.000                                                            
   RMAX   =    1.529    core radius for proj-oper                               
   RAUG   =    1.300    factor for augmentation sphere                          
   RDEP   =    1.514    radius for radial grids                                 
   RDEPT  =    1.338    core radius for aug-charge                              
                                                                                
   Atomic configuration                                                         
    4 entries                                                                   
     n  l   j            E        occ.                                          
     1  0  0.50      -384.7179   2.0000                                         
     2  0  0.50       -18.5828   2.0000                                         
     2  1  0.50        -7.0898   3.0000                                         
     3  2  1.50        -6.8029   0.0000                                         
   Description                                                                  
     l       E           TYP  RCUT    TYP  RCUT                                 
     0    -18.5828119     23  1.200                                             
     0    -13.5018863     23  1.200                                             
     1     -7.0897853     23  1.500                                             
     1      9.5240782     23  1.500                                             
     2     -6.8029130      7  1.500                                             
  local pseudopotential read in
  partial core-charges read in
  partial kinetic energy density read in
  atomic valenz-charges read in
  non local Contribution for L=           0  read in
    real space projection operators read in
  non local Contribution for L=           0  read in
    real space projection operators read in
  non local Contribution for L=           1  read in
    real space projection operators read in
  non local Contribution for L=           1  read in
    real space projection operators read in
    PAW grid and wavefunctions read in
 
   number of l-projection  operators is LMAX  =           4
   number of lm-projection operators is LMMAX =           8
 
 POTCAR:    PAW_PBE C 08Apr2002                   
   SHA256 =  253f7b50bb8d59471dbedb8285d89021f4a42ed1a2c5d38a03a736e69125dd95 C/
   COPYR  = (c) Copyright 08Apr2002 Georg Kresse                                
   COPYR  = This file is part of the software VASP. Any use, copying, and all ot
   COPYR  = If you do not have a valid VASP license, you may not use, copy or di
   VRHFIN =C: s2p2                                                              
   LEXCH  = PE                                                                  
   EATOM  =   147.1560 eV,   10.8157 Ry                                         
                                                                                
   TITEL  = PAW_PBE C 08Apr2002                                                 
   LULTRA =        F    use ultrasoft PP ?                                      
   IUNSCR =        1    unscreen: 0-lin 1-nonlin 2-no                           
   RPACOR =    1.200    partial core radius                                     
   POMASS =   12.011; ZVAL   =    4.000    mass and valenz                      
   RCORE  =    1.500    outmost cutoff radius                                   
   RWIGS  =    1.630; RWIGS  =    0.863    wigner-seitz radius (au A)           
   ENMAX  =  400.000; ENMIN  =  300.000 eV                                      
   ICORE  =        2    local potential                                         
   LCOR   =        T    correct aug charges                                     
   LPAW   =        T    paw PP                                                  
   EAUG   =  644.873                                                            
   DEXC   =    0.000                                                            
   RMAX   =    1.529    core radius for proj-oper                               
   RAUG   =    1.300    factor for augmentation sphere                          
   RDEP   =    1.501    radius for radial grids                                 
   RDEPT  =    1.300    core radius for aug-charge                              
                                                                                
   Atomic configuration                                                         
    4 entries                                                                   
     n  l   j            E        occ.                                          
     1  0  0.50      -273.3789   2.0000                                         
     2  0  0.50       -13.7508   2.0000                                         
     2  1  0.50        -5.2854   2.0000                                         
     3  2  1.50        -5.4423   0.0000                                         
   Description                                                                  
     l       E           TYP  RCUT    TYP  RCUT                                 
     0    -13.7508458     23  1.200                                             
     0     -8.2022199     23  1.200                                             
     1     -5.2854383     23  1.500                                             
     1     34.0145650     23  1.500                                             
     2     -5.4423304      7  1.500                                             
  local pseudopotential read in
  partial core-charges read in
  partial kinetic energy density read in
  atomic valenz-charges read in
  non local Contribution for L=           0  read in
    real space projection operators read in
  non local Contribution for L=           0  read in
    real space projection operators read in
  non local Contribution for L=           1  read in
    real space projection operators read in
  non local Contribution for L=           1  read in
    real space projection operators read in
    PAW grid and wavefunctions read in
 
   number of l-projection  operators is LMAX  =           4
   number of lm-projection operators is LMMAX =           8
 
 POTCAR:    PAW_PBE Cr_pv 02Aug2007               
   SHA256 =  c9a7df34d3cdbacf1090e328ef39c0b420964e11c23f63548d1ac9dd218cdba0 Cr
   COPYR  = (c) Copyright 02Aug2007 Georg Kresse                                
   COPYR  = This file is part of the software VASP. Any use, copying, and all ot
   COPYR  = If you do not have a valid VASP license, you may not use, copy or di
   VRHFIN =Cr : p6d5s1                                                          
   LEXCH  = PE                                                                  
   EATOM  =  1647.9177 eV,  121.1185 Ry                                         
                                                                                
   TITEL  = PAW_PBE Cr_pv 02Aug2007                                             
   LULTRA =        F    use ultrasoft PP ?                                      
   IUNSCR =        1    unscreen: 0-lin 1-nonlin 2-no                           
   RPACOR =    2.080    partial core radius                                     
   POMASS =   51.996; ZVAL   =   12.000    mass and valenz                      
   RCORE  =    2.300    outmost cutoff radius                                   
   RWIGS  =    2.500; RWIGS  =    1.323    wigner-seitz radius (au A)           
   ENMAX  =  265.681; ENMIN  =  199.261 eV                                      
   ICORE  =        3    local potential                                         
   LCOR   =        T    correct aug charges                                     
   LPAW   =        T    paw PP                                                  
   EAUG   =  519.424                                                            
   DEXC   =    0.000                                                            
   RMAX   =    2.356    core radius for proj-oper                               
   RAUG   =    1.300    factor for augmentation sphere                          
   RDEP   =    2.447    radius for radial grids                                 
   RDEPT  =    1.882    core radius for aug-charge                              
                                                                                
   Atomic configuration                                                         
    8 entries                                                                   
     n  l   j            E        occ.                                          
     1  0  0.50     -5880.4963   2.0000                                         
     2  0  0.50      -667.0865   2.0000                                         
     2  1  1.50      -560.6250   6.0000                                         
     3  0  0.50       -73.9860   2.0000                                         
     3  1  1.50       -45.4378   6.0000                                         
     3  2  2.50        -2.9137   5.0000                                         
     4  0  0.50        -4.0071   1.0000                                         
     4  3  2.50        -1.3606   0.0000                                         
   Description                                                                  
     l       E           TYP  RCUT    TYP  RCUT                                 
     1    -45.4377911     23  2.000                                             
     1      1.3605826     23  2.000                                             
     2     -2.9136672     23  2.300                                             
     2     -4.2742498     23  2.300                                             
     0     -4.0071320     23  2.300                                             
     0      9.4498803     23  2.300                                             
     3      2.7211652     23  2.300                                             
  local pseudopotential read in
  partial core-charges read in
  partial kinetic energy density read in
  atomic valenz-charges read in
  non local Contribution for L=           1  read in
    real space projection operators read in
  non local Contribution for L=           1  read in
    real space projection operators read in
  non local Contribution for L=           2  read in
    real space projection operators read in
  non local Contribution for L=           2  read in
    real space projection operators read in
  non local Contribution for L=           0  read in
    real space projection operators read in
  non local Contribution for L=           0  read in
    real space projection operators read in
    PAW grid and wavefunctions read in
 
   number of l-projection  operators is LMAX  =           6
   number of lm-projection operators is LMMAX =          18
 
 POTCAR:    PAW_PBE C 08Apr2002                   
   SHA256 =  253f7b50bb8d59471dbedb8285d89021f4a42ed1a2c5d38a03a736e69125dd95 C/
   COPYR  = (c) Copyright 08Apr2002 Georg Kresse                                
   COPYR  = This file is part of the software VASP. Any use, copying, and all ot
   COPYR  = If you do not have a valid VASP license, you may not use, copy or di
   VRHFIN =C: s2p2                                                              
   LEXCH  = PE                                                                  
   EATOM  =   147.1560 eV,   10.8157 Ry                                         
                                                                                
   TITEL  = PAW_PBE C 08Apr2002                                                 
   LULTRA =        F    use ultrasoft PP ?                                      
   IUNSCR =        1    unscreen: 0-lin 1-nonlin 2-no                           
   RPACOR =    1.200    partial core radius                                     
   POMASS =   12.011; ZVAL   =    4.000    mass and valenz                      
   RCORE  =    1.500    outmost cutoff radius                                   
   RWIGS  =    1.630; RWIGS  =    0.863    wigner-seitz radius (au A)           
   ENMAX  =  400.000; ENMIN  =  300.000 eV                                      
   ICORE  =        2    local potential                                         
   LCOR   =        T    correct aug charges                                     
   LPAW   =        T    paw PP                                                  
   EAUG   =  644.873                                                            
   DEXC   =    0.000                                                            
   RMAX   =    1.529    core radius for proj-oper                               
   RAUG   =    1.300    factor for augmentation sphere                          
   RDEP   =    1.501    radius for radial grids                                 
   RDEPT  =    1.300    core radius for aug-charge                              
                                                                                
   Atomic configuration                                                         
    4 entries                                                                   
     n  l   j            E        occ.                                          
     1  0  0.50      -273.3789   2.0000                                         
     2  0  0.50       -13.7508   2.0000                                         
     2  1  0.50        -5.2854   2.0000                                         
     3  2  1.50        -5.4423   0.0000                                         
   Description                                                                  
     l       E           TYP  RCUT    TYP  RCUT                                 
     0    -13.7508458     23  1.200                                             
     0     -8.2022199     23  1.200                                             
     1     -5.2854383     23  1.500                                             
     1     34.0145650     23  1.500                                             
     2     -5.4423304      7  1.500                                             
  local pseudopotential read in
  partial core-charges read in
  partial kinetic energy density read in
  atomic valenz-charges read in
  non local Contribution for L=           0  read in
    real space projection operators read in
  non local Contribution for L=           0  read in
    real space projection operators read in
  non local Contribution for L=           1  read in
    real space projection operators read in
  non local Contribution for L=           1  read in
    real space projection operators read in
    PAW grid and wavefunctions read in
 
   number of l-projection  operators is LMAX  =           4
   number of lm-projection operators is LMMAX =           8
 
 POTCAR:    PAW_PBE O 08Apr2002                   
   SHA256 =  818f92134a0a090dccd8ba1447fa70422a3b330e708bb4f08108d8ae51209ddf O/
   COPYR  = (c) Copyright 08Apr2002 Georg Kresse                                
   COPYR  = This file is part of the software VASP. Any use, copying, and all ot
   COPYR  = If you do not have a valid VASP license, you may not use, copy or di
   VRHFIN =O: s2p4                                                              
   LEXCH  = PE                                                                  
   EATOM  =   432.3788 eV,   31.7789 Ry                                         
                                                                                
   TITEL  = PAW_PBE O 08Apr2002                                                 
   LULTRA =        F    use ultrasoft PP ?                                      
   IUNSCR =        1    unscreen: 0-lin 1-nonlin 2-no                           
   RPACOR =    1.200    partial core radius                                     
   POMASS =   16.000; ZVAL   =    6.000    mass and valenz                      
   RCORE  =    1.520    outmost cutoff radius                                   
   RWIGS  =    1.550; RWIGS  =    0.820    wigner-seitz radius (au A)           
   ENMAX  =  400.000; ENMIN  =  300.000 eV                                      
   ICORE  =        2    local potential                                         
   LCOR   =        T    correct aug charges                                     
   LPAW   =        T    paw PP                                                  
   EAUG   =  605.392                                                            
   DEXC   =    0.000                                                            
   RMAX   =    1.553    core radius for proj-oper                               
   RAUG   =    1.300    factor for augmentation sphere                          
   RDEP   =    1.550    radius for radial grids                                 
   RDEPT  =    1.329    core radius for aug-charge                              
                                                                                
   Atomic configuration                                                         
    4 entries                                                                   
     n  l   j            E        occ.                                          
     1  0  0.50      -514.6923   2.0000                                         
     2  0  0.50       -23.9615   2.0000                                         
     2  1  0.50        -9.0305   4.0000                                         
     3  2  1.50        -9.5241   0.0000                                         
   Description                                                                  
     l       E           TYP  RCUT    TYP  RCUT                                 
     0    -23.9615318     23  1.200                                             
     0     -9.5240782     23  1.200                                             
     1     -9.0304911     23  1.520                                             
     1      8.1634956     23  1.520                                             
     2     -9.5240782      7  1.500                                             
  local pseudopotential read in
  partial core-charges read in
  partial kinetic energy density read in
  kinetic energy density of atom read in
  atomic valenz-charges read in
  non local Contribution for L=           0  read in
    real space projection operators read in
  non local Contribution for L=           0  read in
    real space projection operators read in
  non local Contribution for L=           1  read in
    real space projection operators read in
  non local Contribution for L=           1  read in
    real space projection operators read in
    PAW grid and wavefunctions read in
 
   number of l-projection  operators is LMAX  =           4
   number of lm-projection operators is LMMAX =           8
 

 ----------------------------------------------------------------------------- 
|                                                                             |
|  ADVICE TO THIS USER RUNNING 'VASP/VAMP'   (HEAR YOUR MASTER'S VOICE ...):  |
|                                                                             |
|      You have a (more or less) 'large supercell' and for larger cells       |
|      it might be more efficient to use real space projection opertators     |
|      So try LREAL= Auto  in the INCAR   file.                               |
|      Mind:          For very  accurate calculation you might also keep the  |
|      reciprocal projection scheme          (i.e. LREAL=.FALSE.)             |
|                                                                             |
 ----------------------------------------------------------------------------- 

  PAW_PBE C 08Apr2002                   :
 energy of atom  1       EATOM= -147.1560
 kinetic energy error for atom=    0.0132 (will be added to EATOM!!)
  PAW_PBE N 08Apr2002                   :
 energy of atom  2       EATOM= -264.5486
 kinetic energy error for atom=    0.0298 (will be added to EATOM!!)
  PAW_PBE C 08Apr2002                   :
 energy of atom  3       EATOM= -147.1560
 kinetic energy error for atom=    0.0132 (will be added to EATOM!!)
  PAW_PBE Cr_pv 02Aug2007               :
 energy of atom  4       EATOM=-1647.9177
 kinetic energy error for atom=    0.0134 (will be added to EATOM!!)
  PAW_PBE C 08Apr2002                   :
 energy of atom  5       EATOM= -147.1560
 kinetic energy error for atom=    0.0132 (will be added to EATOM!!)
  PAW_PBE O 08Apr2002                   :
 energy of atom  6       EATOM= -432.3788
 kinetic energy error for atom=    0.0458 (will be added to EATOM!!)
 
 
 POSCAR: POSCAR-clean                            
  positions in direct lattice
  velocities in cartesian coordinates
 exchange correlation table for  LEXCH =        8
   RHO(1)=    0.500       N(1)  =     2000
   RHO(2)=  100.500       N(2)  =     4000

 VTST: version 3.2, (02/03/18)

 CHAIN: initializing optimizer
 
 OPT: Using VASP Dynamics algorithm
 CHAIN: Read ICHAIN            0
 
 POSCAR: POSCAR-clean                            
  positions in direct lattice
  velocities in cartesian coordinates
 


--------------------------------------------------------------------------------------------------------


 ion  position               nearest neighbor table
   1  0.999  1.000  0.492-  60 1.43   2 1.43  70 1.43
   2  0.055  0.112  0.492-   1 1.43  13 1.43  15 1.43
   3  0.167  0.002  0.492-   4 1.42  62 1.42  60 1.43
   4  0.223  0.114  0.492-   3 1.42  15 1.43  17 1.43
   5  0.334  0.002  0.492-   6 1.42  62 1.43  64 1.43
   6  0.390  0.114  0.494-   5 1.42  19 1.43  17 1.43
   7  0.500  0.001  0.489-  64 1.43   8 1.43  66 1.43
   8  0.556  0.113  0.492-  21 1.43   7 1.43  19 1.43
   9  0.666  0.999  0.488-  10 1.42  66 1.43  68 1.44
  10  0.721  0.111  0.490-   9 1.42  23 1.43  21 1.43
  11  0.832  0.999  0.491-  12 1.42  70 1.43  68 1.43
  12  0.888  0.110  0.491-  11 1.42  13 1.43  23 1.43
  13  0.999  0.167  0.492-  14 1.42   2 1.43  12 1.43
  14  0.055  0.278  0.493-  27 1.42  13 1.42  25 1.43
  15  0.166  0.168  0.492-  16 1.42   4 1.43   2 1.43
  16  0.222  0.279  0.491-  15 1.42  27 1.43  29 1.44
  17  0.335  0.170  0.495-  18 1.43   6 1.43   4 1.43
  18  0.391  0.282  0.497-  17 1.43  29 1.43  31 1.44
  19  0.501  0.170  0.495-   6 1.43  20 1.43   8 1.43
  20  0.556  0.281  0.500-  33 1.43  19 1.43  31 1.45
  21  0.667  0.167  0.493-  22 1.42   8 1.43  10 1.43
  22  0.723  0.279  0.496-  33 1.42  21 1.42  35 1.43
  23  0.833  0.166  0.491-  24 1.42  10 1.43  12 1.43
  24  0.888  0.277  0.494-  23 1.42  35 1.42  25 1.42
  25  0.999  0.334  0.494-  26 1.42  24 1.42  14 1.43
  26  0.054  0.445  0.494-  37 1.41  39 1.42  25 1.42
  27  0.165  0.334  0.492-  28 1.42  14 1.42  16 1.43
  28  0.219  0.445  0.493-  27 1.42  41 1.42  39 1.43
  29  0.334  0.336  0.492-  30 1.41  18 1.43  16 1.44
  30  0.387  0.447  0.491-  29 1.41  41 1.42  71 1.92
  31  0.502  0.340  0.504-  32 1.43  18 1.44  20 1.45
  32  0.560  0.452  0.514-  43 1.43  31 1.43  71 2.04
  33  0.668  0.334  0.500-  34 1.42  22 1.42  20 1.43
  34  0.725  0.445  0.503-  43 1.41  33 1.42  45 1.43
  35  0.834  0.334  0.496-  36 1.42  24 1.42  22 1.43
  36  0.890  0.445  0.497-  37 1.41  45 1.42  35 1.42
  37  1.000  0.501  0.495-  36 1.41  26 1.41  38 1.41
  38  0.055  0.611  0.493-  37 1.41  47 1.42  49 1.42
  39  0.164  0.501  0.494-  26 1.42  40 1.42  28 1.43
  40  0.221  0.612  0.492-  51 1.42  49 1.42  39 1.42
  41  0.330  0.500  0.489-  28 1.42  30 1.42  42 1.44  71 2.54
  42  0.387  0.613  0.486-  53 1.42  51 1.42  41 1.44  71 2.54
  43  0.671  0.501  0.509-  34 1.41  44 1.42  32 1.43
  44  0.726  0.612  0.508-  57 1.41  43 1.42  55 1.42
  45  0.836  0.501  0.500-  46 1.42  36 1.42  34 1.43
  46  0.890  0.612  0.499-  45 1.42  57 1.42  47 1.42
  47  0.001  0.667  0.494-  38 1.42  46 1.42  48 1.43
  48  0.056  0.779  0.493-  61 1.42  47 1.43  59 1.43
  49  0.165  0.667  0.491-  40 1.42  38 1.42  50 1.43
  50  0.221  0.779  0.490-  61 1.42  49 1.43  63 1.43
  51  0.331  0.668  0.489-  40 1.42  42 1.42  52 1.42
  52  0.388  0.779  0.487-  51 1.42  63 1.42  65 1.43
  53  0.497  0.666  0.483-  54 1.41  42 1.42  71 1.95
  54  0.554  0.776  0.485-  53 1.41  67 1.43  65 1.44
  55  0.665  0.661  0.512-  44 1.42  56 1.43  71 2.03
  56  0.719  0.773  0.500-  55 1.43  67 1.44  69 1.45
  57  0.835  0.667  0.501-  44 1.41  46 1.42  58 1.42
  58  0.890  0.779  0.497-  57 1.42  59 1.42  69 1.43
  59  0.000  0.834  0.494-  60 1.42  58 1.42  48 1.43
  60  0.056  0.946  0.492-  59 1.42   1 1.43   3 1.43
  61  0.167  0.835  0.491-  50 1.42  48 1.42  62 1.43
  62  0.223  0.947  0.492-   3 1.42   5 1.43  61 1.43
  63  0.333  0.835  0.489-  64 1.42  52 1.42  50 1.43
  64  0.389  0.946  0.490-  63 1.42   7 1.43   5 1.43
  65  0.499  0.834  0.485-  66 1.42  52 1.43  54 1.44
  66  0.555  0.945  0.487-  65 1.42   9 1.43   7 1.43
  67  0.665  0.831  0.492-  68 1.42  54 1.43  56 1.44
  68  0.721  0.942  0.490-  67 1.42  11 1.43   9 1.44
  69  0.831  0.831  0.497-  58 1.43  70 1.43  56 1.45
  70  0.888  0.943  0.493-  11 1.43  69 1.43   1 1.43
  71  0.513  0.557  0.541-  72 1.91  30 1.92  53 1.95  55 2.03  32 2.04  41 2.54  42 2.54
  72  0.519  0.510  0.658-  73 1.17  71 1.91
  73  0.524  0.483  0.731-  72 1.17
 

IMPORTANT INFORMATION: All symmetrisations will be switched off!
NOSYMM: (Re-)initialisation of all symmetry stuff for point group C_1.

 
 
 KPOINTS: K-Points                                

Automatic generation of k-mesh.
Space group operators:
 irot       det(A)        alpha          n_x          n_y          n_z        tau_x        tau_y        tau_z
    1     1.000000     0.000000     1.000000     0.000000     0.000000     0.000000     0.000000     0.000000
 
 Subroutine IBZKPT returns following result:
 ===========================================
 
 Found      5 irreducible k-points:
 
 Following reciprocal coordinates:
            Coordinates               Weight
  0.000000  0.000000  0.000000      1.000000
  0.333333 -0.000000  0.000000      2.000000
 -0.000000  0.333333  0.000000      2.000000
  0.333333  0.333333  0.000000      2.000000
 -0.333333  0.333333  0.000000      2.000000
 
 Following cartesian coordinates:
            Coordinates               Weight
  0.000000  0.000000  0.000000      1.000000
  0.022431  0.013065  0.000000      2.000000
 -0.000000  0.026131  0.000000      2.000000
  0.022431  0.039196  0.000000      2.000000
 -0.022431  0.013065  0.000000      2.000000
 
 TETIRR: Found     24 inequivalent tetrahedra from       54


--------------------------------------------------------------------------------------------------------




 Dimension of arrays:
   k-points           NKPTS =      5   k-points in BZ     NKDIM =      5   number of bands    NBANDS=    192
   number of dos      NEDOS =   4000   number of ions     NIONS =     73
   non local maximal  LDIM  =      6   non local SUM 2l+1 LMDIM =     18
   total plane-waves  NPLWV = 512000
   max r-space proj   IRMAX =      1   max aug-charges    IRDMAX=   6464
   dimension x,y,z NGX =    80 NGY =   80 NGZ =   80
   dimension x,y,z NGXF=   160 NGYF=  160 NGZF=  160
   support grid    NGXF=   160 NGYF=  160 NGZF=  160
   ions per type =              36   1  33   1   1   1
   NGX,Y,Z   is equivalent  to a cutoff of   8.95,  9.01,  8.87 a.u.
   NGXF,Y,Z  is equivalent  to a cutoff of  17.90, 18.02, 17.73 a.u.

 SYSTEM =  unknown system                          
 POSCAR =  POSCAR-clean                            

 Startparameter for this run:
   NWRITE =      2    write-flag & timer
   PREC   = normal    normal or accurate (medium, high low for compatibility)
   ISTART =      0    job   : 0-new  1-cont  2-samecut
   ICHARG =      2    charge: 1-file 2-atom 10-const
   ISPIN  =      2    spin polarized calculation?
   LNONCOLLINEAR =      F non collinear calculations
   LSORBIT =      F    spin-orbit coupling
   INIWAV =      1    electr: 0-lowe 1-rand  2-diag
   LASPH  =      F    aspherical Exc in radial PAW
   METAGGA=      F    non-selfconsistent MetaGGA calc.

 Electronic Relaxation 1
   ENCUT  =  440.0 eV  32.34 Ry    5.69 a.u.  25.42 25.25 25.66*2*pi/ulx,y,z
   ENINI  =  440.0     initial cutoff
   ENAUG  =  644.9 eV  augmentation charge cutoff
   NELM   =    100;   NELMIN=  2; NELMDL= -5     # of ELM steps 
   EDIFF  = 0.1E-03   stopping-criterion for ELM
   LREAL  =      F    real-space projection
   NLSPLINE    = F    spline interpolate recip. space projectors
   LCOMPAT=      F    compatible to vasp.4.4
   GGA_COMPAT  = T    GGA compatible to vasp.4.4-vasp.4.6
   LMAXPAW     = -100 max onsite density
   LMAXMIX     =    2 max onsite mixed and CHGCAR
   VOSKOWN=      0    Vosko Wilk Nusair interpolation
   ROPT   =    0.00000   0.00000   0.00000   0.00000
   ROPT   =    0.00000   0.00000
 Ionic relaxation
   EDIFFG = -.1E-01   stopping-criterion for IOM
   NSW    =      0    number of steps for IOM
   NBLOCK =      1;   KBLOCK =      1    inner block; outer block 
   IBRION =     -1    ionic relax: 0-MD 1-quasi-New 2-CG
   NFREE  =      0    steps in history (QN), initial steepest desc. (CG)
   ISIF   =      2    stress and relaxation
   IWAVPR =     10    prediction:  0-non 1-charg 2-wave 3-comb
   ISYM   =      0    0-nonsym 1-usesym 2-fastsym
   LCORR  =      T    Harris-Foulkes like correction to forces

   POTIM  = 0.5000    time-step for ionic-motion
   TEIN   =    0.0    initial temperature
   TEBEG  =    0.0;   TEEND  =   0.0 temperature during run
   SMASS  =  -3.00    Nose mass-parameter (am)
   estimated Nose-frequenzy (Omega)   =  0.10E-29 period in steps =****** mass=  -0.505E-26a.u.
   SCALEE = 1.0000    scale energy and forces
   NPACO  =    256;   APACO  = 16.0  distance and # of slots for P.C.
   PSTRESS=    0.0 pullay stress

  Mass of Ions in am
   POMASS =  12.01 14.00 12.01 52.00 12.01 16.00
  Ionic Valenz
   ZVAL   =   4.00  5.00  4.00 12.00  4.00  6.00
  Atomic Wigner-Seitz radii
   RWIGS  =  -1.00 -1.00 -1.00 -1.00 -1.00 -1.00
  virtual crystal weights 
   VCA    =   1.00  1.00  1.00  1.00  1.00  1.00
   NELECT =     303.0000    total number of electrons
   NUPDOWN=      -1.0000    fix difference up-down

 DOS related values:
   EMIN   = -14.00;   EMAX   =  6.00  energy-range for DOS
   EFERMI =   0.00
   ISMEAR =    -5;   SIGMA  =   0.20  broadening in eV -4-tet -1-fermi 0-gaus

 Electronic relaxation 2 (details)
   IALGO  =     38    algorithm
   LDIAG  =      T    sub-space diagonalisation (order eigenvalues)
   LSUBROT=      F    optimize rotation matrix (better conditioning)
   TURBO    =      0    0=normal 1=particle mesh
   IRESTART =      0    0=no restart 2=restart with 2 vectors
   NREBOOT  =      0    no. of reboots
   NMIN     =      0    reboot dimension
   EREF     =   0.00    reference energy to select bands
   IMIX   =      4    mixing-type and parameters
     AMIX     =   0.25;   BMIX     =  0.00
     AMIX_MAG =   1.00;   BMIX_MAG =  0.00
     AMIN     =   0.10
     WC   =   100.;   INIMIX=   1;  MIXPRE=   1;  MAXMIX= -45

 Intra band minimization:
   WEIMIN = 0.0000     energy-eigenvalue tresh-hold
   EBREAK =  0.13E-06  absolut break condition
   DEPER  =   0.30     relativ break condition  

   TIME   =   0.40     timestep for ELM

  volume/ion in A,a.u.               =      38.95       262.86
  Fermi-wavevector in a.u.,A,eV,Ry     =   0.776137  1.466686  8.195990  0.602388
  Thomas-Fermi vector in A             =   1.878551
 
 Write flags
   LWAVE        =      F    write WAVECAR
   LDOWNSAMPLE  =      F    k-point downsampling of WAVECAR
   LCHARG       =      F    write CHGCAR
   LVTOT        =      F    write LOCPOT, total local potential
   LVHAR        =      F    write LOCPOT, Hartree potential only
   LELF         =      F    write electronic localiz. function (ELF)
   LORBIT       =     11    0 simple, 1 ext, 2 COOP (PROOUT), +10 PAW based schemes


 Dipole corrections
   LMONO  =      F    monopole corrections only (constant potential shift)
   LDIPOL =      F    correct potential (dipole corrections)
   IDIPOL =      0    1-x, 2-y, 3-z, 4-all directions 
   EPSILON=  1.0000000 bulk dielectric constant

 Exchange correlation treatment:
   GGA     =    --    GGA type
   LEXCH   =     8    internal setting for exchange type
   VOSKOWN=      0    Vosko Wilk Nusair interpolation
   LHFCALC =     F    Hartree Fock is set to
   LHFONE  =     F    Hartree Fock one center treatment
   AEXX    =    0.0000 exact exchange contribution

 Linear response parameters
   LEPSILON=     F    determine dielectric tensor
   LRPA    =     F    only Hartree local field effects (RPA)
   LNABLA  =     F    use nabla operator in PAW spheres
   LVEL    =     F    velocity operator in full k-point grid
   LINTERFAST=   F  fast interpolation
   KINTER  =     0    interpolate to denser k-point grid
   CSHIFT  =0.1000    complex shift for real part using Kramers Kronig
   OMEGAMAX=  -1.0    maximum frequency
   DEG_THRESHOLD= 0.2000000E-02 threshold for treating states as degnerate
   RTIME   =   -0.100 relaxation time in fs
  (WPLASMAI=    0.000 imaginary part of plasma frequency in eV, 0.658/RTIME)
   DFIELD  = 0.0000000 0.0000000 0.0000000 field for delta impulse in time
 
 Orbital magnetization related:
   ORBITALMAG=     F  switch on orbital magnetization
   LCHIMAG   =     F  perturbation theory with respect to B field
   DQ        =  0.001000  dq finite difference perturbation B field
   LLRAUG    =     F  two centre corrections for induced B field



--------------------------------------------------------------------------------------------------------


 Static calculation
 charge density and potential will be updated during run
 spin polarized calculation
 Variant of blocked Davidson
 Davidson routine will perform the subspace rotation
 perform sub-space diagonalisation
    after iterative eigenvector-optimisation
 modified Broyden-mixing scheme, WC =      100.0
 initial mixing is a Kerker type mixing with AMIX =  0.2500 and BMIX =      0.0001
 Hartree-type preconditioning will be used
 using additional bands           40
 reciprocal scheme for non local part
 use partial core corrections
 calculate Harris-corrections to forces 
   (improved forces if not selfconsistent)
 use gradient corrections 
 use of overlap-Matrix (Vanderbilt PP)
 Fermi weights with tetrahedron method with Bloechl corrections


--------------------------------------------------------------------------------------------------------


  energy-cutoff  :      440.00
  volume of cell :     2843.49
      direct lattice vectors                 reciprocal lattice vectors
    14.860536817  0.000011824  0.000000000     0.067292289  0.039196149  0.000000000
    -7.430268409 12.756349395  0.000000000    -0.000000062  0.078392297  0.000000000
     0.000000000  0.000000000 15.000000000     0.000000000  0.000000000  0.066666667

  length of vectors
    14.860536817 14.762565445 15.000000000     0.077875479  0.078392297  0.066666667


 
 k-points in units of 2pi/SCALE and weight: K-Points                                
   0.00000000  0.00000000  0.00000000       0.111
   0.02243076  0.01306538  0.00000000       0.222
  -0.00000002  0.02613077  0.00000000       0.222
   0.02243074  0.03919615  0.00000000       0.222
  -0.02243078  0.01306538  0.00000000       0.222
 
 k-points in reciprocal lattice and weights: K-Points                                
   0.00000000  0.00000000  0.00000000       0.111
   0.33333333 -0.00000000  0.00000000       0.222
  -0.00000000  0.33333333  0.00000000       0.222
   0.33333333  0.33333333  0.00000000       0.222
  -0.33333333  0.33333333  0.00000000       0.222
 
 position of ions in fractional coordinates (direct lattice) 
   0.99910896  0.99991725  0.49187630
   0.05499223  0.11171080  0.49157562
   0.16726070  0.00207728  0.49206840
   0.22315141  0.11361676  0.49249193
   0.33370850  0.00242707  0.49198789
   0.38957116  0.11401697  0.49439837
   0.49979300  0.00134214  0.48922085
   0.55574259  0.11311117  0.49217946
   0.66591155  0.99948709  0.48809247
   0.72149796  0.11078080  0.49035133
   0.83225877  0.99903971  0.49122109
   0.88789927  0.11046577  0.49105210
   0.99902967  0.16681063  0.49164311
   0.05471629  0.27847496  0.49262889
   0.16649719  0.16804284  0.49181812
   0.22213646  0.27941199  0.49095361
   0.33468847  0.17031534  0.49473237
   0.39073090  0.28200315  0.49740431
   0.50069779  0.16971927  0.49526841
   0.55647492  0.28146410  0.49995026
   0.66674184  0.16732241  0.49269248
   0.72261500  0.27887650  0.49642536
   0.83262178  0.16634571  0.49147199
   0.88813152  0.27744685  0.49350330
   0.99887796  0.33412476  0.49355829
   0.05411720  0.44537379  0.49389262
   0.16538042  0.33384569  0.49218849
   0.21947712  0.44490856  0.49282132
   0.33402379  0.33642843  0.49178151
   0.38696781  0.44667970  0.49080701
   0.50228908  0.33984971  0.50417292
   0.55982042  0.45163757  0.51441388
   0.66751014  0.33423002  0.50044892
   0.72456532  0.44525937  0.50332164
   0.83422077  0.33418891  0.49578038
   0.89033271  0.44536425  0.49677248
   0.99978283  0.50057149  0.49453909
   0.05503021  0.61109350  0.49306191
   0.16442775  0.50097796  0.49352899
   0.22105259  0.61225524  0.49194421
   0.32988497  0.50023861  0.48857811
   0.38657648  0.61280398  0.48599661
   0.67053453  0.50083642  0.50922496
   0.72558935  0.61198965  0.50773175
   0.83578305  0.50106076  0.49981884
   0.89024450  0.61202915  0.49858234
   0.00057892  0.66691327  0.49440973
   0.05618238  0.77876749  0.49279642
   0.16544760  0.66702942  0.49106900
   0.22145660  0.77896999  0.48984759
   0.33120574  0.66794164  0.48936163
   0.38806051  0.77924412  0.48694624
   0.49675930  0.66582405  0.48259944
   0.55375958  0.77611743  0.48502609
   0.66470819  0.66133723  0.51168162
   0.71867313  0.77282458  0.49988597
   0.83540942  0.66749810  0.50079187
   0.88961089  0.77863424  0.49730653
   0.00041674  0.83430013  0.49386130
   0.05587826  0.94569016  0.49222911
   0.16678534  0.83490657  0.49097655
   0.22273441  0.94663874  0.49176345
   0.33272837  0.83482300  0.48858313
   0.38875268  0.94627904  0.48967920
   0.49905971  0.83359514  0.48498128
   0.55484493  0.94507601  0.48697284
   0.66518485  0.83109249  0.49166793
   0.72078564  0.94247284  0.48984790
   0.83149103  0.83142830  0.49652545
   0.88760009  0.94333380  0.49261240
   0.51342266  0.55721512  0.54131325
   0.51934589  0.50960834  0.65848990
   0.52396696  0.48342531  0.73079992
 
 position of ions in cartesian coordinates  (Angst):
   7.41764192 12.75530562  7.37814449
  -0.01282715  1.42502268  7.37363434
   2.47014897  0.02650054  7.38102598
   2.47194673  1.44933773  7.38737889
   4.94105363  0.03096451  7.37981837
   4.94205982  1.45444491  7.41597562
   7.41721985  0.01712667  7.33831270
   7.41818695  1.44289212  7.38269188
   2.46934567 12.74981444  7.32138700
   9.89871591  1.41316709  7.35526998
   4.94467897 12.74410942  7.36831637
  12.37386949  1.40915048  7.36578151
  13.60666944  2.12790652  7.37464658
  -1.25603024  3.55232448  7.38943336
   1.22563415  2.14361519  7.37727173
   1.22496091  3.56427959  7.36430412
   3.70816158  2.17260597  7.42098562
   3.71111179  3.59733531  7.46106471
   6.17957815  2.16500426  7.42902616
   6.17816220  3.59046093  7.49925383
   8.66489131  2.13443100  7.39038721
   8.66631961  3.55745466  7.44638040
  11.13721337  2.12197378  7.37207985
  11.13660660  3.53921946  7.40254953
  12.36122613  4.26222395  7.40337428
  -2.50503611  5.68134430  7.40838923
  -0.02292133  4.25865425  7.38282732
  -0.04424215  5.67541166  7.39231985
   2.46401927  4.29160261  7.37672266
   2.43159941  5.69800686  7.36210511
   4.93911083  4.33524754  7.56259383
   4.96344360  5.76125321  7.71620825
   7.43614032  4.26356280  7.50673380
   7.45903300  5.67989262  7.54982462
   9.91385519  4.26304036  7.43670569
   9.92164602  5.68123256  7.45158713
  11.13792904  6.38547668  7.41808641
  -3.72281026  7.79532285  7.39592863
  -1.27891603  6.39065186  7.40293481
  -1.26426069  7.81014439  7.37916318
   1.18536061  6.38122245  7.32867158
   1.19143600  7.81714627  7.28994911
   6.24315398  6.38885231  7.63837446
   6.23539981  7.80676242  7.61597632
   8.69716888  6.39171596  7.49728256
   8.68197026  7.80726820  7.47873515
  -4.94674159  8.50737865  7.41614593
  -4.95155117  9.93423085  7.39194628
  -2.49756754  8.50886229  7.36603506
  -2.49699213  9.93681603  7.34771380
  -0.04109055  8.52050089  7.34042442
  -0.02320551  9.94031479  7.30419359
   2.43485848  8.49349009  7.23899160
   2.46240387  9.90043166  7.27539137
   4.96400736  8.43625663  7.67522425
   4.93757438  9.85842891  7.49828957
   7.45494239  8.51484882  7.51187811
   7.43463403  9.93254097  7.45959798
  -6.19288096 10.64262401  7.40791948
  -6.19635079 12.06355476  7.38343659
  -3.72506031 10.65036190  7.36464824
  -3.72382701 12.07565715  7.37645174
  -1.25843671 10.64929781  7.32874695
  -1.25403377 12.07107067  7.34518796
   1.22245961 10.63363677  7.27471922
   1.22312508 12.05572633  7.30459253
   3.70976374 10.60171406  7.37501901
   3.70843543 12.02252133  7.34771844
   6.17866768 10.60599970  7.44788174
   6.18099056 12.03350602  7.38918603
   3.48947843  7.10803689  8.11969868
   3.93123200  6.50074814  9.87734844
   4.19445051  6.16674840 10.96199878
 


--------------------------------------------------------------------------------------------------------


 k-point  1 :   0.0000 0.0000 0.0000  plane waves:   59589
 k-point  2 :   0.3333-0.0000 0.0000  plane waves:   59570
 k-point  3 :  -0.0000 0.3333 0.0000  plane waves:   59618
 k-point  4 :   0.3333 0.3333 0.0000  plane waves:   59652
 k-point  5 :  -0.3333 0.3333 0.0000  plane waves:   59570

 maximum and minimum number of plane-waves per node :      4995     4930

 maximum number of plane-waves:     59652
 maximum index in each direction: 
   IXMAX=   25   IYMAX=   25   IZMAX=   25
   IXMIN=  -25   IYMIN=  -25   IZMIN=  -25


 parallel 3D FFT for wavefunctions:
    minimum data exchange during FFTs selected (reduces bandwidth)
 parallel 3D FFT for charge:
    minimum data exchange during FFTs selected (reduces bandwidth)


 total amount of memory used by VASP MPI-rank0   115989. kBytes
=======================================================================

   base      :      30000. kBytes
   nonl-proj :      27264. kBytes
   fftplans  :       4700. kBytes
   grid      :      15193. kBytes
   one-center:        217. kBytes
   wavefun   :      38615. kBytes
 
     INWAV:  cpu time    0.0000: real time    0.0000
 Broyden mixing: mesh for mixing (old mesh)
   NGX = 51   NGY = 51   NGZ = 51
  (NGX  =160   NGY  =160   NGZ  =160)
  gives a total of 132651 points

 initial charge density was supplied:
 charge density of overlapping atoms calculated
 number of electron     303.0000000 magnetization       2.0000000
 keeping initial charge density in first step


--------------------------------------------------------------------------------------------------------


 Maximum index for augmentation-charges          181 (set IRDMAX)


--------------------------------------------------------------------------------------------------------


 First call to EWALD:  gamma=   0.125
 Maximum number of real-space cells 3x 3x 3
 Maximum number of reciprocal cells 3x 3x 3

    FEWALD:  cpu time    0.0037: real time    0.0040


--------------------------------------- Iteration      1(   1)  ---------------------------------------


    POTLOK:  cpu time    0.2019: real time    0.2635
    SETDIJ:  cpu time    0.0082: real time    0.0089
     EDDAV:  cpu time   11.3485: real time   11.4597
 BZINTS: Fermi energy:  8.046678;303.000000 electrons
         Band energy:***********;  BLOECHL correction: -0.015171
       DOS:  cpu time    0.1098: real time    0.1100
    --------------------------------------------
      LOOP:  cpu time   11.6685: real time   11.8422

 eigenvalue-minimisations  :  4368
 total energy-change (2. order) : 0.2530295E+04  (-0.1122370E+05)
 number of electron     303.0000000 magnetization       2.0000000
 augmentation part      303.0000000 magnetization       2.0000000

 Free energy of the ion-electron system (eV)
  ---------------------------------------------------
  alpha Z        PSCENC =       167.23241197
  Ewald energy   TEWEN  =     30916.61284327
  -Hartree energ DENC   =    -40588.25594074
  -exchange      EXHF   =         0.00000000
  -V(xc)+E(xc)   XCENC  =      1023.21557969
  PAW double counting   =      9455.23336183    -9546.47664214
  entropy T*S    EENTRO =         0.00000000
  eigenvalues    EBANDS =     -1542.02016088
  atomic energy  EATOM  =     12644.75315347
  Solvation  Ediel_sol  =         0.00000000
  ---------------------------------------------------
  free energy    TOTEN  =      2530.29460647 eV

  energy without entropy =     2530.29460647  energy(sigma->0) =     2530.29460647


--------------------------------------------------------------------------------------------------------




--------------------------------------- Iteration      1(   2)  ---------------------------------------


     EDDAV:  cpu time   14.9400: real time   15.3297
 BZINTS: Fermi energy: -1.947937;303.000000 electrons
         Band energy:***********;  BLOECHL correction: -0.002758
       DOS:  cpu time    0.0107: real time    0.0107
    --------------------------------------------
      LOOP:  cpu time   14.9506: real time   15.3403

 eigenvalue-minimisations  :  5480
 total energy-change (2. order) :-0.2771636E+04  (-0.2647905E+04)
 number of electron     303.0000000 magnetization       2.0000000
 augmentation part      303.0000000 magnetization       2.0000000

 Free energy of the ion-electron system (eV)
  ---------------------------------------------------
  alpha Z        PSCENC =       167.23241197
  Ewald energy   TEWEN  =     30916.61284327
  -Hartree energ DENC   =    -40588.25594074
  -exchange      EXHF   =         0.00000000
  -V(xc)+E(xc)   XCENC  =      1023.21557969
  PAW double counting   =      9455.23336183    -9546.47664214
  entropy T*S    EENTRO =         0.00000000
  eigenvalues    EBANDS =     -4313.65625994
  atomic energy  EATOM  =     12644.75315347
  Solvation  Ediel_sol  =         0.00000000
  ---------------------------------------------------
  free energy    TOTEN  =      -241.34149259 eV

  energy without entropy =     -241.34149259  energy(sigma->0) =     -241.34149259


--------------------------------------------------------------------------------------------------------




--------------------------------------- Iteration      1(   3)  ---------------------------------------


     EDDAV:  cpu time   12.7534: real time   12.9732
 BZINTS: Fermi energy: -4.530476;303.000000 electrons
         Band energy:***********;  BLOECHL correction: -0.041050
       DOS:  cpu time    0.0116: real time    0.0117
    --------------------------------------------
      LOOP:  cpu time   12.7650: real time   12.9848

 eigenvalue-minimisations  :  4584
 total energy-change (2. order) :-0.4587019E+03  (-0.4545696E+03)
 number of electron     303.0000000 magnetization       2.0000000
 augmentation part      303.0000000 magnetization       2.0000000

 Free energy of the ion-electron system (eV)
  ---------------------------------------------------
  alpha Z        PSCENC =       167.23241197
  Ewald energy   TEWEN  =     30916.61284327
  -Hartree energ DENC   =    -40588.25594074
  -exchange      EXHF   =         0.00000000
  -V(xc)+E(xc)   XCENC  =      1023.21557969
  PAW double counting   =      9455.23336183    -9546.47664214
  entropy T*S    EENTRO =         0.00000000
  eigenvalues    EBANDS =     -4772.35814556
  atomic energy  EATOM  =     12644.75315347
  Solvation  Ediel_sol  =         0.00000000
  ---------------------------------------------------
  free energy    TOTEN  =      -700.04337820 eV

  energy without entropy =     -700.04337820  energy(sigma->0) =     -700.04337820


--------------------------------------------------------------------------------------------------------




--------------------------------------- Iteration      1(   4)  ---------------------------------------


     EDDAV:  cpu time   13.0441: real time   13.2431
 BZINTS: Fermi energy: -4.715701;303.000000 electrons
         Band energy:***********;  BLOECHL correction: -0.031368
       DOS:  cpu time    0.0117: real time    0.0118
    --------------------------------------------
      LOOP:  cpu time   13.0558: real time   13.2549

 eigenvalue-minimisations  :  4672
 total energy-change (2. order) :-0.1666691E+02  (-0.1653199E+02)
 number of electron     303.0000000 magnetization       2.0000000
 augmentation part      303.0000000 magnetization       2.0000000

 Free energy of the ion-electron system (eV)
  ---------------------------------------------------
  alpha Z        PSCENC =       167.23241197
  Ewald energy   TEWEN  =     30916.61284327
  -Hartree energ DENC   =    -40588.25594074
  -exchange      EXHF   =         0.00000000
  -V(xc)+E(xc)   XCENC  =      1023.21557969
  PAW double counting   =      9455.23336183    -9546.47664214
  entropy T*S    EENTRO =         0.00000000
  eigenvalues    EBANDS =     -4789.02505695
  atomic energy  EATOM  =     12644.75315347
  Solvation  Ediel_sol  =         0.00000000
  ---------------------------------------------------
  free energy    TOTEN  =      -716.71028960 eV

  energy without entropy =     -716.71028960  energy(sigma->0) =     -716.71028960


--------------------------------------------------------------------------------------------------------




--------------------------------------- Iteration      1(   5)  ---------------------------------------


     EDDAV:  cpu time   14.1310: real time   14.3034
 BZINTS: Fermi energy: -4.725949;303.000000 electrons
         Band energy:***********;  BLOECHL correction: -0.031241
       DOS:  cpu time    0.0115: real time    0.0115
    CHARGE:  cpu time    0.1660: real time    0.1698
    MIXING:  cpu time    0.0047: real time    0.0052
    --------------------------------------------
      LOOP:  cpu time   14.3132: real time   14.4899

 eigenvalue-minimisations  :  5336
 total energy-change (2. order) :-0.5462919E+00  (-0.5446580E+00)
 number of electron     302.9999992 magnetization       0.1139168
 augmentation part       12.4686264 magnetization       0.0926188

 Broyden mixing:
  rms(total) = 0.47906E+01    rms(broyden)= 0.47901E+01
  rms(prec ) = 0.54764E+01
  weight for this iteration     100.00

 Free energy of the ion-electron system (eV)
  ---------------------------------------------------
  alpha Z        PSCENC =       167.23241197
  Ewald energy   TEWEN  =     30916.61284327
  -Hartree energ DENC   =    -40588.25594074
  -exchange      EXHF   =         0.00000000
  -V(xc)+E(xc)   XCENC  =      1023.21557969
  PAW double counting   =      9455.23336183    -9546.47664214
  entropy T*S    EENTRO =         0.00000000
  eigenvalues    EBANDS =     -4789.57134888
  atomic energy  EATOM  =     12644.75315347
  Solvation  Ediel_sol  =         0.00000000
  ---------------------------------------------------
  free energy    TOTEN  =      -717.25658152 eV

  energy without entropy =     -717.25658152  energy(sigma->0) =     -717.25658152


--------------------------------------------------------------------------------------------------------




--------------------------------------- Iteration      1(   6)  ---------------------------------------


    POTLOK:  cpu time    0.1477: real time    0.1504
    SETDIJ:  cpu time    0.0086: real time    0.0087
     EDDAV:  cpu time   12.5046: real time   12.6633
 BZINTS: Fermi energy: -5.549047;303.000000 electrons
         Band energy:***********;  BLOECHL correction: -0.014729
       DOS:  cpu time    0.0117: real time    0.0117
    CHARGE:  cpu time    0.1674: real time    0.1743
    MIXING:  cpu time    0.0035: real time    0.0067
    --------------------------------------------
      LOOP:  cpu time   12.8436: real time   13.0151

 eigenvalue-minimisations  :  4808
 total energy-change (2. order) : 0.6024288E+01  (-0.7246169E+01)
 number of electron     303.0000014 magnetization       0.0914708
 augmentation part       17.8405571 magnetization       0.0786137

 Broyden mixing:
  rms(total) = 0.72012E+01    rms(broyden)= 0.72009E+01
  rms(prec ) = 0.82304E+01
  weight for this iteration     100.00

 eigenvalues of (default mixing * dielectric matrix)
  average eigenvalue GAMMA=   0.2808
  0.2808

 Free energy of the ion-electron system (eV)
  ---------------------------------------------------
  alpha Z        PSCENC =       167.23241197
  Ewald energy   TEWEN  =     30916.61284327
  -Hartree energ DENC   =    -40947.94522645
  -exchange      EXHF   =         0.00000000
  -V(xc)+E(xc)   XCENC  =      1035.80797911
  PAW double counting   =     13268.98831568   -13360.56820902
  entropy T*S    EENTRO =         0.00000000
  eigenvalues    EBANDS =     -4436.11356161
  atomic energy  EATOM  =     12644.75315347
  Solvation  Ediel_sol  =         0.00000000
  ---------------------------------------------------
  free energy    TOTEN  =      -711.23229358 eV

  energy without entropy =     -711.23229358  energy(sigma->0) =     -711.23229358


--------------------------------------------------------------------------------------------------------




--------------------------------------- Iteration      1(   7)  ---------------------------------------


    POTLOK:  cpu time    0.1354: real time    0.1431
    SETDIJ:  cpu time    0.0349: real time    0.0350
     EDDAV:  cpu time   13.6845: real time   13.8451
 BZINTS: Fermi energy: -4.062413;303.000000 electrons
         Band energy:***********;  BLOECHL correction: -0.018595
       DOS:  cpu time    0.0121: real time    0.0121
    CHARGE:  cpu time    0.1655: real time    0.1692
    MIXING:  cpu time    0.0035: real time    0.0045
    --------------------------------------------
      LOOP:  cpu time   14.0359: real time   14.2090

 eigenvalue-minimisations  :  5352
 total energy-change (2. order) : 0.3587280E+02  (-0.7768571E+01)
 number of electron     302.9999996 magnetization       0.3555193
 augmentation part       13.9978310 magnetization       0.1634830

 Broyden mixing:
  rms(total) = 0.25351E+01    rms(broyden)= 0.25346E+01
  rms(prec ) = 0.27710E+01
  weight for this iteration     100.00

 eigenvalues of (default mixing * dielectric matrix)
  average eigenvalue GAMMA=   0.7570
  1.2308  0.2833

 Free energy of the ion-electron system (eV)
  ---------------------------------------------------
  alpha Z        PSCENC =       167.23241197
  Ewald energy   TEWEN  =     30916.61284327
  -Hartree energ DENC   =    -41100.32063300
  -exchange      EXHF   =         0.00000000
  -V(xc)+E(xc)   XCENC  =      1040.15651452
  PAW double counting   =     14451.22879903   -14547.13671647
  entropy T*S    EENTRO =         0.00000000
  eigenvalues    EBANDS =     -4247.88586635
  atomic energy  EATOM  =     12644.75315347
  Solvation  Ediel_sol  =         0.00000000
  ---------------------------------------------------
  free energy    TOTEN  =      -675.35949356 eV

  energy without entropy =     -675.35949356  energy(sigma->0) =     -675.35949356


--------------------------------------------------------------------------------------------------------




--------------------------------------- Iteration      1(   8)  ---------------------------------------


    POTLOK:  cpu time    0.1357: real time    0.1378
    SETDIJ:  cpu time    0.0102: real time    0.0107
     EDDAV:  cpu time   12.5082: real time   12.6105
 BZINTS: Fermi energy: -2.453901;303.000000 electrons
         Band energy:***********;  BLOECHL correction: -0.036359
       DOS:  cpu time    0.0116: real time    0.0116
    CHARGE:  cpu time    0.2097: real time    0.2120
    MIXING:  cpu time    0.0036: real time    0.0036
    --------------------------------------------
      LOOP:  cpu time   12.8791: real time   12.9863

 eigenvalue-minimisations  :  4816
 total energy-change (2. order) : 0.6537556E+01  (-0.3147379E+01)
 number of electron     302.9999995 magnetization       0.3354619
 augmentation part       12.4613568 magnetization       0.1224757

 Broyden mixing:
  rms(total) = 0.22832E+01    rms(broyden)= 0.22829E+01
  rms(prec ) = 0.26518E+01
  weight for this iteration     100.00

 eigenvalues of (default mixing * dielectric matrix)
  average eigenvalue GAMMA=   1.2103
  2.7646  0.3192  0.5470

 Free energy of the ion-electron system (eV)
  ---------------------------------------------------
  alpha Z        PSCENC =       167.23241197
  Ewald energy   TEWEN  =     30916.61284327
  -Hartree energ DENC   =    -41420.24746747
  -exchange      EXHF   =         0.00000000
  -V(xc)+E(xc)   XCENC  =      1051.43494823
  PAW double counting   =     18863.18209348   -18962.54080288
  entropy T*S    EENTRO =         0.00000000
  eigenvalues    EBANDS =     -3929.24911764
  atomic energy  EATOM  =     12644.75315347
  Solvation  Ediel_sol  =         0.00000000
  ---------------------------------------------------
  free energy    TOTEN  =      -668.82193756 eV

  energy without entropy =     -668.82193756  energy(sigma->0) =     -668.82193756


--------------------------------------------------------------------------------------------------------




--------------------------------------- Iteration      1(   9)  ---------------------------------------


    POTLOK:  cpu time    0.1621: real time    0.1653
    SETDIJ:  cpu time    0.0102: real time    0.0102
     EDDAV:  cpu time   12.1718: real time   12.3386
 BZINTS: Fermi energy: -2.728674;303.000000 electrons
         Band energy:***********;  BLOECHL correction: -0.055745
       DOS:  cpu time    0.0104: real time    0.0107
    CHARGE:  cpu time    0.1953: real time    0.1966
    MIXING:  cpu time    0.0039: real time    0.0046
    --------------------------------------------
      LOOP:  cpu time   12.5537: real time   12.7259

 eigenvalue-minimisations  :  4664
 total energy-change (2. order) : 0.3925315E+01  (-0.2182676E+01)
 number of electron     302.9999999 magnetization       0.1613775
 augmentation part       14.4390515 magnetization       0.0330788

 Broyden mixing:
  rms(total) = 0.15572E+01    rms(broyden)= 0.15564E+01
  rms(prec ) = 0.19251E+01
  weight for this iteration     100.00

 eigenvalues of (default mixing * dielectric matrix)
  average eigenvalue GAMMA=   1.2282
  3.1903  1.0142  0.3541  0.3541

 Free energy of the ion-electron system (eV)
  ---------------------------------------------------
  alpha Z        PSCENC =       167.23241197
  Ewald energy   TEWEN  =     30916.61284327
  -Hartree energ DENC   =    -41802.32085182
  -exchange      EXHF   =         0.00000000
  -V(xc)+E(xc)   XCENC  =      1065.53564604
  PAW double counting   =     26443.68320748   -26546.20538314
  entropy T*S    EENTRO =         0.00000000
  eigenvalues    EBANDS =     -3554.18765016
  atomic energy  EATOM  =     12644.75315347
  Solvation  Ediel_sol  =         0.00000000
  ---------------------------------------------------
  free energy    TOTEN  =      -664.89662287 eV

  energy without entropy =     -664.89662287  energy(sigma->0) =     -664.89662287


--------------------------------------------------------------------------------------------------------




--------------------------------------- Iteration      1(  10)  ---------------------------------------


    POTLOK:  cpu time    0.1468: real time    0.1493
    SETDIJ:  cpu time    0.0080: real time    0.0081
     EDDAV:  cpu time   13.6855: real time   13.8319
 BZINTS: Fermi energy: -1.974387;303.000000 electrons
         Band energy:***********;  BLOECHL correction: -0.007343
       DOS:  cpu time    0.0116: real time    0.0117
    CHARGE:  cpu time    0.1630: real time    0.1637
    MIXING:  cpu time    0.0037: real time    0.0037
    --------------------------------------------
      LOOP:  cpu time   14.0186: real time   14.1684

 eigenvalue-minimisations  :  5248
 total energy-change (2. order) : 0.1476628E+01  (-0.1017600E+01)
 number of electron     302.9999997 magnetization       0.0381153
 augmentation part       13.0602103 magnetization      -0.0286802

 Broyden mixing:
  rms(total) = 0.72176E+00    rms(broyden)= 0.72112E+00
  rms(prec ) = 0.78761E+00
  weight for this iteration     100.00

 eigenvalues of (default mixing * dielectric matrix)
  average eigenvalue GAMMA=   1.2698
  3.5195  1.3595  0.7770  0.3466  0.3466

 Free energy of the ion-electron system (eV)
  ---------------------------------------------------
  alpha Z        PSCENC =       167.23241197
  Ewald energy   TEWEN  =     30916.61284327
  -Hartree energ DENC   =    -41825.15965260
  -exchange      EXHF   =         0.00000000
  -V(xc)+E(xc)   XCENC  =      1066.32795690
  PAW double counting   =     28365.63830778   -28468.47610339
  entropy T*S    EENTRO =         0.00000000
  eigenvalues    EBANDS =     -3530.34891247
  atomic energy  EATOM  =     12644.75315347
  Solvation  Ediel_sol  =         0.00000000
  ---------------------------------------------------
  free energy    TOTEN  =      -663.41999505 eV

  energy without entropy =     -663.41999505  energy(sigma->0) =     -663.41999505


--------------------------------------------------------------------------------------------------------




--------------------------------------- Iteration      1(  11)  ---------------------------------------


    POTLOK:  cpu time    0.1390: real time    0.1413
    SETDIJ:  cpu time    0.0082: real time    0.0083
     EDDAV:  cpu time   12.8932: real time   13.0172
 BZINTS: Fermi energy: -1.926404;303.000000 electrons
         Band energy:***********;  BLOECHL correction: -0.006432
       DOS:  cpu time    0.0111: real time    0.0111
    CHARGE:  cpu time    0.1878: real time    0.1887
    MIXING:  cpu time    0.0035: real time    0.0036
    --------------------------------------------
      LOOP:  cpu time   13.2428: real time   13.3702

 eigenvalue-minimisations  :  4984
 total energy-change (2. order) : 0.1644534E+00  (-0.1017642E+00)
 number of electron     302.9999999 magnetization       0.5062584
 augmentation part       13.1027481 magnetization       0.1427188

 Broyden mixing:
  rms(total) = 0.58386E+00    rms(broyden)= 0.58367E+00
  rms(prec ) = 0.65630E+00
  weight for this iteration     100.00

 eigenvalues of (default mixing * dielectric matrix)
  average eigenvalue GAMMA=   1.2093
  3.5667  1.7840  0.5961  0.5961  0.3564  0.3564

 Free energy of the ion-electron system (eV)
  ---------------------------------------------------
  alpha Z        PSCENC =       167.23241197
  Ewald energy   TEWEN  =     30916.61284327
  -Hartree energ DENC   =    -41797.54476397
  -exchange      EXHF   =         0.00000000
  -V(xc)+E(xc)   XCENC  =      1065.91909989
  PAW double counting   =     29992.84023265   -30095.21511305
  entropy T*S    EENTRO =         0.00000000
  eigenvalues    EBANDS =     -3557.85340584
  atomic energy  EATOM  =     12644.75315347
  Solvation  Ediel_sol  =         0.00000000
  ---------------------------------------------------
  free energy    TOTEN  =      -663.25554161 eV

  energy without entropy =     -663.25554161  energy(sigma->0) =     -663.25554161


--------------------------------------------------------------------------------------------------------




--------------------------------------- Iteration      1(  12)  ---------------------------------------


    POTLOK:  cpu time    0.1385: real time    0.1408
    SETDIJ:  cpu time    0.0107: real time    0.0111
     EDDAV:  cpu time   12.2127: real time   12.2906
 BZINTS: Fermi energy: -2.142067;303.000000 electrons
         Band energy:***********;  BLOECHL correction: -0.000928
       DOS:  cpu time    0.0128: real time    0.0129
    CHARGE:  cpu time    0.1635: real time    0.1647
    MIXING:  cpu time    0.0041: real time    0.0041
    --------------------------------------------
      LOOP:  cpu time   12.5424: real time   12.6242

 eigenvalue-minimisations  :  4616
 total energy-change (2. order) : 0.8420509E-01  (-0.6995211E-01)
 number of electron     302.9999999 magnetization       0.9845505
 augmentation part       13.3597226 magnetization       0.4019583

 Broyden mixing:
  rms(total) = 0.39609E+00    rms(broyden)= 0.39581E+00
  rms(prec ) = 0.40127E+00
  weight for this iteration     100.00

 eigenvalues of (default mixing * dielectric matrix)
  average eigenvalue GAMMA=   1.2812
  3.6756  1.9347  0.9753  0.9753  0.7026  0.3523  0.3523

 Free energy of the ion-electron system (eV)
  ---------------------------------------------------
  alpha Z        PSCENC =       167.23241197
  Ewald energy   TEWEN  =     30916.61284327
  -Hartree energ DENC   =    -41745.98060276
  -exchange      EXHF   =         0.00000000
  -V(xc)+E(xc)   XCENC  =      1064.34319303
  PAW double counting   =     31144.56529909   -31246.29036453
  entropy T*S    EENTRO =         0.00000000
  eigenvalues    EBANDS =     -3608.40727007
  atomic energy  EATOM  =     12644.75315347
  Solvation  Ediel_sol  =         0.00000000
  ---------------------------------------------------
  free energy    TOTEN  =      -663.17133652 eV

  energy without entropy =     -663.17133652  energy(sigma->0) =     -663.17133652


--------------------------------------------------------------------------------------------------------




--------------------------------------- Iteration      1(  13)  ---------------------------------------


    POTLOK:  cpu time    0.1356: real time    0.1379
    SETDIJ:  cpu time    0.0085: real time    0.0086
     EDDAV:  cpu time   12.3786: real time   12.5090
 BZINTS: Fermi energy: -2.182045;303.000000 electrons
         Band energy:***********;  BLOECHL correction:  0.000000
       DOS:  cpu time    0.0076: real time    0.0075
    CHARGE:  cpu time    0.1969: real time    0.1984
    MIXING:  cpu time    0.0043: real time    0.0043
    --------------------------------------------
      LOOP:  cpu time   12.7314: real time   12.8656

 eigenvalue-minimisations  :  4616
 total energy-change (2. order) :-0.7476219E-01  (-0.2261367E-01)
 number of electron     302.9999998 magnetization       0.9557886
 augmentation part       13.3057090 magnetization       0.4719204

 Broyden mixing:
  rms(total) = 0.23166E+00    rms(broyden)= 0.23157E+00
  rms(prec ) = 0.24530E+00
  weight for this iteration     100.00

 eigenvalues of (default mixing * dielectric matrix)
  average eigenvalue GAMMA=   1.3034
  3.7440  2.3528  1.0904  1.0904  0.3534  0.3534  0.7214  0.7214

 Free energy of the ion-electron system (eV)
  ---------------------------------------------------
  alpha Z        PSCENC =       167.23241197
  Ewald energy   TEWEN  =     30916.61284327
  -Hartree energ DENC   =    -41733.18356181
  -exchange      EXHF   =         0.00000000
  -V(xc)+E(xc)   XCENC  =      1063.94743692
  PAW double counting   =     31628.20261630   -31729.67822842
  entropy T*S    EENTRO =         0.00000000
  eigenvalues    EBANDS =     -3621.13277041
  atomic energy  EATOM  =     12644.75315347
  Solvation  Ediel_sol  =         0.00000000
  ---------------------------------------------------
  free energy    TOTEN  =      -663.24609871 eV

  energy without entropy =     -663.24609871  energy(sigma->0) =     -663.24609871


--------------------------------------------------------------------------------------------------------




--------------------------------------- Iteration      1(  14)  ---------------------------------------


    POTLOK:  cpu time    0.1355: real time    0.1380
    SETDIJ:  cpu time    0.0082: real time    0.0086
     EDDAV:  cpu time   13.0795: real time   13.1675
 BZINTS: Fermi energy: -2.192048;303.000000 electrons
         Band energy:***********;  BLOECHL correction:  0.000000
       DOS:  cpu time    0.0086: real time    0.0087
    CHARGE:  cpu time    0.2044: real time    0.2058
    MIXING:  cpu time    0.0046: real time    0.0046
    --------------------------------------------
      LOOP:  cpu time   13.4407: real time   13.5332

 eigenvalue-minimisations  :  5112
 total energy-change (2. order) : 0.1442783E-02  (-0.4460036E-02)
 number of electron     302.9999998 magnetization       0.9772520
 augmentation part       13.3898217 magnetization       0.5503931

 Broyden mixing:
  rms(total) = 0.18124E+00    rms(broyden)= 0.18121E+00
  rms(prec ) = 0.18413E+00
  weight for this iteration     100.00

 eigenvalues of (default mixing * dielectric matrix)
  average eigenvalue GAMMA=   1.3062
  3.7653  2.3899  1.3324  1.3324  0.3535  0.3535  0.7539  0.7539  0.7213

 Free energy of the ion-electron system (eV)
  ---------------------------------------------------
  alpha Z        PSCENC =       167.23241197
  Ewald energy   TEWEN  =     30916.61284327
  -Hartree energ DENC   =    -41731.66916605
  -exchange      EXHF   =         0.00000000
  -V(xc)+E(xc)   XCENC  =      1063.93833736
  PAW double counting   =     31808.47122847   -31909.83417192
  entropy T*S    EENTRO =         0.00000000
  eigenvalues    EBANDS =     -3622.74929250
  atomic energy  EATOM  =     12644.75315347
  Solvation  Ediel_sol  =         0.00000000
  ---------------------------------------------------
  free energy    TOTEN  =      -663.24465592 eV

  energy without entropy =     -663.24465592  energy(sigma->0) =     -663.24465592


--------------------------------------------------------------------------------------------------------




--------------------------------------- Iteration      1(  15)  ---------------------------------------


    POTLOK:  cpu time    0.1439: real time    0.1460
    SETDIJ:  cpu time    0.0099: real time    0.0100
     EDDAV:  cpu time   12.8344: real time   12.9596
 BZINTS: Fermi energy: -2.197049;303.000000 electrons
         Band energy:***********;  BLOECHL correction:  0.000000
       DOS:  cpu time    0.0082: real time    0.0082
    CHARGE:  cpu time    0.1619: real time    0.1623
    MIXING:  cpu time    0.0044: real time    0.0044
    --------------------------------------------
      LOOP:  cpu time   13.1628: real time   13.2904

 eigenvalue-minimisations  :  4920
 total energy-change (2. order) :-0.4323899E-02  (-0.2551964E-02)
 number of electron     302.9999998 magnetization       0.9947840
 augmentation part       13.4013854 magnetization       0.5980763

 Broyden mixing:
  rms(total) = 0.14116E+00    rms(broyden)= 0.14115E+00
  rms(prec ) = 0.14684E+00
  weight for this iteration     100.00

 eigenvalues of (default mixing * dielectric matrix)
  average eigenvalue GAMMA=   1.3524
  3.6238  2.4663  2.4663  0.3534  0.3534  0.9866  0.9866  0.7625  0.7625  0.7626

 Free energy of the ion-electron system (eV)
  ---------------------------------------------------
  alpha Z        PSCENC =       167.23241197
  Ewald energy   TEWEN  =     30916.61284327
  -Hartree energ DENC   =    -41730.95780056
  -exchange      EXHF   =         0.00000000
  -V(xc)+E(xc)   XCENC  =      1063.91822524
  PAW double counting   =     31846.37787413   -31947.67496400
  entropy T*S    EENTRO =         0.00000000
  eigenvalues    EBANDS =     -3623.51072335
  atomic energy  EATOM  =     12644.75315347
  Solvation  Ediel_sol  =         0.00000000
  ---------------------------------------------------
  free energy    TOTEN  =      -663.24897982 eV

  energy without entropy =     -663.24897982  energy(sigma->0) =     -663.24897982


--------------------------------------------------------------------------------------------------------




--------------------------------------- Iteration      1(  16)  ---------------------------------------


    POTLOK:  cpu time    0.1661: real time    0.1736
    SETDIJ:  cpu time    0.0103: real time    0.0104
     EDDAV:  cpu time   12.4466: real time   12.5215
 BZINTS: Fermi energy: -2.192048;303.000000 electrons
         Band energy:***********;  BLOECHL correction:  0.000000
       DOS:  cpu time    0.0085: real time    0.0085
    CHARGE:  cpu time    0.1937: real time    0.1974
    MIXING:  cpu time    0.0046: real time    0.0053
    --------------------------------------------
      LOOP:  cpu time   12.8297: real time   12.9168

 eigenvalue-minimisations  :  4680
 total energy-change (2. order) : 0.2843889E-03  (-0.4723620E-03)
 number of electron     302.9999998 magnetization       1.0071707
 augmentation part       13.3920236 magnetization       0.6250907

 Broyden mixing:
  rms(total) = 0.10419E+00    rms(broyden)= 0.10418E+00
  rms(prec ) = 0.10889E+00
  weight for this iteration     100.00

 eigenvalues of (default mixing * dielectric matrix)
  average eigenvalue GAMMA=   1.3617
  3.6245  2.7309  2.4797  1.1324  1.1324  0.3534  0.3534  0.8463  0.8463  0.7395
  0.7395

 Free energy of the ion-electron system (eV)
  ---------------------------------------------------
  alpha Z        PSCENC =       167.23241197
  Ewald energy   TEWEN  =     30916.61284327
  -Hartree energ DENC   =    -41731.89979897
  -exchange      EXHF   =         0.00000000
  -V(xc)+E(xc)   XCENC  =      1063.94301088
  PAW double counting   =     31824.59887937   -31925.85238014
  entropy T*S    EENTRO =         0.00000000
  eigenvalues    EBANDS =     -3622.63681529
  atomic energy  EATOM  =     12644.75315347
  Solvation  Ediel_sol  =         0.00000000
  ---------------------------------------------------
  free energy    TOTEN  =      -663.24869543 eV

[...]
   0.869E+01 -.777E+01 0.677E+01   -.786E+01 0.822E+01 -.658E+01   -.842E+00 -.440E+00 -.210E+00   -.142E-01 -.231E-01 -.164E-01
   0.522E+02 0.146E+02 0.679E+02   -.518E+02 -.151E+02 -.697E+02   -.274E+00 0.589E+00 0.191E+01   -.978E-01 -.804E-01 -.694E-01
   0.488E+02 -.213E+02 0.707E+02   -.481E+02 0.223E+02 -.720E+02   -.572E+00 -.940E+00 0.145E+01   -.134E+00 0.992E-02 -.776E-01
   -.426E+02 0.126E+02 0.111E+02   0.413E+02 -.126E+02 -.108E+02   0.129E+01 0.648E-01 -.271E+00   0.666E-01 -.459E-01 -.473E-01
   -.381E+02 -.262E+02 0.865E+01   0.365E+02 0.263E+02 -.834E+01   0.153E+01 -.216E+00 -.266E+00   0.923E-01 0.132E-01 -.499E-01
   -.550E+01 0.354E+01 0.219E+01   0.381E+01 -.319E+01 -.209E+01   0.162E+01 -.349E+00 -.108E+00   0.287E-01 0.137E-03 -.113E-01
   -.809E+01 -.964E+01 0.486E+01   0.709E+01 0.100E+02 -.479E+01   0.103E+01 -.400E+00 -.716E-01   0.232E-01 -.137E-01 -.108E-01
   -.188E+01 -.147E+02 0.988E+01   0.658E+00 0.158E+02 -.991E+01   0.117E+01 -.966E+00 0.410E-01   0.197E-01 -.244E-01 -.706E-02
   -.938E+00 -.766E+01 0.110E+02   0.808E+00 0.836E+01 -.110E+02   0.146E+00 -.696E+00 -.187E-02   0.117E-01 -.277E-01 -.622E-02
   0.246E+01 -.144E+02 0.129E+02   -.139E+01 0.154E+02 -.129E+02   -.107E+01 -.985E+00 0.102E+00   -.684E-02 -.321E-01 -.789E-02
   0.147E+01 -.722E+01 0.142E+02   -.141E+01 0.794E+01 -.141E+02   -.526E-01 -.726E+00 0.194E-01   -.431E-02 -.310E-01 -.709E-02
   0.210E+02 -.148E+02 0.182E+02   -.203E+02 0.150E+02 -.179E+02   -.663E+00 -.146E+00 -.222E+00   -.339E-01 -.285E-01 -.277E-01
   0.104E+02 -.167E+02 0.254E+02   -.100E+02 0.169E+02 -.254E+02   -.364E+00 -.177E+00 0.953E-01   -.216E-01 -.246E-01 -.165E-01
   -.570E+01 -.564E+02 0.143E+03   0.135E+02 0.527E+02 -.144E+03   -.763E+01 0.350E+01 0.136E+01   -.181E+00 0.169E+00 -.169E+00
   0.245E+01 -.365E+02 0.584E+02   -.198E+01 0.357E+02 -.583E+02   -.438E+00 0.753E+00 -.210E-01   -.426E-01 0.271E-01 -.485E-01
   -.115E+02 -.560E+02 0.421E+01   0.490E+01 0.517E+02 -.228E+01   0.641E+01 0.416E+01 -.181E+01   0.202E+00 0.157E+00 -.108E+00
   -.720E+01 -.309E+02 0.106E+02   0.682E+01 0.293E+02 -.107E+02   0.339E+00 0.152E+01 0.103E+00   0.439E-01 0.255E-01 -.330E-01
   -.185E+02 -.159E+02 0.821E+01   0.174E+02 0.159E+02 -.834E+01   0.100E+01 -.792E-02 0.178E+00   0.278E-01 -.174E-01 -.166E-01
   -.867E+01 -.172E+02 0.673E+01   0.827E+01 0.174E+02 -.663E+01   0.390E+00 -.108E+00 -.947E-01   0.193E-01 -.179E-01 -.115E-01
   -.509E+01 -.660E+01 0.968E+01   0.473E+01 0.678E+01 -.968E+01   0.327E+00 -.142E+00 0.723E-02   0.164E-01 -.240E-01 -.712E-02
   -.208E+01 -.381E+01 0.114E+02   0.200E+01 0.393E+01 -.115E+02   0.644E-01 -.109E+00 0.463E-01   0.124E-01 -.822E-02 -.649E-02
   0.296E+00 -.632E+01 0.125E+02   -.356E+00 0.667E+01 -.125E+02   0.652E-01 -.317E+00 0.583E-01   0.179E-02 -.258E-01 -.570E-02
   -.400E-01 0.663E+00 0.818E+01   0.497E-01 -.423E+00 -.815E+01   -.180E-02 -.257E+00 -.523E-01   0.621E-03 -.929E-02 -.603E-02
   0.602E+01 -.678E+01 0.158E+02   -.577E+01 0.705E+01 -.158E+02   -.229E+00 -.215E+00 -.124E-02   -.118E-01 -.284E-01 -.883E-02
   0.204E+01 -.348E+01 0.131E+02   -.197E+01 0.364E+01 -.131E+02   -.559E-01 -.153E+00 0.722E-02   -.105E-01 -.149E-01 -.738E-02
   0.445E+01 -.167E+02 0.371E+02   -.382E+01 0.166E+02 -.372E+02   -.617E+00 0.123E+00 0.114E+00   -.209E-01 -.106E-01 -.197E-01
   0.275E+01 -.101E+02 0.232E+02   -.271E+01 0.100E+02 -.232E+02   -.373E-01 0.524E-01 0.913E-02   -.479E-02 -.221E-02 -.111E-01
   -.448E+01 -.213E+02 0.244E+02   0.473E+01 0.204E+02 -.241E+02   -.255E+00 0.827E+00 -.214E+00   0.227E-02 0.331E-01 -.298E-01
   -.632E-01 -.132E+02 0.189E+02   0.105E+00 0.126E+02 -.189E+02   -.540E-01 0.553E+00 0.200E-01   0.186E-02 0.132E-01 -.136E-01
   -.169E+01 -.154E+02 0.926E+01   0.954E+00 0.151E+02 -.930E+01   0.706E+00 0.374E+00 0.361E-01   0.125E-01 -.486E-02 -.146E-01
   -.298E+01 -.734E+01 0.131E+02   0.291E+01 0.704E+01 -.132E+02   0.680E-01 0.246E+00 0.106E+00   0.166E-02 0.126E-02 -.890E-02
   0.542E+02 -.106E+03 -.303E+03   -.451E+02 0.104E+03 0.296E+03   -.909E+01 0.209E+01 0.801E+01   -.667E-01 -.184E+00 -.409E+00
   0.299E+02 -.213E+02 -.269E+03   -.348E+02 0.275E+02 0.252E+03   0.487E+01 -.604E+01 0.177E+02   0.643E-01 -.113E+00 0.251E+00
   -.519E+02 0.778E+02 -.680E+03   0.652E+02 -.946E+02 0.735E+03   -.133E+02 0.168E+02 -.548E+02   0.350E-01 -.546E-01 0.113E+00
 -----------------------------------------------------------------------------------------------
   0.160E+02 -.136E+02 0.295E+02   0.114E-12 -.625E-12 0.114E-12   -.161E+02 0.139E+02 -.278E+02   0.683E-01 -.270E+00 -.167E+01
 
 
 POSITION                                       TOTAL-FORCE (eV/Angst)
 -----------------------------------------------------------------------------------
      7.41764     12.75531      7.37814         0.014179      0.021958      0.019931
     -0.01283      1.42502      7.37363         0.028319      0.006353      0.011283
      2.47015      0.02650      7.38103        -0.007565      0.037942     -0.008368
      2.47195      1.44934      7.38738        -0.032204     -0.023836     -0.014099
      4.94105      0.03096      7.37982        -0.003373      0.023848     -0.023417
      4.94206      1.45444      7.41598         0.029149     -0.030990     -0.014133
      7.41722      0.01713      7.33831        -0.001259      0.028403      0.023998
      7.41819      1.44289      7.38269        -0.016515      0.004768      0.014356
      2.46935     12.74981      7.32139        -0.002038      0.006562      0.006417
      9.89872      1.41317      7.35527         0.013293      0.007027      0.001426
      4.94468     12.74411      7.36832        -0.027357      0.013486      0.010456
     12.37387      1.40915      7.36578        -0.020944      0.000774      0.013037
     13.60667      2.12791      7.37465         0.018068      0.044037      0.007345
     -1.25603      3.55232      7.38943        -0.009698     -0.040654     -0.028233
      1.22563      2.14362      7.37727        -0.040294      0.010150     -0.017875
      1.22496      3.56428      7.36430        -0.050338     -0.030758     -0.006271
      3.70816      2.17261      7.42099        -0.001757     -0.039085      0.003105
      3.71111      3.59734      7.46106         0.010658     -0.038937      0.004770
      6.17958      2.16500      7.42903         0.019511      0.019729     -0.002700
      6.17816      3.59046      7.49925         0.039857     -0.017970     -0.009157
      8.66489      2.13443      7.39039        -0.021798      0.035462      0.009589
      8.66632      3.55745      7.44638         0.022144     -0.030563     -0.013042
     11.13721      2.12197      7.37208         0.007576      0.001399      0.011408
     11.13661      3.53922      7.40255         0.002551      0.017769     -0.008611
     12.36123      4.26222      7.40337        -0.003228     -0.003291     -0.005368
     -2.50504      5.68134      7.40839        -0.004631     -0.020988      0.009694
     -0.02292      4.25865      7.38283         0.010876     -0.022181     -0.010316
     -0.04424      5.67541      7.39232        -0.074118     -0.019328      0.009747
      2.46402      4.29160      7.37672         0.001098      0.039557      0.001791
      2.43160      5.69801      7.36211         0.036362      0.022419      0.012154
      4.93911      4.33525      7.56259         0.005567     -0.002308     -0.032794
      4.96344      5.76125      7.71621         0.010616      0.012316     -0.010544
      7.43614      4.26356      7.50673         0.004005     -0.013317      0.011049
      7.45903      5.67989      7.54982         0.053542     -0.043698     -0.001540
      9.91386      4.26304      7.43671        -0.010882      0.005539     -0.017933
      9.92165      5.68123      7.45159        -0.001419     -0.013355     -0.002373
     11.13793      6.38548      7.41809         0.023600      0.042514      0.003159
     -3.72281      7.79532      7.39593         0.028418     -0.018147      0.022419
     -1.27892      6.39065      7.40293         0.021460      0.024305     -0.034164
     -1.26426      7.81014      7.37916        -0.035468     -0.013627     -0.029259
      1.18536      6.38122      7.32867        -0.025354      0.017398      0.014500
      1.19144      7.81715      7.28995        -0.005687      0.025420      0.029916
      6.24315      6.38885      7.63837        -0.020723      0.006593     -0.031670
      6.23540      7.80676      7.61598        -0.005237     -0.029060      0.001454
      8.69717      6.39172      7.49728        -0.029045     -0.002206     -0.021691
      8.68197      7.80727      7.47874         0.052046     -0.002815     -0.018723
     -4.94674      8.50738      7.41615        -0.029941      0.017971      0.002645
     -4.95155      9.93423      7.39195         0.026688     -0.023711      0.017426
     -2.49757      8.50886      7.36604        -0.007712      0.006585      0.025078
     -2.49699      9.93682      7.34771         0.010616     -0.034935      0.036436
     -0.04109      8.52050      7.34042        -0.004232      0.029653     -0.000735
     -0.02321      9.94031      7.30419        -0.011432      0.019773     -0.005930
      2.43486      8.49349      7.23899         0.027998      0.003149     -0.028650
      2.46240      9.90043      7.27539         0.001843     -0.036607      0.001227
      4.96401      8.43626      7.67522        -0.033545      0.028709      0.018821
      4.93757      9.85843      7.49829        -0.009297     -0.004589     -0.014942
      7.45494      8.51485      7.51188        -0.034792      0.003313      0.026725
      7.43463      9.93254      7.45960         0.011401      0.020831     -0.007167
     -6.19288     10.64262      7.40792        -0.018506      0.013657      0.003783
     -6.19635     12.06355      7.38344         0.004070     -0.000010      0.013865
     -3.72506     10.65036      7.36465         0.007397      0.005765      0.022767
     -3.72383     12.07566      7.37645         0.008606     -0.026901     -0.032927
     -1.25844     10.64930      7.32875         0.005430      0.025617     -0.013152
     -1.25403     12.07107      7.34519         0.000421     -0.012802     -0.006113
      1.22246     10.63364      7.27472        -0.007739     -0.013448     -0.003763
      1.22313     12.05573      7.30459         0.002207     -0.036567      0.009762
      3.70976     10.60171      7.37502        -0.000209     -0.022178      0.007767
      3.70844     12.02252      7.34772        -0.009533      0.024980      0.017049
      6.17867     10.60600      7.44788        -0.023896      0.001636     -0.017579
      6.18099     12.03351      7.38919         0.000058     -0.048775      0.011922
      3.48948      7.10804      8.11970        -0.007326      0.053559      0.035537
      3.93123      6.50075      9.87735         0.079702      0.002916      0.030287
      4.19445      6.16675     10.96200         0.009761     -0.016204     -0.040862
 -----------------------------------------------------------------------------------
    total drift:                               -0.016290      0.013067      0.031092


--------------------------------------------------------------------------------------------------------



  FREE ENERGIE OF THE ION-ELECTRON SYSTEM (eV)
  ---------------------------------------------------
  free  energy   TOTEN  =      -669.82422526 eV

  energy  without entropy=     -669.82422526  energy(sigma->0) =     -669.82422526
 


--------------------------------------------------------------------------------------------------------


    POTLOK:  cpu time    0.1455: real time    0.1464


--------------------------------------------------------------------------------------------------------


 stress matrix after NEB project (eV)
     -8.98258     -0.51775      0.14369
     -0.51775     -3.34923      0.01366
      0.14369      0.01366     -2.99631
  FORCES: max atom, RMS     0.085313    0.038661
  FORCE total and by dimension    0.330324    0.079702
  Stress total and by dimension   10.072724    8.982578
     LOOP+:  cpu time  248.9522: real time  251.8361
    4ORBIT:  cpu time    0.0000: real time    0.0000
 


 total charge     
 
# of ion       s       p       d       tot
------------------------------------------
    1        0.863   1.780   0.000   2.643
    2        0.863   1.778   0.000   2.641
    3        0.864   1.782   0.000   2.647
    4        0.863   1.781   0.000   2.644
    5        0.864   1.782   0.000   2.647
    6        0.864   1.783   0.000   2.647
    7        0.863   1.780   0.000   2.644
    8        0.863   1.777   0.000   2.640
    9        0.863   1.781   0.000   2.644
   10        0.865   1.781   0.000   2.646
   11        0.864   1.785   0.000   2.648
   12        0.865   1.782   0.000   2.646
   13        0.864   1.784   0.000   2.648
   14        0.863   1.784   0.000   2.647
   15        0.864   1.782   0.000   2.646
   16        0.864   1.775   0.000   2.640
   17        0.863   1.777   0.000   2.640
   18        0.865   1.769   0.000   2.634
   19        0.863   1.774   0.000   2.637
   20        0.862   1.765   0.000   2.627
   21        0.864   1.783   0.000   2.646
   22        0.863   1.783   0.000   2.646
   23        0.863   1.793   0.000   2.656
   24        0.867   1.788   0.000   2.655
   25        0.862   1.793   0.000   2.655
   26        0.855   1.757   0.000   2.612
   27        0.866   1.791   0.000   2.657
   28        0.867   1.791   0.000   2.658
   29        0.866   1.776   0.000   2.642
   30        0.882   1.689   0.000   2.571
   31        0.859   1.750   0.000   2.609
   32        0.870   1.629   0.000   2.499
   33        0.866   1.795   0.000   2.661
   34        0.869   1.795   0.000   2.663
   35        0.862   1.795   0.000   2.657
   36        0.856   1.758   0.000   2.613
   37        1.211   2.705   0.000   3.915
   38        0.854   1.757   0.000   2.611
   39        0.864   1.799   0.000   2.663
   40        0.868   1.796   0.000   2.664
   41        0.869   1.777   0.000   2.646
   42        0.871   1.772   0.000   2.643
   43        0.875   1.794   0.000   2.669
   44        0.878   1.785   0.000   2.663
   45        0.865   1.801   0.000   2.665
   46        0.869   1.797   0.000   2.666
   47        0.865   1.799   0.000   2.664
   48        0.863   1.785   0.000   2.648
   49        0.864   1.798   0.000   2.662
   50        0.863   1.784   0.000   2.647
   51        0.868   1.801   0.000   2.669
   52        0.866   1.785   0.000   2.652
   53        0.878   1.703   0.000   2.581
   54        0.865   1.765   0.000   2.630
   55        0.870   1.651   0.000   2.521
   56        0.859   1.740   0.000   2.599
   57        0.870   1.803   0.000   2.673
   58        0.867   1.788   0.000   2.655
   59        0.865   1.785   0.000   2.650
   60        0.864   1.784   0.000   2.648
   61        0.866   1.791   0.000   2.656
   62        0.864   1.786   0.000   2.650
   63        0.864   1.785   0.000   2.650
   64        0.864   1.785   0.000   2.649
   65        0.864   1.774   0.000   2.638
   66        0.864   1.782   0.000   2.646
   67        0.863   1.773   0.000   2.636
   68        0.864   1.770   0.000   2.633
   69        0.862   1.764   0.000   2.626
   70        0.863   1.776   0.000   2.639
   71        0.410   6.445   4.330  11.186
   72        0.983   1.541   0.000   2.524
   73        1.627   3.528   0.000   5.154
--------------------------------------------------
tot         63.916 136.701   4.330 204.947
 


 magnetization (x)
 
# of ion       s       p       d       tot
------------------------------------------
    1       -0.000   0.000   0.000   0.000
    2       -0.000  -0.002   0.000  -0.002
    3        0.000   0.001   0.000   0.001
    4       -0.000  -0.003   0.000  -0.003
    5        0.000   0.002   0.000   0.002
    6       -0.000  -0.002   0.000  -0.002
    7        0.000   0.000   0.000   0.000
    8       -0.000  -0.002   0.000  -0.002
    9        0.000   0.003   0.000   0.003
   10       -0.000  -0.001   0.000  -0.001
   11        0.000   0.001   0.000   0.001
   12        0.000   0.001   0.000   0.001
   13        0.000   0.002   0.000   0.002
   14       -0.000  -0.002   0.000  -0.002
   15        0.000   0.002   0.000   0.002
   16       -0.000  -0.002   0.000  -0.003
   17        0.000   0.003   0.000   0.004
   18       -0.001  -0.014   0.000  -0.015
   19        0.000   0.002   0.000   0.002
   20       -0.000  -0.003   0.000  -0.003
   21        0.000   0.002   0.000   0.003
   22       -0.000  -0.002   0.000  -0.002
   23        0.000   0.001   0.000   0.001
   24       -0.000  -0.000   0.000  -0.000
   25        0.000   0.001   0.000   0.001
   26        0.000   0.001   0.000   0.001
   27        0.000   0.005   0.000   0.006
   28       -0.000  -0.003   0.000  -0.004
   29        0.002   0.015   0.000   0.017
   30       -0.008  -0.043   0.000  -0.051
   31        0.001   0.009   0.000   0.010
   32       -0.007  -0.034   0.000  -0.041
   33        0.000   0.003   0.000   0.003
   34       -0.000  -0.003   0.000  -0.004
   35        0.000   0.000   0.000   0.000
   36       -0.000  -0.000   0.000  -0.000
   37        0.000  -0.000   0.000  -0.000
   38       -0.000  -0.004   0.000  -0.004
   39       -0.000  -0.001   0.000  -0.001
   40       -0.000  -0.003   0.000  -0.003
   41        0.001   0.008   0.000   0.009
   42        0.000  -0.004   0.000  -0.004
   43        0.002   0.006   0.000   0.007
   44        0.001  -0.000   0.000   0.001
   45        0.000   0.000   0.000   0.000
   46       -0.000  -0.003   0.000  -0.003
   47        0.000   0.001   0.000   0.001
   48       -0.000  -0.003   0.000  -0.003
   49        0.000   0.002   0.000   0.002
   50       -0.000  -0.002   0.000  -0.003
   51        0.000   0.001   0.000   0.002
   52       -0.000  -0.002   0.000  -0.002
   53       -0.004  -0.010   0.000  -0.014
   54        0.000   0.004   0.000   0.005
   55       -0.005  -0.019   0.000  -0.024
   56        0.000   0.005   0.000   0.006
   57        0.000  -0.000   0.000  -0.000
   58        0.000   0.000   0.000   0.000
   59        0.000   0.000   0.000   0.000
   60        0.000   0.001   0.000   0.001
   61        0.000   0.001   0.000   0.001
   62       -0.000  -0.004   0.000  -0.004
   63        0.000   0.001   0.000   0.001
   64        0.000   0.000   0.000   0.000
   65       -0.000   0.002   0.000   0.002
   66       -0.000  -0.000   0.000  -0.000
   67        0.000   0.001   0.000   0.001
   68        0.000  -0.001   0.000  -0.001
   69       -0.000  -0.001   0.000  -0.001
   70       -0.000  -0.001   0.000  -0.001
   71        0.011   0.012   0.958   0.981
   72       -0.003   0.014   0.000   0.011
   73        0.001   0.040   0.000   0.040
--------------------------------------------------
tot         -0.009  -0.022   0.958   0.927
 
 BZINTS: Fermi energy: -2.192048;303.000000 electrons
         Band energy:***********;  BLOECHL correction:  0.000000

 total amount of memory used by VASP MPI-rank0   115989. kBytes
=======================================================================

   base      :      30000. kBytes
   nonl-proj :      27264. kBytes
   fftplans  :       4700. kBytes
   grid      :      15193. kBytes
   one-center:        217. kBytes
   wavefun   :      38615. kBytes
 
  
  
 General timing and accounting informations for this job:
 ========================================================
  
                  Total CPU time used (sec):      266.136
                            User time (sec):      257.933
                          System time (sec):        8.202
                         Elapsed time (sec):      277.392
  
                   Maximum memory used (kb):      474148.
                   Average memory used (kb):           0.
  
                          Minor page faults:      1346433
                          Major page faults:            0
                 Voluntary context switches:         8790
