  71  71   0   0
  0.4011563E+02  0.1487831E-08  0.1477209E-08  0.1500000E-08  0.3000000E-15
  1.000000000000000E-004
  CAR 
 unknown system                          
      5.29532912    -48.55372332  301     -2.08639250      1.00000000
    -48.554  0.0000E+00  0.0000E+00  0.0000E+00  0.0000E+00
    -48.374  0.0000E+00  0.0000E+00  0.0000E+00  0.0000E+00
    -48.195  0.0000E+00  0.0000E+00  0.0000E+00  0.0000E+00
    -48.015  0.0000E+00  0.0000E+00  0.0000E+00  0.0000E+00
    -47.836  0.0000E+00  0.0000E+00  0.0000E+00  0.0000E+00
    -47.656  0.0000E+00  0.0000E+00  0.0000E+00  0.0000E+00
    -47.477  0.0000E+00  0.0000E+00  0.0000E+00  0.0000E+00
    -47.297  0.0000E+00  0.0000E+00  0.0000E+00  0.0000E+00
    -47.118  0.0000E+00  0.0000E+00  0.0000E+00  0.0000E+00
    -46.938  0.0000E+00  0.0000E+00  0.0000E+00  0.0000E+00
    -46.759  0.0000E+00  0.0000E+00  0.0000E+00  0.0000E+00
    -46.579  0.0000E+00  0.1530E-12  0.0000E+00  0.2746E-13
    -46.400  0.0000E+00  0.2277E-06  0.0000E+00  0.4086E-07
    -46.220  0.0000E+00  0.7395E-03  0.0000E+00  0.1328E-03
    -46.041  0.0000E+00  0.1091E-01  0.0000E+00  0.2091E-02
    -45.861  0.0000E+00  0.1454E-01  0.0000E+00  0.4700E-02
    -45.682  0.0000E+00  0.1514E-01  0.0000E+00  0.7418E-02
    -45.502  0.0000E+00  0.4573E-03  0.0000E+00  0.7500E-02
    -45.323  0.0000E+00  0.7305E-07  0.0000E+00  0.7500E-02
    -45.143  0.0000E+00  0.2607E-13  0.0000E+00  0.7500E-02
    -44.964  0.0000E+00  0.0000E+00  0.0000E+00  0.7500E-02
    -44.784  0.0000E+00  0.0000E+00  0.0000E+00  0.7500E-02
    -44.605  0.7731E-18  0.0000E+00  0.1388E-18  0.7500E-02
    -44.425  0.8066E-10  0.0000E+00  0.1448E-10  0.7500E-02
    -44.246  0.1072E-04  0.0000E+00  0.1923E-05  0.7500E-02
    -44.066  0.3677E-02  0.0000E+00  0.6620E-03  0.7500E-02
    -43.887  0.1120E-01  0.0000E+00  0.2673E-02  0.7500E-02
    -43.707  0.1348E-01  0.0000E+00  0.5092E-02  0.7500E-02
    -43.528  0.1244E-01  0.0000E+00  0.7326E-02  0.7500E-02
    -43.348  0.9704E-03  0.0000E+00  0.7500E-02  0.7500E-02
    -43.169  0.4104E-06  0.0000E+00  0.7500E-02  0.7500E-02
    -42.989  0.3861E-12  0.0000E+00  0.7500E-02  0.7500E-02
    -42.810  0.0000E+00  0.0000E+00  0.7500E-02  0.7500E-02
    -42.630  0.0000E+00  0.0000E+00  0.7500E-02  0.7500E-02
    -42.451  0.0000E+00  0.0000E+00  0.7500E-02  0.7500E-02
    -42.271  0.0000E+00  0.0000E+00  0.7500E-02  0.7500E-02
    -42.092  0.0000E+00  0.0000E+00  0.7500E-02  0.7500E-02
    -41.912  0.0000E+00  0.0000E+00  0.7500E-02  0.7500E-02
    -41.733  0.0000E+00  0.0000E+00  0.7500E-02  0.7500E-02
    -41.553  0.0000E+00  0.0000E+00  0.7500E-02  0.7500E-02
    -41.374  0.0000E+00  0.0000E+00  0.7500E-02  0.7500E-02
    -41.194  0.0000E+00  0.0000E+00  0.7500E-02  0.7500E-02
    -41.015  0.0000E+00  0.0000E+00  0.7500E-02  0.7500E-02
    -40.835  0.0000E+00  0.0000E+00  0.7500E-02  0.7500E-02
    -40.656  0.0000E+00  0.0000E+00  0.7500E-02  0.7500E-02
    -40.476  0.0000E+00  0.0000E+00  0.7500E-02  0.7500E-02
    -40.297  0.0000E+00  0.0000E+00  0.7500E-02  0.7500E-02
    -40.117  0.0000E+00  0.0000E+00  0.7500E-02  0.7500E-02
    -39.938  0.0000E+00  0.0000E+00  0.7500E-02  0.7500E-02
    -39.758  0.0000E+00  0.0000E+00  0.7500E-02  0.7500E-02
    -39.579  0.0000E+00  0.0000E+00  0.7500E-02  0.7500E-02
    -39.399  0.0000E+00  0.0000E+00  0.7500E-02  0.7500E-02
    -39.220  0.0000E+00  0.0000E+00  0.7500E-02  0.7500E-02
    -39.040  0.0000E+00  0.0000E+00  0.7500E-02  0.7500E-02
    -38.861  0.0000E+00  0.0000E+00  0.7500E-02  0.7500E-02
    -38.681  0.0000E+00  0.0000E+00  0.7500E-02  0.7500E-02
    -38.502  0.0000E+00  0.0000E+00  0.7500E-02  0.7500E-02
    -38.322  0.0000E+00  0.0000E+00  0.7500E-02  0.7500E-02
    -38.143  0.0000E+00  0.0000E+00  0.7500E-02  0.7500E-02
    -37.963  0.0000E+00  0.0000E+00  0.7500E-02  0.7500E-02
    -37.784  0.0000E+00  0.0000E+00  0.7500E-02  0.7500E-02
    -37.604  0.0000E+00  0.0000E+00  0.7500E-02  0.7500E-02
    -37.425  0.0000E+00  0.0000E+00  0.7500E-02  0.7500E-02
    -37.245  0.0000E+00  0.0000E+00  0.7500E-02  0.7500E-02
    -37.066  0.0000E+00  0.0000E+00  0.7500E-02  0.7500E-02
    -36.886  0.0000E+00  0.0000E+00  0.7500E-02  0.7500E-02
    -36.707  0.0000E+00  0.0000E+00  0.7500E-02  0.7500E-02
    -36.527  0.0000E+00  0.0000E+00  0.7500E-02  0.7500E-02
    -36.348  0.0000E+00  0.0000E+00  0.7500E-02  0.7500E-02
    -36.168  0.0000E+00  0.0000E+00  0.7500E-02  0.7500E-02
    -35.989  0.0000E+00  0.0000E+00  0.7500E-02  0.7500E-02
    -35.809  0.0000E+00  0.0000E+00  0.7500E-02  0.7500E-02
    -35.630  0.0000E+00  0.0000E+00  0.7500E-02  0.7500E-02
    -35.450  0.0000E+00  0.0000E+00  0.7500E-02  0.7500E-02
    -35.271  0.0000E+00  0.0000E+00  0.7500E-02  0.7500E-02
    -35.091  0.0000E+00  0.0000E+00  0.7500E-02  0.7500E-02
    -34.912  0.0000E+00  0.0000E+00  0.7500E-02  0.7500E-02
    -34.732  0.0000E+00  0.0000E+00  0.7500E-02  0.7500E-02
    -34.553  0.0000E+00  0.0000E+00  0.7500E-02  0.7500E-02
    -34.373  0.0000E+00  0.0000E+00  0.7500E-02  0.7500E-02
    -34.194  0.0000E+00  0.0000E+00  0.7500E-02  0.7500E-02
    -34.014  0.0000E+00  0.0000E+00  0.7500E-02  0.7500E-02
    -33.835  0.0000E+00  0.0000E+00  0.7500E-02  0.7500E-02
    -33.655  0.0000E+00  0.0000E+00  0.7500E-02  0.7500E-02
    -33.476  0.0000E+00  0.0000E+00  0.7500E-02  0.7500E-02
    -33.296  0.0000E+00  0.0000E+00  0.7500E-02  0.7500E-02
    -33.117  0.0000E+00  0.0000E+00  0.7500E-02  0.7500E-02
    -32.937  0.0000E+00  0.0000E+00  0.7500E-02  0.7500E-02
    -32.758  0.0000E+00  0.0000E+00  0.7500E-02  0.7500E-02
    -32.579  0.0000E+00  0.0000E+00  0.7500E-02  0.7500E-02
    -32.399  0.0000E+00  0.0000E+00  0.7500E-02  0.7500E-02
    -32.220  0.0000E+00  0.0000E+00  0.7500E-02  0.7500E-02
    -32.040  0.0000E+00  0.0000E+00  0.7500E-02  0.7500E-02
    -31.861  0.0000E+00  0.0000E+00  0.7500E-02  0.7500E-02
    -31.681  0.0000E+00  0.0000E+00  0.7500E-02  0.7500E-02
    -31.502  0.0000E+00  0.0000E+00  0.7500E-02  0.7500E-02
    -31.322  0.0000E+00  0.0000E+00  0.7500E-02  0.7500E-02
    -31.143  0.0000E+00  0.0000E+00  0.7500E-02  0.7500E-02
    -30.963  0.0000E+00  0.0000E+00  0.7500E-02  0.7500E-02
    -30.784  0.0000E+00  0.0000E+00  0.7500E-02  0.7500E-02
    -30.604  0.0000E+00  0.0000E+00  0.7500E-02  0.7500E-02
    -30.425  0.0000E+00  0.0000E+00  0.7500E-02  0.7500E-02
    -30.245  0.0000E+00  0.0000E+00  0.7500E-02  0.7500E-02
    -30.066  0.0000E+00  0.0000E+00  0.7500E-02  0.7500E-02
    -29.886  0.0000E+00  0.0000E+00  0.7500E-02  0.7500E-02
    -29.707  0.0000E+00  0.0000E+00  0.7500E-02  0.7500E-02
    -29.527  0.0000E+00  0.0000E+00  0.7500E-02  0.7500E-02
    -29.348  0.0000E+00  0.0000E+00  0.7500E-02  0.7500E-02
    -29.168  0.0000E+00  0.0000E+00  0.7500E-02  0.7500E-02
    -28.989  0.0000E+00  0.0000E+00  0.7500E-02  0.7500E-02
    -28.809  0.0000E+00  0.0000E+00  0.7500E-02  0.7500E-02
    -28.630  0.0000E+00  0.0000E+00  0.7500E-02  0.7500E-02
    -28.450  0.0000E+00  0.0000E+00  0.7500E-02  0.7500E-02
    -28.271  0.0000E+00  0.0000E+00  0.7500E-02  0.7500E-02
    -28.091  0.0000E+00  0.0000E+00  0.7500E-02  0.7500E-02
    -27.912  0.0000E+00  0.0000E+00  0.7500E-02  0.7500E-02
    -27.732  0.0000E+00  0.0000E+00  0.7500E-02  0.7500E-02
    -27.553  0.0000E+00  0.0000E+00  0.7500E-02  0.7500E-02
    -27.373  0.0000E+00  0.0000E+00  0.7500E-02  0.7500E-02
    -27.194  0.0000E+00  0.0000E+00  0.7500E-02  0.7500E-02
    -27.014  0.0000E+00  0.0000E+00  0.7500E-02  0.7500E-02
    -26.835  0.0000E+00  0.0000E+00  0.7500E-02  0.7500E-02
    -26.655  0.0000E+00  0.0000E+00  0.7500E-02  0.7500E-02
    -26.476  0.0000E+00  0.0000E+00  0.7500E-02  0.7500E-02
    -26.296  0.0000E+00  0.0000E+00  0.7500E-02  0.7500E-02
    -26.117  0.0000E+00  0.0000E+00  0.7500E-02  0.7500E-02
    -25.937  0.0000E+00  0.0000E+00  0.7500E-02  0.7500E-02
    -25.758  0.0000E+00  0.0000E+00  0.7500E-02  0.7500E-02
    -25.578  0.0000E+00  0.0000E+00  0.7500E-02  0.7500E-02
    -25.399  0.0000E+00  0.0000E+00  0.7500E-02  0.7500E-02
    -25.219  0.0000E+00  0.0000E+00  0.7500E-02  0.7500E-02
    -25.040  0.0000E+00  0.0000E+00  0.7500E-02  0.7500E-02
    -24.860  0.0000E+00  0.0000E+00  0.7500E-02  0.7500E-02
    -24.681  0.0000E+00  0.0000E+00  0.7500E-02  0.7500E-02
    -24.501  0.8422E-13  0.5345E-13  0.7500E-02  0.7500E-02
    -24.322  0.1552E-06  0.1158E-06  0.7500E-02  0.7500E-02
    -24.142  0.6177E-03  0.5371E-03  0.7611E-02  0.7596E-02
    -23.963  0.1050E-01  0.1032E-01  0.9496E-02  0.9449E-02
    -23.783  0.2801E-02  0.3063E-02  0.9999E-02  0.9999E-02
    -23.604  0.5144E-05  0.6511E-05  0.1000E-01  0.1000E-01
    -23.424  0.2336E-10  0.3468E-10  0.1000E-01  0.1000E-01
    -23.245  0.0000E+00  0.0000E+00  0.1000E-01  0.1000E-01
    -23.065  0.0000E+00  0.0000E+00  0.1000E-01  0.1000E-01
    -22.886  0.0000E+00  0.0000E+00  0.1000E-01  0.1000E-01
    -22.706  0.0000E+00  0.0000E+00  0.1000E-01  0.1000E-01
    -22.527  0.0000E+00  0.0000E+00  0.1000E-01  0.1000E-01
    -22.347  0.0000E+00  0.0000E+00  0.1000E-01  0.1000E-01
    -22.168  0.0000E+00  0.0000E+00  0.1000E-01  0.1000E-01
    -21.988  0.2427E-12  0.1663E-12  0.1000E-01  0.1000E-01
    -21.809  0.2283E-06  0.1794E-06  0.1000E-01  0.1000E-01
    -21.629  0.5872E-03  0.5231E-03  0.1011E-01  0.1009E-01
    -21.450  0.1017E-01  0.9924E-02  0.1193E-01  0.1188E-01
    -21.270  0.1282E-01  0.1291E-01  0.1423E-01  0.1419E-01
    -21.091  0.1060E-01  0.1040E-01  0.1613E-01  0.1606E-01
    -20.911  0.1781E-01  0.1781E-01  0.1933E-01  0.1926E-01
    -20.732  0.5020E-02  0.5259E-02  0.2023E-01  0.2020E-01
    -20.552  0.1471E-01  0.1385E-01  0.2287E-01  0.2269E-01
    -20.373  0.2054E-01  0.2103E-01  0.2656E-01  0.2646E-01
    -20.193  0.1174E-01  0.1174E-01  0.2867E-01  0.2857E-01
    -20.014  0.7665E-02  0.7848E-02  0.3004E-01  0.2998E-01
    -19.834  0.1152E-01  0.1113E-01  0.3211E-01  0.3197E-01
    -19.655  0.2309E-01  0.2293E-01  0.3625E-01  0.3609E-01
    -19.475  0.1016E-01  0.1056E-01  0.3808E-01  0.3799E-01
    -19.296  0.1561E-01  0.1525E-01  0.4088E-01  0.4072E-01
    -19.116  0.1094E-01  0.1102E-01  0.4284E-01  0.4270E-01
    -18.937  0.1439E-01  0.1433E-01  0.4543E-01  0.4528E-01
    -18.757  0.1265E-01  0.1291E-01  0.4770E-01  0.4759E-01
    -18.578  0.1525E-01  0.1512E-01  0.5043E-01  0.5031E-01
    -18.398  0.1514E-01  0.1512E-01  0.5315E-01  0.5302E-01
    -18.219  0.1987E-01  0.1949E-01  0.5672E-01  0.5652E-01
    -18.039  0.1242E-01  0.1277E-01  0.5895E-01  0.5881E-01
    -17.860  0.9633E-02  0.1002E-01  0.6068E-01  0.6061E-01
    -17.680  0.8130E-02  0.7720E-02  0.6214E-01  0.6200E-01
    -17.501  0.1867E-01  0.1862E-01  0.6549E-01  0.6534E-01
    -17.321  0.1795E-01  0.1786E-01  0.6871E-01  0.6854E-01
    -17.142  0.1765E-01  0.1762E-01  0.7188E-01  0.7171E-01
    -16.962  0.1850E-01  0.1843E-01  0.7520E-01  0.7502E-01
    -16.783  0.1510E-01  0.1520E-01  0.7791E-01  0.7774E-01
    -16.603  0.1324E-01  0.1346E-01  0.8029E-01  0.8016E-01
    -16.424  0.1149E-01  0.1125E-01  0.8235E-01  0.8218E-01
    -16.244  0.1265E-01  0.1305E-01  0.8462E-01  0.8452E-01
    -16.065  0.1261E-01  0.1203E-01  0.8688E-01  0.8668E-01
    -15.885  0.1894E-01  0.1876E-01  0.9028E-01  0.9005E-01
    -15.706  0.1505E-01  0.1473E-01  0.9299E-01  0.9269E-01
    -15.526  0.8008E-02  0.9329E-02  0.9442E-01  0.9437E-01
    -15.347  0.7962E-02  0.7521E-02  0.9585E-01  0.9572E-01
    -15.167  0.1021E-01  0.1048E-01  0.9768E-01  0.9760E-01
    -14.988  0.1240E-01  0.1219E-01  0.9991E-01  0.9979E-01
    -14.808  0.1655E-01  0.1617E-01  0.1029E+00  0.1027E+00
    -14.629  0.2067E-01  0.2053E-01  0.1066E+00  0.1064E+00
    -14.449  0.1655E-01  0.1724E-01  0.1096E+00  0.1095E+00
    -14.270  0.1220E-01  0.1198E-01  0.1118E+00  0.1116E+00
    -14.090  0.1483E-01  0.1496E-01  0.1144E+00  0.1143E+00
    -13.911  0.1786E-01  0.1698E-01  0.1176E+00  0.1174E+00
    -13.731  0.1735E-01  0.1825E-01  0.1207E+00  0.1206E+00
    -13.552  0.1160E-01  0.1141E-01  0.1228E+00  0.1227E+00
    -13.372  0.1615E-01  0.1575E-01  0.1257E+00  0.1255E+00
    -13.193  0.1037E-01  0.1088E-01  0.1276E+00  0.1275E+00
    -13.013  0.1337E-01  0.1266E-01  0.1300E+00  0.1297E+00
    -12.834  0.1730E-01  0.1825E-01  0.1331E+00  0.1330E+00
    -12.654  0.1560E-01  0.1483E-01  0.1359E+00  0.1357E+00
    -12.475  0.1547E-01  0.1584E-01  0.1387E+00  0.1385E+00
    -12.295  0.9987E-02  0.1055E-01  0.1404E+00  0.1404E+00
    -12.116  0.7135E-02  0.6630E-02  0.1417E+00  0.1416E+00
    -11.936  0.1913E-01  0.1893E-01  0.1452E+00  0.1450E+00
    -11.757  0.2615E-01  0.2629E-01  0.1499E+00  0.1497E+00
    -11.577  0.2268E-01  0.2183E-01  0.1539E+00  0.1536E+00
    -11.398  0.1893E-01  0.2026E-01  0.1573E+00  0.1573E+00
    -11.218  0.4687E-02  0.4723E-02  0.1582E+00  0.1581E+00
    -11.039  0.1377E-01  0.1345E-01  0.1606E+00  0.1605E+00
    -10.859  0.2025E-01  0.2002E-01  0.1643E+00  0.1641E+00
    -10.680  0.1445E-01  0.1443E-01  0.1669E+00  0.1667E+00
    -10.500  0.1834E-01  0.1822E-01  0.1702E+00  0.1700E+00
    -10.321  0.2904E-01  0.2872E-01  0.1754E+00  0.1751E+00
    -10.141  0.2436E-01  0.2502E-01  0.1797E+00  0.1796E+00
     -9.962  0.2668E-01  0.2612E-01  0.1845E+00  0.1843E+00
     -9.782  0.1982E-01  0.2042E-01  0.1881E+00  0.1880E+00
     -9.603  0.2264E-01  0.2215E-01  0.1922E+00  0.1920E+00
     -9.423  0.2942E-01  0.2976E-01  0.1974E+00  0.1973E+00
     -9.244  0.2842E-01  0.2799E-01  0.2025E+00  0.2023E+00
     -9.064  0.3522E-01  0.3514E-01  0.2089E+00  0.2086E+00
     -8.885  0.3710E-01  0.3751E-01  0.2155E+00  0.2154E+00
     -8.705  0.3223E-01  0.3205E-01  0.2213E+00  0.2211E+00
     -8.526  0.4596E-01  0.4459E-01  0.2296E+00  0.2291E+00
     -8.346  0.5799E-01  0.5886E-01  0.2400E+00  0.2397E+00
     -8.167  0.2702E-01  0.2758E-01  0.2448E+00  0.2446E+00
     -7.987  0.2973E-01  0.2915E-01  0.2501E+00  0.2499E+00
     -7.808  0.3190E-01  0.3264E-01  0.2559E+00  0.2557E+00
     -7.628  0.2263E-01  0.2275E-01  0.2599E+00  0.2598E+00
     -7.449  0.3570E-01  0.3416E-01  0.2663E+00  0.2659E+00
     -7.269  0.3734E-01  0.3847E-01  0.2730E+00  0.2728E+00
     -7.090  0.3222E-01  0.3265E-01  0.2788E+00  0.2787E+00
     -6.910  0.3147E-01  0.3145E-01  0.2845E+00  0.2844E+00
     -6.731  0.2142E-01  0.2127E-01  0.2883E+00  0.2882E+00
     -6.551  0.1851E-01  0.1854E-01  0.2916E+00  0.2915E+00
     -6.372  0.2085E-01  0.2243E-01  0.2954E+00  0.2955E+00
     -6.192  0.3037E-01  0.2989E-01  0.3008E+00  0.3009E+00
     -6.013  0.3380E-01  0.3258E-01  0.3069E+00  0.3067E+00
     -5.833  0.3034E-01  0.3082E-01  0.3124E+00  0.3123E+00
     -5.654  0.2081E-01  0.2277E-01  0.3161E+00  0.3164E+00
     -5.474  0.1619E-01  0.1517E-01  0.3190E+00  0.3191E+00
     -5.295  0.1713E-01  0.1789E-01  0.3221E+00  0.3223E+00
     -5.115  0.1807E-01  0.2011E-01  0.3253E+00  0.3259E+00
     -4.936  0.2472E-01  0.3161E-01  0.3297E+00  0.3316E+00
     -4.756  0.3682E-01  0.2957E-01  0.3364E+00  0.3369E+00
     -4.577  0.3110E-01  0.3137E-01  0.3419E+00  0.3425E+00
     -4.398  0.1351E-01  0.1041E-01  0.3444E+00  0.3444E+00
     -4.218  0.6352E-02  0.8115E-02  0.3455E+00  0.3458E+00
     -4.039  0.1255E-01  0.1650E-01  0.3478E+00  0.3488E+00
     -3.859  0.1436E-01  0.2394E-01  0.3503E+00  0.3531E+00
     -3.680  0.1356E-01  0.1195E-01  0.3528E+00  0.3552E+00
     -3.500  0.1875E-01  0.8176E-02  0.3561E+00  0.3567E+00
     -3.321  0.1386E-01  0.1665E-01  0.3586E+00  0.3597E+00
     -3.141  0.1153E-01  0.1950E-01  0.3607E+00  0.3632E+00
     -2.962  0.4518E-02  0.3517E-02  0.3615E+00  0.3638E+00
     -2.782  0.2034E-02  0.9935E-02  0.3619E+00  0.3656E+00
     -2.603  0.3671E-04  0.5728E-02  0.3619E+00  0.3666E+00
     -2.423  0.6042E-05  0.1329E-02  0.3619E+00  0.3669E+00
     -2.244  0.2095E-02  0.1853E-02  0.3623E+00  0.3672E+00
     -2.064  0.1328E-01  0.6119E-02  0.3646E+00  0.3683E+00
     -1.885  0.5475E-02  0.2642E-02  0.3656E+00  0.3688E+00
     -1.705  0.1005E-03  0.8849E-02  0.3656E+00  0.3704E+00
     -1.526  0.2724E-02  0.1452E-01  0.3661E+00  0.3730E+00
     -1.346  0.8916E-02  0.1616E-01  0.3677E+00  0.3759E+00
     -1.167  0.2311E-02  0.1067E-01  0.3681E+00  0.3778E+00
     -0.987  0.8394E-02  0.3027E-02  0.3696E+00  0.3783E+00
     -0.808  0.3068E-01  0.1717E-01  0.3752E+00  0.3814E+00
     -0.628  0.2683E-01  0.1727E-01  0.3800E+00  0.3845E+00
     -0.449  0.2369E-01  0.1341E-01  0.3842E+00  0.3869E+00
     -0.269  0.2496E-01  0.1982E-01  0.3887E+00  0.3905E+00
     -0.090  0.1673E-01  0.1148E-01  0.3917E+00  0.3925E+00
      0.090  0.9395E-02  0.9878E-02  0.3934E+00  0.3943E+00
      0.269  0.2149E-01  0.2314E-01  0.3972E+00  0.3985E+00
      0.449  0.2333E-01  0.1639E-01  0.4014E+00  0.4014E+00
      0.628  0.1533E-01  0.1452E-01  0.4042E+00  0.4040E+00
      0.808  0.1091E-01  0.1757E-01  0.4061E+00  0.4072E+00
      0.987  0.1306E-01  0.1642E-01  0.4085E+00  0.4101E+00
      1.167  0.1709E-01  0.9571E-02  0.4116E+00  0.4118E+00
      1.346  0.1524E-01  0.1865E-01  0.4143E+00  0.4152E+00
      1.526  0.1863E-01  0.1676E-01  0.4176E+00  0.4182E+00
      1.705  0.2217E-01  0.2430E-01  0.4216E+00  0.4226E+00
      1.885  0.2592E-01  0.2630E-01  0.4263E+00  0.4273E+00
      2.064  0.3431E-01  0.3480E-01  0.4324E+00  0.4335E+00
      2.244  0.2554E-01  0.2824E-01  0.4370E+00  0.4386E+00
      2.423  0.1937E-01  0.2046E-01  0.4405E+00  0.4423E+00
      2.603  0.4325E-01  0.3944E-01  0.4483E+00  0.4493E+00
      2.782  0.5109E-01  0.4466E-01  0.4574E+00  0.4574E+00
      2.962  0.1398E-01  0.1432E-01  0.4599E+00  0.4599E+00
      3.141  0.3658E-03  0.3880E-03  0.4600E+00  0.4600E+00
      3.321  0.7765E-07  0.6614E-07  0.4600E+00  0.4600E+00
      3.500  0.4422E-13  0.2941E-13  0.4600E+00  0.4600E+00
      3.680  0.0000E+00  0.0000E+00  0.4600E+00  0.4600E+00
      3.859  0.0000E+00  0.0000E+00  0.4600E+00  0.4600E+00
      4.039  0.0000E+00  0.0000E+00  0.4600E+00  0.4600E+00
      4.218  0.0000E+00  0.0000E+00  0.4600E+00  0.4600E+00
      4.398  0.0000E+00  0.0000E+00  0.4600E+00  0.4600E+00
      4.577  0.0000E+00  0.0000E+00  0.4600E+00  0.4600E+00
      4.757  0.0000E+00  0.0000E+00  0.4600E+00  0.4600E+00
      4.936  0.0000E+00  0.0000E+00  0.4600E+00  0.4600E+00
      5.116  0.0000E+00  0.0000E+00  0.4600E+00  0.4600E+00
      5.295  0.0000E+00  0.0000E+00  0.4600E+00  0.4600E+00
