 vasp.5.4.4.18Apr17-6-g9f103f2a35 (build Sep 02 2021 13:24:58) complex          
  
 executed on             LinuxIFC date 2023.01.15  13:02:12
 running on   48 total cores
 distrk:  each k-point on   48 cores,    1 groups
 distr:  one band on NCORES_PER_BAND=  12 cores,    4 groups


--------------------------------------------------------------------------------------------------------


 INCAR:
 POTCAR:    PAW_PBE C 08Apr2002                   
 POTCAR:    PAW_PBE N 08Apr2002                   
 POTCAR:    PAW_PBE C 08Apr2002                   
 POTCAR:    PAW_PBE Cr_pv 02Aug2007               
 POTCAR:    PAW_PBE C 08Apr2002                   
   SHA256 =  253f7b50bb8d59471dbedb8285d89021f4a42ed1a2c5d38a03a736e69125dd95 C/
   COPYR  = (c) Copyright 08Apr2002 Georg Kresse                                
   COPYR  = This file is part of the software VASP. Any use, copying, and all ot
   COPYR  = If you do not have a valid VASP license, you may not use, copy or di
   VRHFIN =C: s2p2                                                              
   LEXCH  = PE                                                                  
   EATOM  =   147.1560 eV,   10.8157 Ry                                         
                                                                                
   TITEL  = PAW_PBE C 08Apr2002                                                 
   LULTRA =        F    use ultrasoft PP ?                                      
   IUNSCR =        1    unscreen: 0-lin 1-nonlin 2-no                           
   RPACOR =    1.200    partial core radius                                     
   POMASS =   12.011; ZVAL   =    4.000    mass and valenz                      
   RCORE  =    1.500    outmost cutoff radius                                   
   RWIGS  =    1.630; RWIGS  =    0.863    wigner-seitz radius (au A)           
   ENMAX  =  400.000; ENMIN  =  300.000 eV                                      
   ICORE  =        2    local potential                                         
   LCOR   =        T    correct aug charges                                     
   LPAW   =        T    paw PP                                                  
   EAUG   =  644.873                                                            
   DEXC   =    0.000                                                            
   RMAX   =    1.529    core radius for proj-oper                               
   RAUG   =    1.300    factor for augmentation sphere                          
   RDEP   =    1.501    radius for radial grids                                 
   RDEPT  =    1.300    core radius for aug-charge                              
                                                                                
   Atomic configuration                                                         
    4 entries                                                                   
     n  l   j            E        occ.                                          
     1  0  0.50      -273.3789   2.0000                                         
     2  0  0.50       -13.7508   2.0000                                         
     2  1  0.50        -5.2854   2.0000                                         
     3  2  1.50        -5.4423   0.0000                                         
   Description                                                                  
     l       E           TYP  RCUT    TYP  RCUT                                 
     0    -13.7508458     23  1.200                                             
     0     -8.2022199     23  1.200                                             
     1     -5.2854383     23  1.500                                             
     1     34.0145650     23  1.500                                             
     2     -5.4423304      7  1.500                                             
  local pseudopotential read in
  partial core-charges read in
  partial kinetic energy density read in
  atomic valenz-charges read in
  non local Contribution for L=           0  read in
    real space projection operators read in
  non local Contribution for L=           0  read in
    real space projection operators read in
  non local Contribution for L=           1  read in
    real space projection operators read in
  non local Contribution for L=           1  read in
    real space projection operators read in
    PAW grid and wavefunctions read in
 
   number of l-projection  operators is LMAX  =           4
   number of lm-projection operators is LMMAX =           8
 
 POTCAR:    PAW_PBE N 08Apr2002                   
   SHA256 =  e053789ff3a61a86a1b75d8a110fcc91f86041011e7b0817c7c99e4e8a6349d7 N/
   COPYR  = (c) Copyright 08Apr2002 Georg Kresse                                
   COPYR  = This file is part of the software VASP. Any use, copying, and all ot
   COPYR  = If you do not have a valid VASP license, you may not use, copy or di
   VRHFIN =N: s2p3                                                              
   LEXCH  = PE                                                                  
   EATOM  =   264.5486 eV,   19.4438 Ry                                         
                                                                                
   TITEL  = PAW_PBE N 08Apr2002                                                 
   LULTRA =        F    use ultrasoft PP ?                                      
   IUNSCR =        1    unscreen: 0-lin 1-nonlin 2-no                           
   RPACOR =    1.200    partial core radius                                     
   POMASS =   14.001; ZVAL   =    5.000    mass and valenz                      
   RCORE  =    1.500    outmost cutoff radius                                   
   RWIGS  =    1.400; RWIGS  =    0.741    wigner-seitz radius (au A)           
   ENMAX  =  400.000; ENMIN  =  300.000 eV                                      
   ICORE  =        2    local potential                                         
   LCOR   =        T    correct aug charges                                     
   LPAW   =        T    paw PP                                                  
   EAUG   =  627.112                                                            
   DEXC   =    0.000                                                            
   RMAX   =    1.529    core radius for proj-oper                               
   RAUG   =    1.300    factor for augmentation sphere                          
   RDEP   =    1.514    radius for radial grids                                 
   RDEPT  =    1.338    core radius for aug-charge                              
                                                                                
   Atomic configuration                                                         
    4 entries                                                                   
     n  l   j            E        occ.                                          
     1  0  0.50      -384.7179   2.0000                                         
     2  0  0.50       -18.5828   2.0000                                         
     2  1  0.50        -7.0898   3.0000                                         
     3  2  1.50        -6.8029   0.0000                                         
   Description                                                                  
     l       E           TYP  RCUT    TYP  RCUT                                 
     0    -18.5828119     23  1.200                                             
     0    -13.5018863     23  1.200                                             
     1     -7.0897853     23  1.500                                             
     1      9.5240782     23  1.500                                             
     2     -6.8029130      7  1.500                                             
  local pseudopotential read in
  partial core-charges read in
  partial kinetic energy density read in
  atomic valenz-charges read in
  non local Contribution for L=           0  read in
    real space projection operators read in
  non local Contribution for L=           0  read in
    real space projection operators read in
  non local Contribution for L=           1  read in
    real space projection operators read in
  non local Contribution for L=           1  read in
    real space projection operators read in
    PAW grid and wavefunctions read in
 
   number of l-projection  operators is LMAX  =           4
   number of lm-projection operators is LMMAX =           8
 
 POTCAR:    PAW_PBE C 08Apr2002                   
   SHA256 =  253f7b50bb8d59471dbedb8285d89021f4a42ed1a2c5d38a03a736e69125dd95 C/
   COPYR  = (c) Copyright 08Apr2002 Georg Kresse                                
   COPYR  = This file is part of the software VASP. Any use, copying, and all ot
   COPYR  = If you do not have a valid VASP license, you may not use, copy or di
   VRHFIN =C: s2p2                                                              
   LEXCH  = PE                                                                  
   EATOM  =   147.1560 eV,   10.8157 Ry                                         
                                                                                
   TITEL  = PAW_PBE C 08Apr2002                                                 
   LULTRA =        F    use ultrasoft PP ?                                      
   IUNSCR =        1    unscreen: 0-lin 1-nonlin 2-no                           
   RPACOR =    1.200    partial core radius                                     
   POMASS =   12.011; ZVAL   =    4.000    mass and valenz                      
   RCORE  =    1.500    outmost cutoff radius                                   
   RWIGS  =    1.630; RWIGS  =    0.863    wigner-seitz radius (au A)           
   ENMAX  =  400.000; ENMIN  =  300.000 eV                                      
   ICORE  =        2    local potential                                         
   LCOR   =        T    correct aug charges                                     
   LPAW   =        T    paw PP                                                  
   EAUG   =  644.873                                                            
   DEXC   =    0.000                                                            
   RMAX   =    1.529    core radius for proj-oper                               
   RAUG   =    1.300    factor for augmentation sphere                          
   RDEP   =    1.501    radius for radial grids                                 
   RDEPT  =    1.300    core radius for aug-charge                              
                                                                                
   Atomic configuration                                                         
    4 entries                                                                   
     n  l   j            E        occ.                                          
     1  0  0.50      -273.3789   2.0000                                         
     2  0  0.50       -13.7508   2.0000                                         
     2  1  0.50        -5.2854   2.0000                                         
     3  2  1.50        -5.4423   0.0000                                         
   Description                                                                  
     l       E           TYP  RCUT    TYP  RCUT                                 
     0    -13.7508458     23  1.200                                             
     0     -8.2022199     23  1.200                                             
     1     -5.2854383     23  1.500                                             
     1     34.0145650     23  1.500                                             
     2     -5.4423304      7  1.500                                             
  local pseudopotential read in
  partial core-charges read in
  partial kinetic energy density read in
  atomic valenz-charges read in
  non local Contribution for L=           0  read in
    real space projection operators read in
  non local Contribution for L=           0  read in
    real space projection operators read in
  non local Contribution for L=           1  read in
    real space projection operators read in
  non local Contribution for L=           1  read in
    real space projection operators read in
    PAW grid and wavefunctions read in
 
   number of l-projection  operators is LMAX  =           4
   number of lm-projection operators is LMMAX =           8
 
 POTCAR:    PAW_PBE Cr_pv 02Aug2007               
   SHA256 =  c9a7df34d3cdbacf1090e328ef39c0b420964e11c23f63548d1ac9dd218cdba0 Cr
   COPYR  = (c) Copyright 02Aug2007 Georg Kresse                                
   COPYR  = This file is part of the software VASP. Any use, copying, and all ot
   COPYR  = If you do not have a valid VASP license, you may not use, copy or di
   VRHFIN =Cr : p6d5s1                                                          
   LEXCH  = PE                                                                  
   EATOM  =  1647.9177 eV,  121.1185 Ry                                         
                                                                                
   TITEL  = PAW_PBE Cr_pv 02Aug2007                                             
   LULTRA =        F    use ultrasoft PP ?                                      
   IUNSCR =        1    unscreen: 0-lin 1-nonlin 2-no                           
   RPACOR =    2.080    partial core radius                                     
   POMASS =   51.996; ZVAL   =   12.000    mass and valenz                      
   RCORE  =    2.300    outmost cutoff radius                                   
   RWIGS  =    2.500; RWIGS  =    1.323    wigner-seitz radius (au A)           
   ENMAX  =  265.681; ENMIN  =  199.261 eV                                      
   ICORE  =        3    local potential                                         
   LCOR   =        T    correct aug charges                                     
   LPAW   =        T    paw PP                                                  
   EAUG   =  519.424                                                            
   DEXC   =    0.000                                                            
   RMAX   =    2.356    core radius for proj-oper                               
   RAUG   =    1.300    factor for augmentation sphere                          
   RDEP   =    2.447    radius for radial grids                                 
   RDEPT  =    1.882    core radius for aug-charge                              
                                                                                
   Atomic configuration                                                         
    8 entries                                                                   
     n  l   j            E        occ.                                          
     1  0  0.50     -5880.4963   2.0000                                         
     2  0  0.50      -667.0865   2.0000                                         
     2  1  1.50      -560.6250   6.0000                                         
     3  0  0.50       -73.9860   2.0000                                         
     3  1  1.50       -45.4378   6.0000                                         
     3  2  2.50        -2.9137   5.0000                                         
     4  0  0.50        -4.0071   1.0000                                         
     4  3  2.50        -1.3606   0.0000                                         
   Description                                                                  
     l       E           TYP  RCUT    TYP  RCUT                                 
     1    -45.4377911     23  2.000                                             
     1      1.3605826     23  2.000                                             
     2     -2.9136672     23  2.300                                             
     2     -4.2742498     23  2.300                                             
     0     -4.0071320     23  2.300                                             
     0      9.4498803     23  2.300                                             
     3      2.7211652     23  2.300                                             
  local pseudopotential read in
  partial core-charges read in
  partial kinetic energy density read in
  atomic valenz-charges read in
  non local Contribution for L=           1  read in
    real space projection operators read in
  non local Contribution for L=           1  read in
    real space projection operators read in
  non local Contribution for L=           2  read in
    real space projection operators read in
  non local Contribution for L=           2  read in
    real space projection operators read in
  non local Contribution for L=           0  read in
    real space projection operators read in
  non local Contribution for L=           0  read in
    real space projection operators read in
    PAW grid and wavefunctions read in
 
   number of l-projection  operators is LMAX  =           6
   number of lm-projection operators is LMMAX =          18
 
 Optimization of the real space projectors (new method)

 maximal supplied QI-value         = 25.13
 optimisation between [QCUT,QGAM] = [ 11.81, 23.88] = [ 39.08,159.64] Ry 
 Optimized for a Real-space Cutoff    1.18 Angstroem

   l    n(q)    QCUT    max X(q) W(low)/X(q) W(high)/X(q)  e(spline) 
   0      8    11.813   115.676    0.10E-03    0.16E-03    0.35E-06
   0      8    11.813    87.132    0.10E-03    0.16E-03    0.35E-06
   1      8    11.813     4.429    0.16E-03    0.13E-04    0.22E-06
   1      8    11.813     2.733    0.13E-03    0.10E-04    0.18E-06
 Optimization of the real space projectors (new method)

 maximal supplied QI-value         = 25.13
 optimisation between [QCUT,QGAM] = [ 11.81, 23.88] = [ 39.08,159.64] Ry 
 Optimized for a Real-space Cutoff    1.41 Angstroem

   l    n(q)    QCUT    max X(q) W(low)/X(q) W(high)/X(q)  e(spline) 
   0     10    11.813    79.467    0.48E-04    0.30E-04    0.67E-06
   0     10    11.813    66.151    0.47E-04    0.30E-04    0.67E-06
   1     10    11.813    20.169    0.11E-03    0.17E-03    0.11E-05
   1     10    11.813    14.454    0.11E-03    0.17E-03    0.11E-05
 Optimization of the real space projectors (new method)

 maximal supplied QI-value         = 25.13
 optimisation between [QCUT,QGAM] = [ 11.81, 23.88] = [ 39.08,159.64] Ry 
 Optimized for a Real-space Cutoff    1.18 Angstroem

   l    n(q)    QCUT    max X(q) W(low)/X(q) W(high)/X(q)  e(spline) 
   0      8    11.813   115.676    0.10E-03    0.16E-03    0.35E-06
   0      8    11.813    87.132    0.10E-03    0.16E-03    0.35E-06
   1      8    11.813     4.429    0.16E-03    0.13E-04    0.22E-06
   1      8    11.813     2.733    0.13E-03    0.10E-04    0.18E-06
 Optimization of the real space projectors (new method)

 maximal supplied QI-value         = 16.25
 optimisation between [QCUT,QGAM] = [ 11.86, 23.89] = [ 39.41,159.82] Ry 
 Optimized for a Real-space Cutoff    1.33 Angstroem

   l    n(q)    QCUT    max X(q) W(low)/X(q) W(high)/X(q)  e(spline) 
   1      9    11.864     3.262    0.48E-04    0.16E-03    0.14E-06
   1      9    11.864     5.741    0.74E-04    0.40E-03    0.35E-06
   2      9    11.864    60.438    0.17E-03    0.21E-03    0.26E-06
   2      9    11.864    55.380    0.17E-03    0.21E-03    0.27E-06
   0      9    11.864    80.273    0.40E-04    0.47E-04    0.12E-06
   0      9    11.864    36.654    0.35E-04    0.41E-04    0.11E-06
  PAW_PBE C 08Apr2002                   :
 energy of atom  1       EATOM= -147.1560
 kinetic energy error for atom=    0.0066 (will be added to EATOM!!)
  PAW_PBE N 08Apr2002                   :
 energy of atom  2       EATOM= -264.5486
 kinetic energy error for atom=    0.0116 (will be added to EATOM!!)
  PAW_PBE C 08Apr2002                   :
 energy of atom  3       EATOM= -147.1560
 kinetic energy error for atom=    0.0066 (will be added to EATOM!!)
  PAW_PBE Cr_pv 02Aug2007               :
 energy of atom  4       EATOM=-1647.9177
 kinetic energy error for atom=    0.0054 (will be added to EATOM!!)
 
 
 POSCAR: POSCAR-clean                            
  positions in cartesian coordinates
  No initial velocities read in
 exchange correlation table for  LEXCH =        8
   RHO(1)=    0.500       N(1)  =     2000
   RHO(2)=  100.500       N(2)  =     4000
 


--------------------------------------------------------------------------------------------------------


 ion  position               nearest neighbor table
   1  0.000  1.000  0.498-   2 1.42  60 1.42  70 1.43
   2  0.056  0.111  0.498-   1 1.42  13 1.42  15 1.43
   3  0.168  0.002  0.498-   4 1.42  62 1.43  60 1.43
   4  0.224  0.113  0.498-   3 1.42  15 1.42  17 1.44
   5  0.334  0.002  0.498-   6 1.42  62 1.43  64 1.43
   6  0.390  0.113  0.498-   5 1.42  19 1.42  17 1.44
   7  0.500  1.000  0.498-   8 1.42  64 1.42  66 1.43
   8  0.556  0.111  0.498-   7 1.42  21 1.42  19 1.43
   9  0.666  0.998  0.498-  10 1.42  66 1.42  68 1.44
  10  0.722  0.109  0.498-   9 1.42  23 1.43  21 1.43
  11  0.832  0.998  0.498-  12 1.42  70 1.42  68 1.44
  12  0.888  0.109  0.498-  11 1.42  23 1.43  13 1.43
  13  0.999  0.165  0.498-  14 1.42   2 1.42  12 1.43
  14  0.054  0.277  0.499-  13 1.42  25 1.42  27 1.43
  15  0.167  0.168  0.498-  16 1.42   4 1.42   2 1.43
  16  0.223  0.280  0.500-  15 1.42  27 1.43  29 1.44
  17  0.335  0.170  0.499-  18 1.42   4 1.44   6 1.44
  18  0.391  0.281  0.503-  17 1.42  31 1.44  29 1.44
  19  0.501  0.168  0.498-  20 1.42   6 1.42   8 1.43
  20  0.557  0.280  0.500-  19 1.42  33 1.43  31 1.44
  21  0.667  0.165  0.498-  22 1.42   8 1.42  10 1.43
  22  0.723  0.277  0.498-  21 1.42  35 1.42  33 1.43
  23  0.833  0.165  0.498-  24 1.42  10 1.43  12 1.43
  24  0.888  0.276  0.498-  23 1.42  25 1.42  35 1.43
  25  0.999  0.332  0.498-  14 1.42  26 1.42  24 1.42
  26  0.054  0.444  0.499-  39 1.42  37 1.42  25 1.42
  27  0.165  0.333  0.500-  28 1.42  16 1.43  14 1.43
  28  0.219  0.444  0.502-  41 1.41  27 1.42  39 1.42
  29  0.335  0.338  0.503-  30 1.41  18 1.44  16 1.44
  30  0.387  0.448  0.510-  41 1.41  29 1.41  71 2.00
  31  0.503  0.338  0.504-  32 1.41  18 1.44  20 1.44
  32  0.562  0.448  0.510-  43 1.41  31 1.41  71 2.00
  33  0.668  0.333  0.500-  34 1.42  20 1.43  22 1.43
  34  0.725  0.444  0.501-  43 1.41  33 1.42  45 1.42
  35  0.833  0.332  0.498-  22 1.42  36 1.42  24 1.43
  36  0.890  0.444  0.498-  45 1.42  37 1.42  35 1.42
  37  0.000  0.500  0.498-  36 1.42  26 1.42  38 1.42
  38  0.056  0.611  0.498-  47 1.42  49 1.42  37 1.42
  39  0.165  0.500  0.500-  26 1.42  28 1.42  40 1.42
  40  0.220  0.611  0.500-  49 1.42  51 1.42  39 1.42
  41  0.329  0.499  0.505-  30 1.41  28 1.41  42 1.44
  42  0.385  0.612  0.505-  53 1.41  51 1.41  41 1.44
  43  0.671  0.499  0.505-  32 1.41  34 1.41  44 1.44
  44  0.727  0.612  0.505-  55 1.41  57 1.41  43 1.44
  45  0.836  0.500  0.499-  36 1.42  34 1.42  46 1.42
  46  0.891  0.611  0.499-  47 1.42  57 1.42  45 1.42
  47  0.001  0.667  0.498-  46 1.42  38 1.42  48 1.42
  48  0.057  0.779  0.498-  59 1.42  47 1.42  61 1.43
  49  0.166  0.667  0.499-  40 1.42  38 1.42  50 1.42
  50  0.222  0.779  0.498-  63 1.42  49 1.42  61 1.42
  51  0.331  0.667  0.502-  42 1.41  52 1.42  40 1.42
  52  0.388  0.778  0.500-  51 1.42  65 1.43  63 1.43
  53  0.494  0.663  0.510-  42 1.41  54 1.41  71 2.00
  54  0.553  0.773  0.503-  53 1.41  67 1.44  65 1.44
  55  0.669  0.663  0.510-  44 1.41  56 1.41  71 2.00
  56  0.721  0.773  0.504-  55 1.41  67 1.44  69 1.44
  57  0.837  0.667  0.501-  44 1.41  58 1.42  46 1.42
  58  0.891  0.778  0.500-  57 1.42  69 1.42  59 1.43
  59  0.002  0.835  0.498-  60 1.42  48 1.42  58 1.43
  60  0.057  0.946  0.498-  59 1.42   1 1.42   3 1.43
  61  0.168  0.835  0.498-  62 1.42  50 1.42  48 1.43
  62  0.223  0.946  0.498-  61 1.42   3 1.43   5 1.43
  63  0.333  0.835  0.499-  64 1.42  50 1.42  52 1.43
  64  0.389  0.946  0.498-  63 1.42   7 1.42   5 1.43
  65  0.499  0.832  0.500-  66 1.42  52 1.43  54 1.44
  66  0.555  0.943  0.498-  65 1.42   9 1.42   7 1.43
  67  0.665  0.830  0.503-  68 1.42  56 1.44  54 1.44
  68  0.721  0.941  0.499-  67 1.42   9 1.44  11 1.44
  69  0.833  0.832  0.500-  70 1.42  58 1.42  56 1.44
  70  0.889  0.943  0.498-  69 1.42  11 1.42   1 1.43
  71  0.528  0.556  0.554-  55 2.00  32 2.00  53 2.00  30 2.00
 

IMPORTANT INFORMATION: All symmetrisations will be switched off!
NOSYMM: (Re-)initialisation of all symmetry stuff for point group C_1.

 
 
 KPOINTS: K-Points                                

Automatic generation of k-mesh.
Space group operators:
 irot       det(A)        alpha          n_x          n_y          n_z        tau_x        tau_y        tau_z
    1     1.000000     0.000000     1.000000     0.000000     0.000000     0.000000     0.000000     0.000000
 
 Subroutine IBZKPT returns following result:
 ===========================================
 
 Found      4 irreducible k-points:
 
 Following reciprocal coordinates:
            Coordinates               Weight
  0.000000  0.000000  0.000000      1.000000
  0.500000  0.000000  0.000000      1.000000
 -0.000000  0.500000  0.000000      1.000000
  0.500000  0.500000  0.000000      1.000000
 
 Following cartesian coordinates:
            Coordinates               Weight
  0.000000  0.000000  0.000000      1.000000
  0.033606  0.019589  0.000000      1.000000
 -0.000000  0.039178  0.000000      1.000000
  0.033606  0.058767  0.000000      1.000000
 


--------------------------------------------------------------------------------------------------------




 Dimension of arrays:
   k-points           NKPTS =      4   k-points in BZ     NKDIM =      4   number of bands    NBANDS=    184
   number of dos      NEDOS =    301   number of ions     NIONS =     71
   non local maximal  LDIM  =      6   non local SUM 2l+1 LMDIM =     18
   total plane-waves  NPLWV = ******
   max r-space proj   IRMAX =   7110   max aug-charges    IRDMAX=  21308
   dimension x,y,z NGX =   120 NGY =  120 NGZ =  120
   dimension x,y,z NGXF=   240 NGYF=  240 NGZF=  240
   support grid    NGXF=   240 NGYF=  240 NGZF=  240
   ions per type =              67   1   2   1
   NGX,Y,Z   is equivalent  to a cutoff of  13.41, 13.50, 13.30 a.u.
   NGXF,Y,Z  is equivalent  to a cutoff of  26.82, 27.01, 26.60 a.u.

 SYSTEM =  unknown system                          
 POSCAR =  POSCAR-clean                            

 Startparameter for this run:
   NWRITE =      2    write-flag & timer
   PREC   = accura    normal or accurate (medium, high low for compatibility)
   ISTART =      0    job   : 0-new  1-cont  2-samecut
   ICHARG =      2    charge: 1-file 2-atom 10-const
   ISPIN  =      2    spin polarized calculation?
   LNONCOLLINEAR =      F non collinear calculations
   LSORBIT =      F    spin-orbit coupling
   INIWAV =      1    electr: 0-lowe 1-rand  2-diag
   LASPH  =      F    aspherical Exc in radial PAW
   METAGGA=      F    non-selfconsistent MetaGGA calc.

 Electronic Relaxation 1
   ENCUT  =  550.0 eV  40.42 Ry    6.36 a.u.  28.45 28.25 28.68*2*pi/ulx,y,z
   ENINI  =  550.0     initial cutoff
   ENAUG  =  644.9 eV  augmentation charge cutoff
   NELM   =     50;   NELMIN=  2; NELMDL= -5     # of ELM steps 
   EDIFF  = 0.1E-04   stopping-criterion for ELM
   LREAL  =      T    real-space projection
   NLSPLINE    = F    spline interpolate recip. space projectors
   LCOMPAT=      F    compatible to vasp.4.4
   GGA_COMPAT  = T    GGA compatible to vasp.4.4-vasp.4.6
   LMAXPAW     = -100 max onsite density
   LMAXMIX     =    2 max onsite mixed and CHGCAR
   VOSKOWN=      0    Vosko Wilk Nusair interpolation
   ROPT   =   -0.00025  -0.00025  -0.00025  -0.00025
 Ionic relaxation
   EDIFFG = -.5E-01   stopping-criterion for IOM
   NSW    =    400    number of steps for IOM
   NBLOCK =      1;   KBLOCK =    400    inner block; outer block 
   IBRION =      2    ionic relax: 0-MD 1-quasi-New 2-CG
   NFREE  =      1    steps in history (QN), initial steepest desc. (CG)
   ISIF   =      3    stress and relaxation
   IWAVPR =     11    prediction:  0-non 1-charg 2-wave 3-comb
   ISYM   =      0    0-nonsym 1-usesym 2-fastsym
   LCORR  =      T    Harris-Foulkes like correction to forces

   POTIM  = 0.3000    time-step for ionic-motion
   TEIN   =    0.0    initial temperature
   TEBEG  =    0.0;   TEEND  =   0.0 temperature during run
   SMASS  =  -3.00    Nose mass-parameter (am)
   estimated Nose-frequenzy (Omega)   =  0.10E-29 period in steps =****** mass=  -0.506E-26a.u.
   SCALEE = 1.0000    scale energy and forces
   NPACO  =    256;   APACO  = 16.0  distance and # of slots for P.C.
   PSTRESS=    0.0 pullay stress

  Mass of Ions in am
   POMASS =  12.01 14.00 12.01 52.00
  Ionic Valenz
   ZVAL   =   4.00  5.00  4.00 12.00
  Atomic Wigner-Seitz radii
   RWIGS  =  -1.00 -1.00 -1.00 -1.00
  virtual crystal weights 
   VCA    =   1.00  1.00  1.00  1.00
   NELECT =     293.0000    total number of electrons
   NUPDOWN=      -1.0000    fix difference up-down

 DOS related values:
   EMIN   =  10.00;   EMAX   =-10.00  energy-range for DOS
   EFERMI =   0.00
   ISMEAR =     0;   SIGMA  =   0.10  broadening in eV -4-tet -1-fermi 0-gaus

 Electronic relaxation 2 (details)
   IALGO  =     68    algorithm
   LDIAG  =      T    sub-space diagonalisation (order eigenvalues)
   LSUBROT=      F    optimize rotation matrix (better conditioning)
   TURBO    =      0    0=normal 1=particle mesh
   IRESTART =      0    0=no restart 2=restart with 2 vectors
   NREBOOT  =      0    no. of reboots
   NMIN     =      0    reboot dimension
   EREF     =   0.00    reference energy to select bands
   IMIX   =      4    mixing-type and parameters
     AMIX     =   0.40;   BMIX     =  1.00
     AMIX_MAG =   1.60;   BMIX_MAG =  1.00
     AMIN     =   0.10
     WC   =   100.;   INIMIX=   1;  MIXPRE=   1;  MAXMIX= -45

 Intra band minimization:
   WEIMIN = 0.0010     energy-eigenvalue tresh-hold
   EBREAK =  0.14E-07  absolut break condition
   DEPER  =   0.30     relativ break condition  

   TIME   =   0.40     timestep for ELM

  volume/ion in A,a.u.               =      40.12       270.71
  Fermi-wavevector in a.u.,A,eV,Ry     =   0.767079  1.449569  8.005805  0.588410
  Thomas-Fermi vector in A             =   1.867557
 
 Write flags
   LWAVE        =      F    write WAVECAR
   LDOWNSAMPLE  =      F    k-point downsampling of WAVECAR
   LCHARG       =      F    write CHGCAR
   LVTOT        =      F    write LOCPOT, total local potential
   LVHAR        =      F    write LOCPOT, Hartree potential only
   LELF         =      F    write electronic localiz. function (ELF)
   LORBIT       =      0    0 simple, 1 ext, 2 COOP (PROOUT), +10 PAW based schemes


 Dipole corrections
   LMONO  =      F    monopole corrections only (constant potential shift)
   LDIPOL =      F    correct potential (dipole corrections)
   IDIPOL =      0    1-x, 2-y, 3-z, 4-all directions 
   EPSILON=  1.0000000 bulk dielectric constant

 Exchange correlation treatment:
   GGA     =    --    GGA type
   LEXCH   =     8    internal setting for exchange type
   VOSKOWN=      0    Vosko Wilk Nusair interpolation
   LHFCALC =     F    Hartree Fock is set to
   LHFONE  =     F    Hartree Fock one center treatment
   AEXX    =    0.0000 exact exchange contribution

 Linear response parameters
   LEPSILON=     F    determine dielectric tensor
   LRPA    =     F    only Hartree local field effects (RPA)
   LNABLA  =     F    use nabla operator in PAW spheres
   LVEL    =     F    velocity operator in full k-point grid
   LINTERFAST=   F  fast interpolation
   KINTER  =     0    interpolate to denser k-point grid
   CSHIFT  =0.1000    complex shift for real part using Kramers Kronig
   OMEGAMAX=  -1.0    maximum frequency
   DEG_THRESHOLD= 0.2000000E-02 threshold for treating states as degnerate
   RTIME   =   -0.100 relaxation time in fs
  (WPLASMAI=    0.000 imaginary part of plasma frequency in eV, 0.658/RTIME)
   DFIELD  = 0.0000000 0.0000000 0.0000000 field for delta impulse in time
 
 Orbital magnetization related:
   ORBITALMAG=     F  switch on orbital magnetization
   LCHIMAG   =     F  perturbation theory with respect to B field
   DQ        =  0.001000  dq finite difference perturbation B field
   LLRAUG    =     F  two centre corrections for induced B field



--------------------------------------------------------------------------------------------------------


 conjugate gradient relaxation of ions
 charge density and potential will be updated during run
 spin polarized calculation
 RMM-DIIS sequential band-by-band and
  variant of blocked Davidson during initial phase
 perform sub-space diagonalisation
    before iterative eigenvector-optimisation
 modified Broyden-mixing scheme, WC =      100.0
 initial mixing is a Kerker type mixing with AMIX =  0.4000 and BMIX =      1.0000
 Hartree-type preconditioning will be used
 using additional bands           37
 real space projection scheme for non local part
 use partial core corrections
 calculate Harris-corrections to forces 
   (improved forces if not selfconsistent)
 use gradient corrections 
 use of overlap-Matrix (Vanderbilt PP)
 Gauss-broadening in eV      SIGMA  =   0.10


--------------------------------------------------------------------------------------------------------


  energy-cutoff  :      550.00
  volume of cell :     2848.21
      direct lattice vectors                 reciprocal lattice vectors
    14.878307727  0.000105424  0.000000000     0.067211667  0.039178051  0.000000000
    -7.439153864 12.762195204  0.000000000    -0.000000555  0.078356102  0.000000000
     0.000000000  0.000000000 15.000000000     0.000000000  0.000000000  0.066666667

  length of vectors
    14.878307728 14.772089786 15.000000000     0.077796709  0.078356102  0.066666667


 
 k-points in units of 2pi/SCALE and weight: K-Points                                
   0.00000000  0.00000000  0.00000000       0.250
   0.03360583  0.01958903  0.00000000       0.250
  -0.00000028  0.03917805  0.00000000       0.250
   0.03360556  0.05876708  0.00000000       0.250
 
 k-points in reciprocal lattice and weights: K-Points                                
   0.00000000  0.00000000  0.00000000       0.250
   0.50000000  0.00000000  0.00000000       0.250
  -0.00000000  0.50000000  0.00000000       0.250
   0.50000000  0.50000000  0.00000000       0.250
 
 position of ions in fractional coordinates (direct lattice) 
   0.00014703  0.99993181  0.49766807
   0.05571316  0.11129367  0.49774774
   0.16803225  0.00210520  0.49753985
   0.22355821  0.11343998  0.49825115
   0.33432830  0.00207694  0.49777234
   0.39014706  0.11341551  0.49841838
   0.50002407  0.99989044  0.49775648
   0.55582710  0.11125266  0.49767590
   0.66571506  0.99774295  0.49825147
   0.72152612  0.10907882  0.49753824
   0.83231512  0.99776674  0.49841003
   0.88783929  0.10910686  0.49776801
   0.99908442  0.16549374  0.49784405
   0.05430809  0.27667161  0.49853746
   0.16734775  0.16806595  0.49834347
   0.22284185  0.27957445  0.49997583
   0.33528932  0.17029644  0.49941211
   0.39084341  0.28141813  0.50254970
   0.50097822  0.16802960  0.49842000
   0.55697129  0.27954076  0.49998817
   0.66664919  0.16545038  0.49752014
   0.72257294  0.27663324  0.49802908
   0.83255361  0.16485921  0.49764969
   0.88821716  0.27620991  0.49780056
   0.99906908  0.33222521  0.49838447
   0.05442247  0.44382388  0.49884723
   0.16531768  0.33288444  0.50001215
   0.21898612  0.44382270  0.50165224
   0.33514858  0.33773328  0.50339031
   0.38694525  0.44827387  0.50958670
   0.50284791  0.33770682  0.50360105
   0.56160602  0.44823797  0.50998391
   0.66778145  0.33285443  0.49963749
   0.72504010  0.44380782  0.50114295
   0.83335701  0.33221195  0.49791518
   0.88957865  0.44380677  0.49825237
   0.00003314  0.49990030  0.49835048
   0.05573614  0.61130743  0.49834565
   0.16452790  0.49985599  0.50032235
   0.22027264  0.61134265  0.50031499
   0.32877881  0.49923631  0.50514604
   0.38513300  0.61194665  0.50514739
   0.67071104  0.49923365  0.50517220
   0.72707059  0.61195035  0.50517224
   0.83551700  0.49986026  0.49948453
   0.89125350  0.61133457  0.49948422
   0.00136430  0.66739252  0.49824937
   0.05673614  0.77898562  0.49790902
   0.16620335  0.66738054  0.49883406
   0.22244721  0.77897560  0.49837060
   0.33076298  0.66736579  0.50164604
   0.38803591  0.77830247  0.50000539
   0.49425975  0.66291375  0.50958718
   0.55300964  0.77344715  0.50338828
   0.66896610  0.66295341  0.50998288
   0.72073432  0.77348097  0.50359479
   0.83682433  0.66738081  0.50114212
   0.89051054  0.77833045  0.49963539
   0.00151950  0.83455528  0.49802741
   0.05677874  0.94573836  0.49751926
   0.16759972  0.83498348  0.49779087
   0.22328727  0.94632847  0.49764984
   0.33324173  0.83452222  0.49853136
   0.38919606  0.94569806  0.49784785
   0.49886656  0.83160652  0.49997424
   0.55488261  0.94311446  0.49834783
   0.66501623  0.82976534  0.50254304
   0.72058356  0.94088512  0.49940688
   0.83301728  0.83164625  0.49998031
   0.88852543  0.94315192  0.49840894
   0.52788678  0.55561308  0.55407295
 
 position of ions in cartesian coordinates  (Angst):
  -7.43645893 12.76132490  7.46502101
   0.00098677  1.42035737  7.46621609
   2.48437460  0.02688469  7.46309769
   2.48227038  1.44776676  7.47376727
   4.95878870  0.02654158  7.46658504
   4.96101252  1.44747206  7.47627575
   0.00117320 12.76084966  7.46634727
   7.44214093  1.41988678  7.46513856
   2.48235028 12.73346045  7.47377203
   9.92363354  1.39216125  7.46307356
   4.96090025 12.73378160  7.47615045
  12.39788345  1.39253665  7.46652020
  13.63355202  2.11216869  7.46766080
  -1.25019027  3.53094287  7.47806186
   1.23958287  2.14490807  7.47515208
   1.23571236  3.56800714  7.49963746
   3.72167632  2.17339173  7.49118168
   3.72157576  3.59155433  7.53824552
   6.20371007  2.14447940  7.47630003
   6.20724356  3.56761241  7.49982262
   8.68780104  2.11158030  7.46280215
   8.69274532  3.53052356  7.47043619
  11.16057575  2.10405319  7.46474541
  11.16040021  3.52513843  7.46700843
  12.39298273  4.24002833  7.47576708
  -2.49195986  5.66417272  7.48270852
  -0.01673121  4.24835367  7.50018218
  -0.04352248  5.66417505  7.52478359
   2.47399392  4.31025334  7.55085470
   2.42231217  5.72099937  7.64380057
   4.96927299  4.30993342  7.55401582
   5.02123589  5.72055973  7.64975858
   7.45930259  4.24802358  7.49456242
   7.48581505  5.66403852  7.51714419
   9.92756627  4.23984160  7.46872767
   9.93387816  5.66404236  7.47378561
  -3.71834223  6.37982525  7.47525727
  -3.71835051  7.80163060  7.47518475
  -1.27060894  6.37927707  7.50483528
  -1.27058799  7.80209747  7.50472492
   1.17777658  6.37138591  7.57719062
   1.17776199  7.80982318  7.57721079
   6.26516932  6.37138797  7.57758296
   6.26518706  7.80990654  7.57758361
   8.71254167  6.37940228  7.49226792
   8.71253189  7.80206507  7.49226324
  -4.94453714  8.51739379  7.47374059
  -4.95085604  9.94157246  7.46863529
  -2.49192199  8.51725823  7.48251084
  -2.48528121  9.94146208  7.47555906
  -0.04344336  8.51708741  7.52469062
  -0.01659412  9.93288892  7.50008080
   2.42223119  8.46028680  7.64380763
   2.47405524  9.87094181  7.55082413
   5.02127100  8.46081135  7.64974323
   4.96926315  9.87139105  7.55392179
   7.48578134  8.51733237  7.51713176
   7.45916989  9.93329897  7.49453080
  -6.18577746 10.65075751  7.47041111
  -6.19072161 12.06970350  7.46278894
  -3.71797037 10.65623981  7.46686302
  -3.71774635 12.07725221  7.46474766
  -1.25006613 10.65037063  7.47797042
  -1.24461459 12.06922431  7.46771775
   1.23584141 10.61317732  7.49961357
   1.23974067 12.03626939  7.47521740
   3.72156413 10.58969736  7.53814562
   3.72167477 12.00783549  7.49110317
   6.20714301 10.61371955  7.49970466
   6.20350242 12.03678263  7.47613410
   3.72077071  7.09089829  8.31109430
 


--------------------------------------------------------------------------------------------------------


 k-point  1 :   0.0000 0.0000 0.0000  plane waves:   83445
 k-point  2 :   0.5000 0.0000 0.0000  plane waves:   83448
 k-point  3 :  -0.0000 0.5000 0.0000  plane waves:   83436
 k-point  4 :   0.5000 0.5000 0.0000  plane waves:   83444

 maximum and minimum number of plane-waves per node :      6984     6935

 maximum number of plane-waves:     83448
 maximum index in each direction: 
   IXMAX=   28   IYMAX=   28   IZMAX=   28
   IXMIN=  -28   IYMIN=  -28   IZMIN=  -28


 real space projection operators:
  total allocation   :      18578.80 KBytes
  max/ min on nodes  :       1558.23       1534.84


 parallel 3D FFT for wavefunctions:
    minimum data exchange during FFTs selected (reduces bandwidth)
 parallel 3D FFT for charge:
    minimum data exchange during FFTs selected (reduces bandwidth)


 total amount of memory used by VASP MPI-rank0   135460. kBytes
=======================================================================

   base      :      30000. kBytes
   nonlr-proj:      10471. kBytes
   fftplans  :      14072. kBytes
   grid      :      39398. kBytes
   one-center:        186. kBytes
   wavefun   :      41333. kBytes
 
     INWAV:  cpu time    0.0001: real time    0.0002
 Broyden mixing: mesh for mixing (old mesh)
   NGX = 57   NGY = 57   NGZ = 57
  (NGX  =240   NGY  =240   NGZ  =240)
  gives a total of 185193 points

 initial charge density was supplied:
 charge density of overlapping atoms calculated
 number of electron     293.0000000 magnetization       1.0000000
 keeping initial charge density in first step


--------------------------------------------------------------------------------------------------------


 Maximum index for non-local projection operator          558
 Maximum index for augmentation-charges          402 (set IRDMAX)


--------------------------------------------------------------------------------------------------------


 First call to EWALD:  gamma=   0.125
 Maximum number of real-space cells 3x 3x 3
 Maximum number of reciprocal cells 3x 3x 3

    FEWALD:  cpu time    0.0039: real time    0.0041


--------------------------------------- Iteration      1(   1)  ---------------------------------------


    POTLOK:  cpu time    0.4691: real time    0.4928
    SETDIJ:  cpu time    0.0174: real time    0.0297
     EDDAV:  cpu time   17.2377: real time   17.4328
       DOS:  cpu time    0.0010: real time    0.0010
    --------------------------------------------
      LOOP:  cpu time   17.7252: real time   17.9564

 eigenvalue-minimisations  :  3256
 total energy-change (2. order) : 0.2735450E+04  (-0.1174001E+05)
 number of electron     293.0000000 magnetization       1.0000000
 augmentation part      293.0000000 magnetization       1.0000000

 Free energy of the ion-electron system (eV)
  ---------------------------------------------------
  alpha Z        PSCENC =       156.95040625
  Ewald energy   TEWEN  =     30374.80174003
  -Hartree energ DENC   =    -39540.82935632
  -exchange      EXHF   =         0.00000000
  -V(xc)+E(xc)   XCENC  =       982.53442430
  PAW double counting   =      9000.30529238    -9089.18527416
  entropy T*S    EENTRO =        -0.11082485
  eigenvalues    EBANDS =     -1214.77460299
  atomic energy  EATOM  =     12065.75791449
  Solvation  Ediel_sol  =         0.00000000
  ---------------------------------------------------
  free energy    TOTEN  =      2735.44971914 eV

  energy without entropy =     2735.56054398  energy(sigma->0) =     2735.50513156


--------------------------------------------------------------------------------------------------------




--------------------------------------- Iteration      1(   2)  ---------------------------------------


     EDDAV:  cpu time   21.9614: real time   22.1672
       DOS:  cpu time    0.0010: real time    0.0010
    --------------------------------------------
      LOOP:  cpu time   21.9623: real time   22.1682

 eigenvalue-minimisations  :  4296
 total energy-change (2. order) :-0.2908335E+04  (-0.2778872E+04)
 number of electron     293.0000000 magnetization       1.0000000
 augmentation part      293.0000000 magnetization       1.0000000

 Free energy of the ion-electron system (eV)
  ---------------------------------------------------
  alpha Z        PSCENC =       156.95040625
  Ewald energy   TEWEN  =     30374.80174003
  -Hartree energ DENC   =    -39540.82935632
  -exchange      EXHF   =         0.00000000
  -V(xc)+E(xc)   XCENC  =       982.53442430
  PAW double counting   =      9000.30529238    -9089.18527416
  entropy T*S    EENTRO =        -0.02715923
  eigenvalues    EBANDS =     -4123.19352602
  atomic energy  EATOM  =     12065.75791449
  Solvation  Ediel_sol  =         0.00000000
  ---------------------------------------------------
  free energy    TOTEN  =      -172.88553828 eV

  energy without entropy =     -172.85837905  energy(sigma->0) =     -172.87195866


--------------------------------------------------------------------------------------------------------




--------------------------------------- Iteration      1(   3)  ---------------------------------------


     EDDAV:  cpu time   18.8470: real time   19.0958
       DOS:  cpu time    0.0010: real time    0.0010
    --------------------------------------------
      LOOP:  cpu time   18.8479: real time   19.0967

 eigenvalue-minimisations  :  3552
 total energy-change (2. order) :-0.5113375E+03  (-0.5084278E+03)
 number of electron     293.0000000 magnetization       1.0000000
 augmentation part      293.0000000 magnetization       1.0000000

 Free energy of the ion-electron system (eV)
  ---------------------------------------------------
  alpha Z        PSCENC =       156.95040625
  Ewald energy   TEWEN  =     30374.80174003
  -Hartree energ DENC   =    -39540.82935632
  -exchange      EXHF   =         0.00000000
  -V(xc)+E(xc)   XCENC  =       982.53442430
  PAW double counting   =      9000.30529238    -9089.18527416
  entropy T*S    EENTRO =        -0.03208442
  eigenvalues    EBANDS =     -4634.52613414
  atomic energy  EATOM  =     12065.75791449
  Solvation  Ediel_sol  =         0.00000000
  ---------------------------------------------------
  free energy    TOTEN  =      -684.22307159 eV

  energy without entropy =     -684.19098717  energy(sigma->0) =     -684.20702938


--------------------------------------------------------------------------------------------------------




--------------------------------------- Iteration      1(   4)  ---------------------------------------


     EDDAV:  cpu time   19.0571: real time   19.2486
       DOS:  cpu time    0.0009: real time    0.0010
    --------------------------------------------
      LOOP:  cpu time   19.0580: real time   19.2496

 eigenvalue-minimisations  :  3544
 total energy-change (2. order) :-0.1943757E+02  (-0.1929007E+02)
 number of electron     293.0000000 magnetization       1.0000000
 augmentation part      293.0000000 magnetization       1.0000000

 Free energy of the ion-electron system (eV)
  ---------------------------------------------------
  alpha Z        PSCENC =       156.95040625
  Ewald energy   TEWEN  =     30374.80174003
  -Hartree energ DENC   =    -39540.82935632
  -exchange      EXHF   =         0.00000000
  -V(xc)+E(xc)   XCENC  =       982.53442430
  PAW double counting   =      9000.30529238    -9089.18527416
  entropy T*S    EENTRO =        -0.03072750
  eigenvalues    EBANDS =     -4653.96506533
  atomic energy  EATOM  =     12065.75791449
  Solvation  Ediel_sol  =         0.00000000
  ---------------------------------------------------
  free energy    TOTEN  =      -703.66064585 eV

  energy without entropy =     -703.62991835  energy(sigma->0) =     -703.64528210


--------------------------------------------------------------------------------------------------------




--------------------------------------- Iteration      1(   5)  ---------------------------------------


     EDDAV:  cpu time   20.8631: real time   21.1218
       DOS:  cpu time    0.0010: real time    0.0010
    CHARGE:  cpu time    0.9731: real time    0.9882
    MIXING:  cpu time    0.0110: real time    0.0158
    --------------------------------------------
      LOOP:  cpu time   21.8481: real time   22.1268

 eigenvalue-minimisations  :  4072
 total energy-change (2. order) :-0.6247648E+00  (-0.6228177E+00)
 number of electron     292.9999999 magnetization       0.7744881
 augmentation part       11.6665067 magnetization       0.7611413

 Broyden mixing:
  rms(total) = 0.46525E+01    rms(broyden)= 0.46521E+01
  rms(prec ) = 0.54165E+01
  weight for this iteration     100.00

 Free energy of the ion-electron system (eV)
  ---------------------------------------------------
  alpha Z        PSCENC =       156.95040625
  Ewald energy   TEWEN  =     30374.80174003
  -Hartree energ DENC   =    -39540.82935632
  -exchange      EXHF   =         0.00000000
  -V(xc)+E(xc)   XCENC  =       982.53442430
  PAW double counting   =      9000.30529238    -9089.18527416
  entropy T*S    EENTRO =        -0.03148235
  eigenvalues    EBANDS =     -4654.58907524
  atomic energy  EATOM  =     12065.75791449
  Solvation  Ediel_sol  =         0.00000000
  ---------------------------------------------------
  free energy    TOTEN  =      -704.28541061 eV

  energy without entropy =     -704.25392827  energy(sigma->0) =     -704.26966944


--------------------------------------------------------------------------------------------------------




--------------------------------------- Iteration      1(   6)  ---------------------------------------


    POTLOK:  cpu time    0.5535: real time    0.5645
    SETDIJ:  cpu time    0.0150: real time    0.0155
    EDDIAG:  cpu time    3.3539: real time    3.3937
  RMM-DIIS:  cpu time   17.6213: real time   17.7780
    ORTHCH:  cpu time    0.2621: real time    0.2630
       DOS:  cpu time    0.0011: real time    0.0011
    CHARGE:  cpu time    1.0066: real time    1.0217
    MIXING:  cpu time    0.0094: real time    0.0103
    --------------------------------------------
      LOOP:  cpu time   22.8229: real time   23.0477

 eigenvalue-minimisations  :  4069
 total energy-change (2. order) :-0.2718765E+02  (-0.5262216E+02)
 number of electron     293.0000009 magnetization       0.7158036
 augmentation part       17.3326315 magnetization       0.9980150

 Broyden mixing:
  rms(total) = 0.83671E+01    rms(broyden)= 0.83670E+01
  rms(prec ) = 0.92449E+01
  weight for this iteration     100.00

 eigenvalues of (default mixing * dielectric matrix)
  average eigenvalue GAMMA=   0.2167
  0.2167

 Free energy of the ion-electron system (eV)
  ---------------------------------------------------
  alpha Z        PSCENC =       156.95040625
  Ewald energy   TEWEN  =     30374.80174003
  -Hartree energ DENC   =    -39833.22618639
  -exchange      EXHF   =         0.00000000
  -V(xc)+E(xc)   XCENC  =       996.30233204
  PAW double counting   =     15150.57288970   -15239.29642152
  entropy T*S    EENTRO =        -0.04099322
  eigenvalues    EBANDS =     -4403.29474143
  atomic energy  EATOM  =     12065.75791449
  Solvation  Ediel_sol  =         0.00000000
  ---------------------------------------------------
  free energy    TOTEN  =      -731.47306004 eV

  energy without entropy =     -731.43206682  energy(sigma->0) =     -731.45256343


--------------------------------------------------------------------------------------------------------




--------------------------------------- Iteration      1(   7)  ---------------------------------------


    POTLOK:  cpu time    0.5592: real time    0.5682
    SETDIJ:  cpu time    0.0203: real time    0.0203
    EDDIAG:  cpu time    3.2403: real time    3.2694
  RMM-DIIS:  cpu time   13.3463: real time   13.4632
    ORTHCH:  cpu time    0.3263: real time    0.3415
       DOS:  cpu time    0.0009: real time    0.0009
    CHARGE:  cpu time    1.0019: real time    1.0166
    MIXING:  cpu time    0.0099: real time    0.0100
    --------------------------------------------
      LOOP:  cpu time   18.5050: real time   18.6900

 eigenvalue-minimisations  :  3058
 total energy-change (2. order) : 0.6925061E+02  (-0.5675956E+01)
 number of electron     293.0000006 magnetization       0.6160025
 augmentation part       15.2523075 magnetization       0.6218347

 Broyden mixing:
  rms(total) = 0.31921E+01    rms(broyden)= 0.31920E+01
  rms(prec ) = 0.38331E+01
  weight for this iteration     100.00

 eigenvalues of (default mixing * dielectric matrix)
  average eigenvalue GAMMA=   0.4643
  0.4862  0.4424

 Free energy of the ion-electron system (eV)
  ---------------------------------------------------
  alpha Z        PSCENC =       156.95040625
  Ewald energy   TEWEN  =     30374.80174003
  -Hartree energ DENC   =    -39955.35035972
  -exchange      EXHF   =         0.00000000
  -V(xc)+E(xc)   XCENC  =      1000.85845091
  PAW double counting   =     16741.99840315   -16837.53873560
  entropy T*S    EENTRO =        -0.00020828
  eigenvalues    EBANDS =     -4209.70005772
  atomic energy  EATOM  =     12065.75791449
  Solvation  Ediel_sol  =         0.00000000
  ---------------------------------------------------
  free energy    TOTEN  =      -662.22244647 eV

  energy without entropy =     -662.22223819  energy(sigma->0) =     -662.22234233


--------------------------------------------------------------------------------------------------------




--------------------------------------- Iteration      1(   8)  ---------------------------------------


    POTLOK:  cpu time    0.5310: real time    0.5358
    SETDIJ:  cpu time    0.0205: real time    0.0209
    EDDIAG:  cpu time    3.2535: real time    3.2833
  RMM-DIIS:  cpu time   13.7252: real time   13.8346
    ORTHCH:  cpu time    0.5415: real time    0.5730
       DOS:  cpu time    0.0010: real time    0.0009
    CHARGE:  cpu time    1.0120: real time    1.0241
    MIXING:  cpu time    0.0120: real time    0.0123
    --------------------------------------------
      LOOP:  cpu time   19.0966: real time   19.2850

 eigenvalue-minimisations  :  3138
 total energy-change (2. order) :-0.7270628E-01  (-0.2194522E+01)
 number of electron     293.0000000 magnetization       0.3472104
 augmentation part       11.2264951 magnetization       0.3050556

 Broyden mixing:
  rms(total) = 0.28371E+01    rms(broyden)= 0.28369E+01
  rms(prec ) = 0.34767E+01
  weight for this iteration     100.00

 eigenvalues of (default mixing * dielectric matrix)
  average eigenvalue GAMMA=   0.8466
  1.8617  0.3390  0.3390

 Free energy of the ion-electron system (eV)
  ---------------------------------------------------
  alpha Z        PSCENC =       156.95040625
  Ewald energy   TEWEN  =     30374.80174003
  -Hartree energ DENC   =    -40135.66062843
  -exchange      EXHF   =         0.00000000
  -V(xc)+E(xc)   XCENC  =      1007.56847223
  PAW double counting   =     19645.75306265   -19745.28627357
  entropy T*S    EENTRO =        -0.03854555
  eigenvalues    EBANDS =     -4032.14130086
  atomic energy  EATOM  =     12065.75791449
  Solvation  Ediel_sol  =         0.00000000
  ---------------------------------------------------
  free energy    TOTEN  =      -662.29515275 eV

  energy without entropy =     -662.25660720  energy(sigma->0) =     -662.27587998


--------------------------------------------------------------------------------------------------------




--------------------------------------- Iteration      1(   9)  ---------------------------------------


    POTLOK:  cpu time    0.5237: real time    0.5291
    SETDIJ:  cpu time    0.0149: real time    0.0152
    EDDIAG:  cpu time    3.2502: real time    3.2782
  RMM-DIIS:  cpu time   13.0257: real time   13.1289
    ORTHCH:  cpu time    0.5283: real time    0.5308
       DOS:  cpu time    0.0008: real time    0.0008
    CHARGE:  cpu time    1.0246: real time    1.0354
    MIXING:  cpu time    0.0117: real time    0.0117
    --------------------------------------------
      LOOP:  cpu time   18.3799: real time   18.5302

 eigenvalue-minimisations  :  2965
 total energy-change (2. order) : 0.1517407E+02  (-0.1990472E+01)
 number of electron     293.0000003 magnetization       0.2579416
 augmentation part       12.1766974 magnetization       0.2739881

 Broyden mixing:
  rms(total) = 0.11670E+01    rms(broyden)= 0.11668E+01
  rms(prec ) = 0.13198E+01
  weight for this iteration     100.00

 eigenvalues of (default mixing * dielectric matrix)
  average eigenvalue GAMMA=   0.9109
  2.2153  0.7262  0.3511  0.3511

 Free energy of the ion-electron system (eV)
  ---------------------------------------------------
  alpha Z        PSCENC =       156.95040625
  Ewald energy   TEWEN  =     30374.80174003
  -Hartree energ DENC   =    -40439.03355575
  -exchange      EXHF   =         0.00000000
  -V(xc)+E(xc)   XCENC  =      1020.33991343
  PAW double counting   =     27784.02367112   -27886.28473493
  entropy T*S    EENTRO =        -0.00422409
  eigenvalues    EBANDS =     -3723.67221419
  atomic energy  EATOM  =     12065.75791449
  Solvation  Ediel_sol  =         0.00000000
  ---------------------------------------------------
  free energy    TOTEN  =      -647.12108364 eV

  energy without entropy =     -647.11685954  energy(sigma->0) =     -647.11897159


--------------------------------------------------------------------------------------------------------




--------------------------------------- Iteration      1(  10)  ---------------------------------------


    POTLOK:  cpu time    0.5104: real time    0.5145
    SETDIJ:  cpu time    0.0149: real time    0.0150
    EDDIAG:  cpu time    3.2930: real time    3.3195
  RMM-DIIS:  cpu time   13.2355: real time   13.3703
    ORTHCH:  cpu time    0.3248: real time    0.3315
       DOS:  cpu time    0.0010: real time    0.0010
    CHARGE:  cpu time    0.9891: real time    1.0017
    MIXING:  cpu time    0.0104: real time    0.0104
    --------------------------------------------
      LOOP:  cpu time   18.3790: real time   18.5639

 eigenvalue-minimisations  :  2993
 total energy-change (2. order) :-0.5179402E+00  (-0.3119787E+00)
 number of electron     293.0000006 magnetization       0.2032793
 augmentation part       13.7745669 magnetization       0.2282022

 Broyden mixing:
  rms(total) = 0.14540E+01    rms(broyden)= 0.14535E+01
  rms(prec ) = 0.18098E+01
  weight for this iteration     100.00

 eigenvalues of (default mixing * dielectric matrix)
  average eigenvalue GAMMA=   0.9200
  2.3356  1.0943  0.3473  0.3473  0.4757

 Free energy of the ion-electron system (eV)
  ---------------------------------------------------
  alpha Z        PSCENC =       156.95040625
  Ewald energy   TEWEN  =     30374.80174003
  -Hartree energ DENC   =    -40483.77435837
  -exchange      EXHF   =         0.00000000
  -V(xc)+E(xc)   XCENC  =      1021.34511893
  PAW double counting   =     29324.00450299   -29425.16772924
  entropy T*S    EENTRO =        -0.00284694
  eigenvalues    EBANDS =     -3681.55377194
  atomic energy  EATOM  =     12065.75791449
  Solvation  Ediel_sol  =         0.00000000
  ---------------------------------------------------
  free energy    TOTEN  =      -647.63902379 eV

  energy without entropy =     -647.63617685  energy(sigma->0) =     -647.63760032


--------------------------------------------------------------------------------------------------------




--------------------------------------- Iteration      1(  11)  ---------------------------------------


    POTLOK:  cpu time    0.5175: real time    0.5286
    SETDIJ:  cpu time    0.0147: real time    0.0148
    EDDIAG:  cpu time    3.2371: real time    3.2717
  RMM-DIIS:  cpu time   13.6250: real time   13.7369
    ORTHCH:  cpu time    0.6075: real time    0.6425
       DOS:  cpu time    0.0010: real time    0.0010
    CHARGE:  cpu time    1.0016: real time    1.0112
    MIXING:  cpu time    0.0108: real time    0.0113
    --------------------------------------------
      LOOP:  cpu time   19.0154: real time   19.2181

 eigenvalue-minimisations  :  3120
 total energy-change (2. order) : 0.1143991E+01  (-0.4147636E-01)
 number of electron     293.0000004 magnetization       0.1451242
 augmentation part       12.5425161 magnetization       0.1123134

 Broyden mixing:
  rms(total) = 0.76237E+00    rms(broyden)= 0.76181E+00
  rms(prec ) = 0.81115E+00
  weight for this iteration     100.00

 eigenvalues of (default mixing * dielectric matrix)
  average eigenvalue GAMMA=   0.9670
  2.0609  2.0609  0.6285  0.3453  0.3453  0.3615

 Free energy of the ion-electron system (eV)
  ---------------------------------------------------
  alpha Z        PSCENC =       156.95040625
  Ewald energy   TEWEN  =     30374.80174003
  -Hartree energ DENC   =    -40517.19139427
  -exchange      EXHF   =         0.00000000
  -V(xc)+E(xc)   XCENC  =      1021.77250537
  PAW double counting   =     29990.89957166   -30091.37938307
  entropy T*S    EENTRO =        -0.03701745
  eigenvalues    EBANDS =     -3648.06937585
  atomic energy  EATOM  =     12065.75791449
  Solvation  Ediel_sol  =         0.00000000
  ---------------------------------------------------
  free energy    TOTEN  =      -646.49503283 eV

  energy without entropy =     -646.45801538  energy(sigma->0) =     -646.47652410


--------------------------------------------------------------------------------------------------------




--------------------------------------- Iteration      1(  12)  ---------------------------------------


    POTLOK:  cpu time    0.5302: real time    0.5350
    SETDIJ:  cpu time    0.0150: real time    0.0154
    EDDIAG:  cpu time    3.3529: real time    3.3785
  RMM-DIIS:  cpu time   12.9374: real time   13.0386
    ORTHCH:  cpu time    0.4476: real time    0.4534
       DOS:  cpu time    0.0011: real time    0.0011
    CHARGE:  cpu time    1.0038: real time    1.0129
    MIXING:  cpu time    0.0130: real time    0.0130
    --------------------------------------------
      LOOP:  cpu time   18.3009: real time   18.4480

 eigenvalue-minimisations  :  2944
 total energy-change (2. order) : 0.9604320E-01  (-0.1590369E-01)
 number of electron     293.0000005 magnetization       0.1604534
 augmentation part       12.9672649 magnetization      -0.2281316

 Broyden mixing:
  rms(total) = 0.69847E+00    rms(broyden)= 0.69817E+00
  rms(prec ) = 0.73684E+00
  weight for this iteration     100.00

 eigenvalues of (default mixing * dielectric matrix)
  average eigenvalue GAMMA=   0.8485
  2.0963  2.0963  0.5617  0.3462  0.3462  0.3658  0.1268

 Free energy of the ion-electron system (eV)
  ---------------------------------------------------
  alpha Z        PSCENC =       156.95040625
  Ewald energy   TEWEN  =     30374.80174003
  -Hartree energ DENC   =    -40542.86515431
  -exchange      EXHF   =         0.00000000
  -V(xc)+E(xc)   XCENC  =      1021.37477484
  PAW double counting   =     30423.54100678   -30522.52969805
  entropy T*S    EENTRO =        -0.05056072
  eigenvalues    EBANDS =     -3623.37941895
  atomic energy  EATOM  =     12065.75791449
  Solvation  Ediel_sol  =         0.00000000
  ---------------------------------------------------
  free energy    TOTEN  =      -646.39898963 eV

  energy without entropy =     -646.34842891  energy(sigma->0) =     -646.37370927


--------------------------------------------------------------------------------------------------------




--------------------------------------- Iteration      1(  13)  ---------------------------------------


    POTLOK:  cpu time    0.5233: real time    0.5354
    SETDIJ:  cpu time    0.0150: real time    0.0151
    EDDIAG:  cpu time    3.2674: real time    3.2938
  RMM-DIIS:  cpu time   13.1390: real time   13.2396
    ORTHCH:  cpu time    0.3224: real time    0.3373
       DOS:  cpu time    0.0010: real time    0.0010
    CHARGE:  cpu time    0.9820: real time    0.9913
    MIXING:  cpu time    0.0130: real time    0.0131
    --------------------------------------------
      LOOP:  cpu time   18.2630: real time   18.4265

 eigenvalue-minimisations  :  2997
 total energy-change (2. order) :-0.7871412E-01  (-0.2516280E-02)
 number of electron     293.0000005 magnetization       0.0431877
 augmentation part       12.9654169 magnetization      -0.4088640

 Broyden mixing:
  rms(total) = 0.72772E+00    rms(broyden)= 0.72769E+00
  rms(prec ) = 0.76175E+00
  weight for this iteration     100.00

 eigenvalues of (default mixing * dielectric matrix)
  average eigenvalue GAMMA=   0.8754
  2.1922  2.1922  0.4240  0.6974  0.3463  0.3463  0.4928  0.3123

 Free energy of the ion-electron system (eV)
  ---------------------------------------------------
  alpha Z        PSCENC =       156.95040625
  Ewald energy   TEWEN  =     30374.80174003
  -Hartree energ DENC   =    -40544.47934867
  -exchange      EXHF   =         0.00000000
  -V(xc)+E(xc)   XCENC  =      1021.39182155
  PAW double counting   =     30427.23280019   -30526.14764145
  entropy T*S    EENTRO =        -0.03399533
  eigenvalues    EBANDS =     -3621.95140081
  atomic energy  EATOM  =     12065.75791449
  Solvation  Ediel_sol  =         0.00000000
  ---------------------------------------------------
  free energy    TOTEN  =      -646.47770375 eV

  energy without entropy =     -646.44370842  energy(sigma->0) =     -646.46070609


--------------------------------------------------------------------------------------------------------




--------------------------------------- Iteration      1(  14)  ---------------------------------------


    POTLOK:  cpu time    0.5243: real time    0.5292
    SETDIJ:  cpu time    0.0152: real time    0.0153
    EDDIAG:  cpu time    3.2348: real time    3.2611
  RMM-DIIS:  cpu time   12.9465: real time   13.0631
    ORTHCH:  cpu time    0.3284: real time    0.3300
       DOS:  cpu time    0.0009: real time    0.0009
    CHARGE:  cpu time    0.9882: real time    1.0011
    MIXING:  cpu time    0.0124: real time    0.0131
    --------------------------------------------
      LOOP:  cpu time   18.0507: real time   18.2137

 eigenvalue-minimisations  :  2961
 total energy-change (2. order) : 0.2449764E+00  (-0.3561055E-02)
 number of electron     293.0000004 magnetization      -0.0525711
 augmentation part       12.9144167 magnetization      -0.2507598

 Broyden mixing:
  rms(total) = 0.53602E+00    rms(broyden)= 0.53589E+00
  rms(prec ) = 0.56343E+00
  weight for this iteration     100.00

 eigenvalues of (default mixing * dielectric matrix)
  average eigenvalue GAMMA=   0.8288
  2.1585  2.1585  0.5643  0.6695  0.5812  0.3457  0.3457  0.3180  0.3180

 Free energy of the ion-electron system (eV)
  ---------------------------------------------------
  alpha Z        PSCENC =       156.95040625
  Ewald energy   TEWEN  =     30374.80174003
  -Hartree energ DENC   =    -40548.83341034
  -exchange      EXHF   =         0.00000000
  -V(xc)+E(xc)   XCENC  =      1021.39248696
  PAW double counting   =     30543.63511113   -30642.35440728
  entropy T*S    EENTRO =        -0.08235750
  eigenvalues    EBANDS =     -3617.50021107
  atomic energy  EATOM  =     12065.75791449
  Solvation  Ediel_sol  =         0.00000000
  ---------------------------------------------------
  free energy    TOTEN  =      -646.23272733 eV

  energy without entropy =     -646.15036984  energy(sigma->0) =     -646.19154858


--------------------------------------------------------------------------------------------------------




--------------------------------------- Iteration      1(  15)  ---------------------------------------


    POTLOK:  cpu time    0.5299: real time    0.5377
    SETDIJ:  cpu time    0.0142: real time    0.0152
    EDDIAG:  cpu time    3.2603: real time    3.2858
  RMM-DIIS:  cpu time   12.8367: real time   12.9418
    ORTHCH:  cpu time    0.4064: real time    0.4083
       DOS:  cpu time    0.0011: real time    0.0011
    CHARGE:  cpu time    0.9979: real time    1.0073
    MIXING:  cpu time    0.0124: real time    0.0125
    --------------------------------------------
      LOOP:  cpu time   18.0587: real time   18.2097

 eigenvalue-minimisations  :  2976
 total energy-change (2. order) :-0.1186830E+00  (-0.2608648E-02)
 number of electron     293.0000005 magnetization       0.0346595
 augmentation part       13.0159964 magnetization       0.4198188

 Broyden mixing:
  rms(total) = 0.72091E+00    rms(broyden)= 0.72032E+00
  rms(prec ) = 0.76825E+00
  weight for this iteration     100.00

 eigenvalues of (default mixing * dielectric matrix)
  average eigenvalue GAMMA=   0.8343
  2.2107  2.2107  0.4966  0.7058  0.7058  0.5008  0.5008  0.3460  0.3460  0.3193

 Free energy of the ion-electron system (eV)
  ---------------------------------------------------
  alpha Z        PSCENC =       156.95040625
  Ewald energy   TEWEN  =     30374.80174003
  -Hartree energ DENC   =    -40558.29358320
  -exchange      EXHF   =         0.00000000
  -V(xc)+E(xc)   XCENC  =      1021.58297087
  PAW double counting   =     30536.45678646   -30635.24695590
  entropy T*S    EENTRO =        -0.04888107
  eigenvalues    EBANDS =     -3608.31180830
  atomic energy  EATOM  =     12065.75791449
  Solvation  Ediel_sol  =         0.00000000
  ---------------------------------------------------
  free energy    TOTEN  =      -646.35141036 eV

  energy without entropy =     -646.30252929  energy(sigma->0) =     -646.32696983


--------------------------------------------------------------------------------------------------------




--------------------------------------- Iteration      1(  16)  ---------------------------------------


    POTLOK:  cpu time    0.5270: real time    0.5317
    SETDIJ:  cpu time    0.0151: real time    0.0152
    EDDIAG:  cpu time    3.1981: real time    3.2276
  RMM-DIIS:  cpu time   12.9420: real time   13.0473
    ORTHCH:  cpu time    0.2873: real time    0.3058
       DOS:  cpu time    0.0011: real time    0.0011
    CHARGE:  cpu time    0.9843: real time    0.9977
    MIXING:  cpu time    0.0125: real time    0.0130
    --------------------------------------------
      LOOP:  cpu time   17.9675: real time   18.1394

 eigenvalue-minimisations  :  2960
 total energy-change (2. order) : 0.5503633E-01  (-0.3738939E-02)
 number of electron     293.0000004 magnetization       0.1078177
 augmentation part       12.9351043 magnetization       0.4909184

 Broyden mixing:
  rms(total) = 0.65852E+00    rms(broyden)= 0.65850E+00
  rms(prec ) = 0.68660E+00
  weight for this iteration     100.00

 eigenvalues of (default mixing * dielectric matrix)
  average eigenvalue GAMMA=   0.8106
  2.2133  2.2133  0.4608  0.7862  0.7862  0.4953  0.4953  0.3456  0.3456  0.4605
  0.3145

 Free energy of the ion-electron system (eV)
  ---------------------------------------------------
  alpha Z        PSCENC =       156.95040625
  Ewald energy   TEWEN  =     30374.80174003
  -Hartree energ DENC   =    -40570.89274326
  -exchange      EXHF   =         0.00000000
  -V(xc)+E(xc)   XCENC  =      1021.75153082
  PAW double counting   =     30506.35105568   -30605.12173243
  entropy T*S    EENTRO =        -0.05792350
  eigenvalues    EBANDS =     -3595.83662211
  atomic energy  EATOM  =     12065.75791449
  Solvation  Ediel_sol  =         0.00000000
  ---------------------------------------------------
  free energy    TOTEN  =      -646.29637403 eV

  energy without entropy =     -646.23845053  energy(sigma->0) =     -646.26741228


--------------------------------------------------------------------------------------------------------




--------------------------------------- Iteration      1(  17)  ---------------------------------------


    POTLOK:  cpu time    0.5891: real time    0.5977
    SETDIJ:  cpu time    0.0151: real time    0.0154
    EDDIAG:  cpu time    3.2677: real time    3.2934
  RMM-DIIS:  cpu time   12.7628: real time   12.8685
    ORTHCH:  cpu time    0.3223: real time    0.3232
       DOS:  cpu time    0.0011: real time    0.0011
    CHARGE:  cpu time    1.0033: real time    1.0131
    MIXING:  cpu time    0.0143: real time    0.0143
    --------------------------------------------
      LOOP:  cpu time   17.9757: real time   18.1267

 eigenvalue-minimisations  :  2966
 total energy-change (2. order) : 0.6355474E-01  (-0.2385160E-02)
 number of electron     293.0000004 magnetization       0.0731970
 augmentation part       12.8181051 magnetization       0.1044299

 Broyden mixing:
  rms(total) = 0.29335E+00    rms(broyden)= 0.29291E+00
  rms(prec ) = 0.30848E+00
  weight for this iteration     100.00

 eigenvalues of (default mixing * dielectric matrix)
  average eigenvalue GAMMA=   0.9076
  2.2085  2.2085  1.8648  0.4478  0.6361  0.6361  0.7782  0.3457  0.3457  0.5518
  0.5518  0.3169

 Free energy of the ion-electron system (eV)
  ---------------------------------------------------
  alpha Z        PSCENC =       156.95040625
  Ewald energy   TEWEN  =     30374.80174003
  -Hartree energ DENC   =    -40585.96328653
  -exchange      EXHF   =         0.00000000
  -V(xc)+E(xc)   XCENC  =      1021.93775318
  PAW double counting   =     30464.30434797   -30563.05000702
  entropy T*S    EENTRO =        -0.08773801
  eigenvalues    EBANDS =     -3580.88394965
  atomic energy  EATOM  =     12065.75791449
  Solvation  Ediel_sol  =         0.00000000
  ---------------------------------------------------
  free energy    TOTEN  =      -646.23281929 eV

  energy without entropy =     -646.14508128  energy(sigma->0) =     -646.18895028


--------------------------------------------------------------------------------------------------------




--------------------------------------- Iteration      1(  18)  ---------------------------------------


    POTLOK:  cpu time    0.5313: real time    0.5369
    SETDIJ:  cpu time    0.0146: real time    0.0146
    EDDIAG:  cpu time    3.2016: real time    3.2268
  RMM-DIIS:  cpu time   12.8012: real time   12.9080
    ORTHCH:  cpu time    0.2312: real time    0.2331
       DOS:  cpu time    0.0010: real time    0.0010
    CHARGE:  cpu time    0.9998: real time    1.0078
    MIXING:  cpu time    0.0142: real time    0.0143
    --------------------------------------------
      LOOP:  cpu time   17.7949: real time   17.9425

 eigenvalue-minimisations  :  2958
 total energy-change (2. order) :-0.3969887E-01  (-0.3056686E-02)
 number of electron     293.0000004 magnetization       0.0501086
 augmentation part       12.7625727 magnetization      -0.0659177

 Broyden mixing:
  rms(total) = 0.22933E+00    rms(broyden)= 0.22912E+00
  rms(prec ) = 0.23423E+00
  weight for this iteration     100.00

 eigenvalues of (default mixing * dielectric matrix)
  average eigenvalue GAMMA=   0.9466
  2.5178  2.5178  1.8699  0.4473  0.6259  0.6259  0.7316  0.7316  0.7266  0.3457
  0.3457  0.5036  0.3165

 Free energy of the ion-electron system (eV)
  ---------------------------------------------------
  alpha Z        PSCENC =       156.95040625
  Ewald energy   TEWEN  =     30374.80174003
  -Hartree energ DENC   =    -40625.09630670
  -exchange      EXHF   =         0.00000000
  -V(xc)+E(xc)   XCENC  =      1022.31962862
  PAW double counting   =     30369.97396779   -30468.54820251
  entropy T*S    EENTRO =        -0.08300110
  eigenvalues    EBANDS =     -3542.34866504
  atomic energy  EATOM  =     12065.75791449
  Solvation  Ediel_sol  =         0.00000000
  ---------------------------------------------------
  free energy    TOTEN  =      -646.27251816 eV

  energy without entropy =     -646.18951706  energy(sigma->0) =     -646.23101761


--------------------------------------------------------------------------------------------------------




--------------------------------------- Iteration      1(  19)  ---------------------------------------


    POTLOK:  cpu time    0.5598: real time    0.5675
    SETDIJ:  cpu time    0.0151: real time    0.0155
    EDDIAG:  cpu time    3.2354: real time    3.2598
  RMM-DIIS:  cpu time   12.8435: real time   12.9432
    ORTHCH:  cpu time    0.3936: real time    0.3945
       DOS:  cpu time    0.0010: real time    0.0010
    CHARGE:  cpu time    0.9906: real time    1.0017
    MIXING:  cpu time    0.0144: real time    0.0150
    --------------------------------------------
      LOOP:  cpu time   18.0535: real time   18.1982

 eigenvalue-minimisations  :  2962
 total energy-change (2. order) : 0.2994753E-02  (-0.1167244E-02)
 number of electron     293.0000004 magnetization       0.0121626
 augmentation part       12.6627146 magnetization      -0.1037224

 Broyden mixing:
  rms(total) = 0.23404E+00    rms(broyden)= 0.23400E+00
  rms(prec ) = 0.25165E+00
  weight for this iteration     100.00

 eigenvalues of (default mixing * dielectric matrix)
  average eigenvalue GAMMA=   0.9096
  2.5402  2.5402  1.8392  0.4473  0.6231  0.6231  0.7801  0.7801  0.7495  0.3457
  0.3457  0.4955  0.3126  0.3126

 Free energy of the ion-electron system (eV)
  ---------------------------------------------------
  alpha Z        PSCENC =       156.95040625
  Ewald energy   TEWEN  =     30374.80174003
  -Hartree energ DENC   =    -40643.94892484
  -exchange      EXHF   =         0.00000000
  -V(xc)+E(xc)   XCENC  =      1022.44895033
  PAW double counting   =     30352.10733122   -30450.51717071
  entropy T*S    EENTRO =        -0.07626626
  eigenvalues    EBANDS =     -3523.79350392
  atomic energy  EATOM  =     12065.75791449
  Solvation  Ediel_sol  =         0.00000000
  ---------------------------------------------------
  free energy    TOTEN  =      -646.26952341 eV

  energy without entropy =     -646.19325714  energy(sigma->0) =     -646.23139027


--------------------------------------------------------------------------------------------------------




--------------------------------------- Iteration      1(  20)  ---------------------------------------


    POTLOK:  cpu time    0.5272: real time    0.5317
    SETDIJ:  cpu time    0.0426: real time    0.0430
    EDDIAG:  cpu time    3.2364: real time    3.2657
  RMM-DIIS:  cpu time   12.9345: real time   13.0354
    ORTHCH:  cpu time    0.3938: real time    0.3997
       DOS:  cpu time    0.0009: real time    0.0009
    CHARGE:  cpu time    0.9996: real time    1.0090
    MIXING:  cpu time    0.0145: real time    0.0146
    --------------------------------------------
      LOOP:  cpu time   18.1494: real time   18.2999

 eigenvalue-minimisations  :  2983
 total energy-change (2. order) : 0.3444959E-02  (-0.7957804E-03)
 number of electron     293.0000004 magnetization       0.0131379
 augmentation part       12.7723058 magnetization       0.0889073

 Broyden mixing:
  rms(total) = 0.72866E-01    rms(broyden)= 0.72427E-01
  rms(prec ) = 0.81925E-01
  weight for this iteration     100.00

 eigenvalues of (default mixing * dielectric matrix)
  average eigenvalue GAMMA=   0.9033
  2.5516  2.5516  1.7762  0.8766  0.8766  0.6286  0.6286  0.7611  0.3457  0.3457
  0.4930  0.4930  0.3167  0.4458  0.4594

 Free energy of the ion-electron system (eV)
  ---------------------------------------------------
  alpha Z        PSCENC =       156.95040625
  Ewald energy   TEWEN  =     30374.80174003
  -Hartree energ DENC   =    -40655.84042554
  -exchange      EXHF   =         0.00000000
  -V(xc)+E(xc)   XCENC  =      1022.51499980
  PAW double counting   =     30331.23103695   -30429.57556511
  entropy T*S    EENTRO =        -0.08452406
  eigenvalues    EBANDS =     -3512.02166126
  atomic energy  EATOM  =     12065.75791449
  Solvation  Ediel_sol  =         0.00000000
  ---------------------------------------------------
  free energy    TOTEN  =      -646.26607845 eV

  energy without entropy =     -646.18155439  energy(sigma->0) =     -646.22381642


[...]
  E(xc)   -1111.00220 -1110.65068 -1150.10979     0.00001    -0.00463    -0.00184
  Local  -83749.73322-83762.51113 86095.89400    -0.04460    22.72784    -0.13995
  n-local  -289.42752  -286.95525  -269.87096    -0.00109     0.05328     0.01919
  augment    66.60217    64.84970    65.50145     0.00124     0.07873     0.01254
  Kinetic  4383.78657  4370.26281  4985.10666     0.00247     0.80818     0.00348
  Fock        0.00000     0.00000     0.00000     0.00000     0.00000     0.00000
  vdW        -1.50075    -1.65175    -0.04071    -0.00003    -0.00018     0.00091
  -------------------------------------------------------------------------------------
  Total      -0.24536    -0.25321    -0.72897     0.00010     0.01115     0.00047
  in kB      -0.13831    -0.14273    -0.41091     0.00006     0.00629     0.00026
  external pressure =       -0.23 kB  Pullay stress =        0.00 kB


 VOLUME and BASIS-vectors are now :
 -----------------------------------------------------------------------------
  energy-cutoff  :      550.00
  volume of cell :     2842.34
      direct lattice vectors                 reciprocal lattice vectors
    14.856884906  0.000020497  0.000000000     0.067308807  0.039202376  0.000000000
    -7.428442453 12.754318856  0.000000000    -0.000000108  0.078404751  0.000000000
     0.000000000  0.000000000 15.000000000     0.000000000  0.000000000  0.066666667

  length of vectors
    14.856884906 14.759891828 15.000000000     0.077892886  0.078404751  0.066666667


 FORCES acting on ions
    electron-ion (+dipol)            ewald-force                    non-local-force                 convergence-correction
 -----------------------------------------------------------------------------------------------
   -.158E+01 0.258E+00 0.792E+01   0.207E+01 0.293E-02 -.795E+01   -.489E+00 -.261E+00 0.274E-01   -.345E-02 -.122E-02 -.116E-03
   -.549E+01 -.185E+01 0.765E+01   0.585E+01 0.203E+01 -.767E+01   -.362E+00 -.201E+00 0.281E-01   -.183E-02 -.441E-03 -.569E-04
   -.257E+00 0.103E+01 0.740E+01   0.375E+00 -.876E+00 -.743E+01   -.114E+00 -.147E+00 0.254E-01   -.329E-02 0.682E-03 -.167E-03
   -.250E+01 0.122E+00 0.759E+01   0.263E+01 -.115E-01 -.759E+01   -.136E+00 -.126E+00 0.946E-02   -.307E-02 0.130E-02 -.941E-04
   0.255E+00 0.105E+01 0.663E+01   -.373E+00 -.892E+00 -.666E+01   0.113E+00 -.146E+00 0.199E-01   0.333E-02 0.617E-03 -.267E-03
   0.251E+01 0.118E+00 0.695E+01   -.264E+01 -.728E-02 -.695E+01   0.136E+00 -.126E+00 0.374E-02   0.306E-02 0.121E-02 -.191E-03
   0.158E+01 0.263E+00 0.768E+01   -.207E+01 -.178E-02 -.771E+01   0.488E+00 -.259E+00 0.236E-01   0.347E-02 -.137E-02 -.112E-03
   0.549E+01 -.185E+01 0.782E+01   -.585E+01 0.203E+01 -.785E+01   0.361E+00 -.198E+00 0.304E-01   0.186E-02 -.603E-03 -.449E-04
   0.223E+02 -.142E+02 0.777E+01   -.276E+02 0.173E+02 -.784E+01   0.533E+01 -.301E+01 0.779E-01   0.199E-02 -.236E-02 0.593E-04
   0.767E+01 -.880E+01 0.742E+01   -.800E+01 0.101E+02 -.744E+01   0.311E+00 -.128E+01 0.256E-01   0.178E-02 -.235E-02 0.686E-04
   -.223E+02 -.142E+02 0.715E+01   0.276E+02 0.173E+02 -.721E+01   -.533E+01 -.301E+01 0.653E-01   -.203E-02 -.227E-02 -.403E-04
   -.767E+01 -.882E+01 0.659E+01   0.800E+01 0.101E+02 -.661E+01   -.311E+00 -.128E+01 0.171E-01   -.175E-02 -.228E-02 -.369E-04
   0.586E+00 0.972E+00 0.690E+01   -.197E-01 -.663E+00 -.691E+01   -.570E+00 -.290E+00 0.395E-02   -.725E-03 -.168E-02 -.603E-04
   0.301E-01 0.179E+01 0.642E+01   0.138E+00 -.161E+01 -.644E+01   -.168E+00 -.158E+00 0.151E-01   0.262E-03 -.282E-02 -.644E-04
   0.885E+00 0.434E+01 0.878E+01   -.664E+00 -.412E+01 -.881E+01   -.231E+00 -.241E+00 0.257E-01   -.326E-02 0.175E-03 -.481E-04
   -.284E+01 0.623E+01 0.102E+02   0.338E+01 -.591E+01 -.103E+02   -.557E+00 -.315E+00 0.101E+00   -.202E-02 -.995E-03 0.195E-04
   -.148E-01 0.612E+01 0.725E+01   0.153E-01 -.569E+01 -.728E+01   -.877E-03 -.468E+00 0.266E-01   -.523E-04 0.113E-02 -.154E-03
   -.400E-01 0.748E+01 0.576E+01   0.425E-01 -.680E+01 -.537E+01   -.255E-02 -.679E+00 -.396E+00   -.103E-03 0.197E-02 -.701E-04
   -.895E+00 0.432E+01 0.835E+01   0.675E+00 -.410E+01 -.837E+01   0.229E+00 -.241E+00 0.215E-01   0.326E-02 0.489E-06 -.140E-03
   0.289E+01 0.621E+01 0.986E+01   -.344E+01 -.590E+01 -.996E+01   0.557E+00 -.313E+00 0.972E-01   0.202E-02 -.109E-02 -.800E-04
   -.582E+00 0.968E+00 0.790E+01   0.163E-01 -.658E+00 -.791E+01   0.570E+00 -.288E+00 0.620E-02   0.729E-03 -.181E-02 0.717E-04
   0.477E-02 0.178E+01 0.802E+01   -.174E+00 -.160E+01 -.804E+01   0.169E+00 -.157E+00 0.255E-01   -.208E-03 -.290E-02 0.116E-03
   0.342E-02 -.685E+01 0.598E+01   -.393E-02 0.764E+01 -.597E+01   0.190E-03 -.786E+00 -.873E-02   0.621E-04 -.287E-02 -.365E-04
   -.527E-02 -.112E+01 0.601E+01   0.478E-02 0.162E+01 -.604E+01   0.948E-03 -.476E+00 0.216E-01   0.742E-04 -.415E-02 -.156E-03
   0.678E+00 0.114E+01 0.524E+01   -.532E+00 -.999E+00 -.522E+01   -.138E+00 -.136E+00 -.260E-01   -.190E-03 -.370E-02 -.196E-03
   0.284E+01 0.307E+01 0.569E+01   -.277E+01 -.297E+01 -.573E+01   -.687E-01 -.104E+00 0.306E-01   0.113E-02 -.251E-02 -.240E-03
   0.410E+01 0.891E+01 0.681E+01   -.378E+01 -.885E+01 -.677E+01   -.307E+00 -.490E-01 -.292E-01   -.125E-03 -.194E-02 -.408E-05
   0.105E+02 0.710E+01 0.528E+01   -.103E+02 -.697E+01 -.539E+01   -.243E+00 -.119E+00 0.113E+00   0.105E-02 -.116E-03 0.297E-04
   -.486E+00 0.182E+02 0.125E+02   0.810E+00 -.173E+02 -.127E+02   -.349E+00 -.980E+00 0.217E+00   -.504E-03 0.191E-02 0.101E-03
   -.730E+01 0.354E+02 0.267E+02   0.135E+02 -.319E+02 -.258E+02   -.620E+01 -.351E+01 -.887E+00   -.123E-03 0.101E-02 -.615E-03
   0.421E+00 0.182E+02 0.114E+02   -.743E+00 -.172E+02 -.117E+02   0.345E+00 -.990E+00 0.215E+00   0.331E-03 0.186E-02 -.214E-04
   0.711E+01 0.353E+02 0.244E+02   -.133E+02 -.317E+02 -.235E+02   0.620E+01 -.352E+01 -.934E+00   -.113E-03 0.121E-02 -.736E-03
   -.408E+01 0.884E+01 0.775E+01   0.376E+01 -.878E+01 -.771E+01   0.308E+00 -.505E-01 -.320E-01   0.151E-03 -.202E-02 0.585E-04
   -.104E+02 0.707E+01 0.681E+01   0.102E+02 -.694E+01 -.692E+01   0.252E+00 -.121E+00 0.122E+00   -.102E-02 -.121E-03 0.944E-04
   -.664E+00 0.111E+01 0.668E+01   0.517E+00 -.974E+00 -.667E+01   0.140E+00 -.136E+00 -.215E-01   0.295E-03 -.374E-02 -.189E-04
   -.281E+01 0.309E+01 0.760E+01   0.275E+01 -.299E+01 -.764E+01   0.725E-01 -.103E+00 0.424E-01   -.100E-02 -.252E-02 -.452E-04
   -.103E-01 -.803E+00 0.627E+01   0.947E-02 0.860E+00 -.629E+01   0.132E-02 -.519E-01 0.109E-01   0.933E-04 -.298E-02 -.235E-03
   -.604E-02 -.620E-01 0.622E+01   0.475E-02 0.543E-01 -.623E+01   0.196E-02 0.798E-02 0.105E-01   0.931E-04 0.438E-03 -.270E-03
   0.596E+01 0.556E+00 0.396E+01   -.582E+01 -.567E+00 -.391E+01   -.121E+00 0.869E-02 -.446E-01   0.240E-02 -.642E-03 -.147E-03
   0.623E+01 -.604E+00 0.403E+01   -.619E+01 0.541E+00 -.399E+01   -.367E-01 0.724E-01 -.373E-01   0.379E-02 0.812E-03 -.194E-03
   0.259E+02 0.987E+01 0.140E+02   -.250E+02 -.104E+02 -.146E+02   -.834E+00 0.525E+00 0.592E+00   0.127E-02 0.867E-03 0.101E-03
   0.246E+02 -.759E+01 0.146E+02   -.238E+02 0.791E+01 -.152E+02   -.797E+00 -.330E+00 0.579E+00   0.110E-02 0.258E-02 -.202E-04
   -.257E+02 0.977E+01 0.134E+02   0.248E+02 -.103E+02 -.140E+02   0.849E+00 0.518E+00 0.556E+00   -.142E-02 0.886E-03 -.659E-04
   -.244E+02 -.748E+01 0.140E+02   0.236E+02 0.779E+01 -.145E+02   0.811E+00 -.322E+00 0.544E+00   -.126E-02 0.257E-02 -.194E-03
   -.587E+01 0.538E+00 0.665E+01   0.572E+01 -.548E+00 -.661E+01   0.125E+00 0.845E-02 -.323E-01   -.236E-02 -.681E-03 0.855E-04
   -.613E+01 -.577E+00 0.672E+01   0.609E+01 0.512E+00 -.669E+01   0.405E-01 0.724E-01 -.254E-01   -.376E-02 0.843E-03 0.258E-04
   -.341E+01 -.365E+01 0.748E+01   0.339E+01 0.364E+01 -.752E+01   0.114E-01 0.265E-02 0.423E-01   -.268E-02 0.572E-03 -.142E-03
   -.183E+01 -.309E+01 0.659E+01   0.187E+01 0.310E+01 -.657E+01   -.664E-01 -.801E-02 -.177E-01   -.246E-02 0.814E-03 -.192E-03
   0.342E+01 -.364E+01 0.557E+01   -.341E+01 0.362E+01 -.560E+01   -.794E-02 0.274E-02 0.313E-01   0.281E-02 0.546E-03 -.320E-03
   0.183E+01 -.312E+01 0.517E+01   -.187E+01 0.313E+01 -.515E+01   0.679E-01 -.800E-02 -.209E-01   0.256E-02 0.754E-03 -.347E-03
   0.133E+02 -.550E+01 0.603E+01   -.131E+02 0.523E+01 -.615E+01   -.184E+00 0.280E+00 0.111E+00   0.325E-02 0.215E-02 -.101E-03
   0.747E+01 -.763E+01 0.692E+01   -.769E+01 0.741E+01 -.688E+01   0.207E+00 0.213E+00 -.446E-01   0.545E-02 0.249E-02 -.206E-03
   -.437E+01 -.318E+02 0.253E+02   0.107E+02 0.275E+02 -.242E+02   -.632E+01 0.427E+01 -.104E+01   -.132E-02 0.409E-02 -.972E-03
   0.355E+01 -.818E+01 0.125E+02   -.430E+01 0.611E+01 -.127E+02   0.753E+00 0.205E+01 0.233E+00   -.145E-02 0.237E-02 0.179E-05
   0.416E+01 -.317E+02 0.229E+02   -.105E+02 0.274E+02 -.218E+02   0.631E+01 0.428E+01 -.110E+01   0.110E-02 0.395E-02 -.110E-02
   -.361E+01 -.811E+01 0.114E+02   0.436E+01 0.602E+01 -.116E+02   -.756E+00 0.206E+01 0.225E+00   0.129E-02 0.245E-02 -.142E-03
   -.132E+02 -.547E+01 0.756E+01   0.130E+02 0.520E+01 -.768E+01   0.193E+00 0.282E+00 0.120E+00   -.324E-02 0.216E-02 -.531E-04
   -.744E+01 -.755E+01 0.789E+01   0.766E+01 0.732E+01 -.785E+01   -.207E+00 0.214E+00 -.447E-01   -.545E-02 0.255E-02 -.167E-03
   -.431E+01 -.224E+01 0.791E+01   0.440E+01 0.227E+01 -.794E+01   -.113E+00 -.430E-01 0.321E-01   -.579E-02 0.752E-03 -.130E-03
   -.389E+01 -.514E+01 0.778E+01   0.413E+01 0.516E+01 -.779E+01   -.228E+00 -.371E-01 0.878E-02   -.533E-02 0.528E-03 -.141E-03
   -.104E-01 -.234E+01 0.605E+01   0.994E-02 0.243E+01 -.607E+01   0.841E-03 -.810E-01 0.220E-01   0.572E-04 -.156E-03 -.311E-03
   -.470E-02 -.264E+01 0.599E+01   0.439E-02 0.269E+01 -.598E+01   0.414E-03 -.599E-01 -.173E-01   0.401E-04 0.673E-03 -.277E-03
   0.434E+01 -.224E+01 0.638E+01   -.443E+01 0.227E+01 -.640E+01   0.115E+00 -.424E-01 0.223E-01   0.589E-02 0.694E-03 -.286E-03
   0.389E+01 -.514E+01 0.683E+01   -.413E+01 0.516E+01 -.684E+01   0.228E+00 -.361E-01 0.721E-02   0.540E-02 0.426E-03 -.263E-03
   0.580E+01 -.252E+01 0.108E+02   -.595E+01 0.182E+01 -.108E+02   0.160E+00 0.702E+00 0.714E-01   0.136E-02 0.122E-02 -.332E-04
   0.124E+02 -.702E+01 0.895E+01   -.137E+02 0.645E+01 -.897E+01   0.131E+01 0.606E+00 0.259E-01   0.195E-02 -.238E-02 -.165E-04
   -.314E-01 0.191E+02 0.492E+01   0.337E-01 -.260E+02 -.421E+01   -.323E-02 0.700E+01 -.712E+00   -.396E-04 0.277E-02 -.345E-04
   -.117E-01 -.603E+01 0.864E+01   0.135E-01 0.550E+01 -.874E+01   -.172E-02 0.546E+00 0.987E-01   -.103E-04 0.335E-03 -.142E-03
   -.575E+01 -.251E+01 0.105E+02   0.590E+01 0.181E+01 -.106E+02   -.159E+00 0.702E+00 0.675E-01   -.145E-02 0.128E-02 -.153E-03
   -.124E+02 -.699E+01 0.861E+01   0.137E+02 0.642E+01 -.864E+01   -.131E+01 0.605E+00 0.249E-01   -.203E-02 -.225E-02 -.119E-03
   -.472E+00 0.931E+01 -.633E+03   0.574E+00 -.913E+01 0.615E+03   -.105E+00 -.169E+00 0.182E+02   -.427E-03 0.176E-02 -.561E-02
 -----------------------------------------------------------------------------------------------
   0.637E-01 0.450E+00 -.176E+02   0.195E-13 0.902E-12 -.227E-12   -.631E-01 -.437E+00 0.176E+02   -.594E-03 0.434E-03 -.154E-01
 
 
 POSITION                                       TOTAL-FORCE (eV/Angst)
 -----------------------------------------------------------------------------------
     -0.00814     -0.00135      7.46457         0.003504     -0.000176     -0.001893
     -0.00142      1.41905      7.46588        -0.010306     -0.018734      0.000512
      2.47829      0.02581      7.46295         0.001738      0.012689     -0.001237
      2.47875      1.44578      7.47370        -0.005786     -0.013906      0.001501
      4.95390      0.02563      7.46594        -0.002531      0.013430     -0.004400
      4.95354      1.44556      7.47573         0.005854     -0.012766     -0.001595
      7.44034     -0.00175      7.46586        -0.004787      0.001716     -0.001697
      7.43364      1.41866      7.46484         0.008801     -0.016214      0.000232
      2.49410     12.71929      7.47451         0.001510      0.007617      0.003968
      9.92043      1.38406      7.46353        -0.018541     -0.014195      0.002486
      4.93822     12.71951      7.47634        -0.003044      0.006943      0.001613
     12.36868      1.38425      7.46655         0.018230     -0.014641     -0.000127
     13.61069      2.10300      7.46726        -0.003153      0.020006     -0.002284
     -1.24942      3.52413      7.47742         0.000936      0.017408      0.000003
      1.23657      2.14403      7.47532        -0.010056     -0.018295      0.001194
      1.23542      3.56711      7.50066        -0.007606     -0.003912     -0.000639
      3.71617      2.17067      7.49117        -0.000355     -0.031573     -0.000216
      3.71621      3.59005      7.53793        -0.000108      0.004918     -0.005471
      6.19572      2.14373      7.47611         0.008990     -0.017154     -0.001413
      6.19680      3.56687      7.50039         0.006882      0.000419     -0.003546
      8.67833      2.10270      7.46279         0.003127      0.021353      0.000961
      8.68142      3.52389      7.47039        -0.001368      0.018818      0.004693
     11.14450      2.10540      7.46466        -0.000258     -0.006782      0.000578
     11.14441      3.52419      7.46645         0.000536      0.012347     -0.004758
     12.37597      4.23673      7.47473         0.007695     -0.004085     -0.006675
     -2.48742      5.65934      7.48127         0.001051     -0.003194     -0.005837
     -0.01680      4.24399      7.50052         0.008329      0.004141      0.006155
     -0.04039      5.66240      7.52705         0.017974      0.007088      0.004563
      2.47399      4.31089      7.55039        -0.011832     -0.011760     -0.001451
      2.42951      5.72363      7.63988         0.020762      0.000090      0.007098
      4.95844      4.31095      7.55279         0.010273     -0.009563     -0.005737
      5.00297      5.72375      7.64454        -0.021564      0.002967      0.000498
      7.44885      4.24382      7.49509        -0.008099      0.004053      0.007390
      7.47222      5.66232      7.51966        -0.017590      0.008499      0.006408
      9.91281      4.23660      7.46852        -0.006697     -0.003279     -0.001449
      9.91912      5.65931      7.47346         0.002033     -0.003581      0.000960
     -3.71262      6.37383      7.47412         0.000616      0.000985     -0.007521
     -3.71265      7.79734      7.47423         0.000777      0.002121     -0.005537
     -1.26590      6.37524      7.50494         0.020977     -0.004643      0.002142
     -1.26494      7.79627      7.50459         0.007665      0.011703     -0.001869
      1.18103      6.37287      7.57828         0.013593     -0.007684      0.000705
      1.18425      7.80782      7.57735         0.024465     -0.004161      0.005962
      6.25124      6.37286      7.57782        -0.013023     -0.007461     -0.004799
      6.24801      7.80783      7.57694        -0.024216     -0.003568      0.000893
      8.69759      6.37524      7.49354        -0.019741     -0.003891      0.009889
      8.69660      7.79628      7.49320        -0.006328      0.010810      0.005452
     -4.93837      8.51238      7.47364        -0.008443     -0.013968      0.001229
     -4.94380      9.93533      7.46859        -0.027802      0.000416     -0.000626
     -2.48689      8.51232      7.48143         0.011000     -0.014065     -0.005305
     -2.48128      9.93520      7.47472         0.028961      0.001134     -0.005389
     -0.03713      8.50908      7.52536         0.022193      0.018197     -0.001367
     -0.01398      9.92746      7.49986        -0.008276     -0.004146     -0.002125
      2.44011      8.45759      7.64431         0.011524      0.001037      0.019359
      2.47587      9.87468      7.54984         0.020516     -0.015740      0.006902
      4.99241      8.45752      7.64918        -0.011077     -0.002423      0.013722
      4.95662      9.87465      7.55235        -0.021137     -0.018755      0.002596
      7.46893      8.50917      7.51800        -0.020959      0.017478     -0.000250
      7.44605      9.92766      7.49436         0.007041     -0.004627     -0.001591
     -6.17978     10.64466      7.47042        -0.028965     -0.011890      0.001850
     -6.18927     12.06173      7.46281         0.004359     -0.019207     -0.000938
     -3.71251     10.64837      7.46619         0.000471      0.007270     -0.004463
     -3.71241     12.06985      7.46415         0.000146     -0.005419     -0.003649
     -1.24515     10.64440      7.47733         0.029306     -0.011167     -0.002514
     -1.23549     12.06144      7.46725        -0.004193     -0.018133     -0.004450
      1.23541     10.60410      7.49952         0.012688      0.003923     -0.005551
      1.25191     12.02278      7.47532         0.000475      0.037174     -0.002013
      3.71625     10.59543      7.53804        -0.001007      0.032886     -0.002996
      3.71618     12.00402      7.49206         0.000068      0.017396      0.002708
      6.19683     10.60436      7.49899        -0.012529      0.001057     -0.009224
      6.18036     12.02310      7.47577        -0.001219      0.035056     -0.005364
      3.71396      7.08899      8.32653        -0.002469      0.011617      0.003741
 -----------------------------------------------------------------------------------
    total drift:                                0.000078      0.013161     -0.019351


--------------------------------------------------------------------------------------------------------



  FREE ENERGIE OF THE ION-ELECTRON SYSTEM (eV)
  ---------------------------------------------------
  free  energy   TOTEN  =      -653.37120962 eV

  energy  without entropy=     -653.33010312  energy(sigma->0) =     -653.35065637
 
 d Force = 0.1002633E-02[ 0.402E-03, 0.160E-02]  d Energy = 0.9388586E-03 0.638E-04
 d Force = 0.4714914E-01[ 0.423E-01, 0.520E-01]  d Ewald  =-0.3807413E+01 0.385E+01


--------------------------------------------------------------------------------------------------------


    POTLOK:  cpu time    0.5328: real time    0.5395


--------------------------------------------------------------------------------------------------------


 Conjugate gradient step on ions:
 trial-energy change:   -0.000939  1 .order   -0.001033   -0.001639   -0.000426
  (g-gl).g = 0.216E-02      g.g   = 0.207E-02  gl.gl    = 0.603E-02
 g(Force)  = 0.193E-02   g(Stress)= 0.141E-03 ortho     =-0.726E-04
 gamma     =   0.35893
 trial     =   0.80205
 opt step  =   1.08371  (harmonic =   1.08371) maximal distance =0.00238731
 next E    =  -653.371378   (d E  =  -0.00111)


--------------------------------------------------------------------------------------------------------


  
 reached required accuracy - stopping structural energy minimisation
     LOOP+:  cpu time  108.1433: real time  109.0262
    4ORBIT:  cpu time    0.0000: real time    0.0000

 total amount of memory used by VASP MPI-rank0   135460. kBytes
=======================================================================

   base      :      30000. kBytes
   nonlr-proj:      10471. kBytes
   fftplans  :      14072. kBytes
   grid      :      39398. kBytes
   one-center:        186. kBytes
   wavefun   :      41333. kBytes
 
  
  
 General timing and accounting informations for this job:
 ========================================================
  
                  Total CPU time used (sec):     2862.474
                            User time (sec):     2835.116
                          System time (sec):       27.358
                         Elapsed time (sec):     2894.041
  
                   Maximum memory used (kb):      609408.
                   Average memory used (kb):           0.
  
                          Minor page faults:      5638308
                          Major page faults:           33
                 Voluntary context switches:        24706
