 vasp.5.4.4.18Apr17-6-g9f103f2a35 (build Sep 02 2021 13:24:58) complex          
  
 executed on             LinuxIFC date 2023.01.15  13:02:13
 running on   48 total cores
 distrk:  each k-point on   48 cores,    1 groups
 distr:  one band on NCORES_PER_BAND=  12 cores,    4 groups


--------------------------------------------------------------------------------------------------------


 INCAR:
 POTCAR:    PAW_PBE C 08Apr2002                   
 POTCAR:    PAW_PBE N 08Apr2002                   
 POTCAR:    PAW_PBE C 08Apr2002                   
 POTCAR:    PAW_PBE Cr_pv 02Aug2007               
 POTCAR:    PAW_PBE C 08Apr2002                   
   SHA256 =  253f7b50bb8d59471dbedb8285d89021f4a42ed1a2c5d38a03a736e69125dd95 C/
   COPYR  = (c) Copyright 08Apr2002 Georg Kresse                                
   COPYR  = This file is part of the software VASP. Any use, copying, and all ot
   COPYR  = If you do not have a valid VASP license, you may not use, copy or di
   VRHFIN =C: s2p2                                                              
   LEXCH  = PE                                                                  
   EATOM  =   147.1560 eV,   10.8157 Ry                                         
                                                                                
   TITEL  = PAW_PBE C 08Apr2002                                                 
   LULTRA =        F    use ultrasoft PP ?                                      
   IUNSCR =        1    unscreen: 0-lin 1-nonlin 2-no                           
   RPACOR =    1.200    partial core radius                                     
   POMASS =   12.011; ZVAL   =    4.000    mass and valenz                      
   RCORE  =    1.500    outmost cutoff radius                                   
   RWIGS  =    1.630; RWIGS  =    0.863    wigner-seitz radius (au A)           
   ENMAX  =  400.000; ENMIN  =  300.000 eV                                      
   ICORE  =        2    local potential                                         
   LCOR   =        T    correct aug charges                                     
   LPAW   =        T    paw PP                                                  
   EAUG   =  644.873                                                            
   DEXC   =    0.000                                                            
   RMAX   =    1.529    core radius for proj-oper                               
   RAUG   =    1.300    factor for augmentation sphere                          
   RDEP   =    1.501    radius for radial grids                                 
   RDEPT  =    1.300    core radius for aug-charge                              
                                                                                
   Atomic configuration                                                         
    4 entries                                                                   
     n  l   j            E        occ.                                          
     1  0  0.50      -273.3789   2.0000                                         
     2  0  0.50       -13.7508   2.0000                                         
     2  1  0.50        -5.2854   2.0000                                         
     3  2  1.50        -5.4423   0.0000                                         
   Description                                                                  
     l       E           TYP  RCUT    TYP  RCUT                                 
     0    -13.7508458     23  1.200                                             
     0     -8.2022199     23  1.200                                             
     1     -5.2854383     23  1.500                                             
     1     34.0145650     23  1.500                                             
     2     -5.4423304      7  1.500                                             
  local pseudopotential read in
  partial core-charges read in
  partial kinetic energy density read in
  atomic valenz-charges read in
  non local Contribution for L=           0  read in
    real space projection operators read in
  non local Contribution for L=           0  read in
    real space projection operators read in
  non local Contribution for L=           1  read in
    real space projection operators read in
  non local Contribution for L=           1  read in
    real space projection operators read in
    PAW grid and wavefunctions read in
 
   number of l-projection  operators is LMAX  =           4
   number of lm-projection operators is LMMAX =           8
 
 POTCAR:    PAW_PBE N 08Apr2002                   
   SHA256 =  e053789ff3a61a86a1b75d8a110fcc91f86041011e7b0817c7c99e4e8a6349d7 N/
   COPYR  = (c) Copyright 08Apr2002 Georg Kresse                                
   COPYR  = This file is part of the software VASP. Any use, copying, and all ot
   COPYR  = If you do not have a valid VASP license, you may not use, copy or di
   VRHFIN =N: s2p3                                                              
   LEXCH  = PE                                                                  
   EATOM  =   264.5486 eV,   19.4438 Ry                                         
                                                                                
   TITEL  = PAW_PBE N 08Apr2002                                                 
   LULTRA =        F    use ultrasoft PP ?                                      
   IUNSCR =        1    unscreen: 0-lin 1-nonlin 2-no                           
   RPACOR =    1.200    partial core radius                                     
   POMASS =   14.001; ZVAL   =    5.000    mass and valenz                      
   RCORE  =    1.500    outmost cutoff radius                                   
   RWIGS  =    1.400; RWIGS  =    0.741    wigner-seitz radius (au A)           
   ENMAX  =  400.000; ENMIN  =  300.000 eV                                      
   ICORE  =        2    local potential                                         
   LCOR   =        T    correct aug charges                                     
   LPAW   =        T    paw PP                                                  
   EAUG   =  627.112                                                            
   DEXC   =    0.000                                                            
   RMAX   =    1.529    core radius for proj-oper                               
   RAUG   =    1.300    factor for augmentation sphere                          
   RDEP   =    1.514    radius for radial grids                                 
   RDEPT  =    1.338    core radius for aug-charge                              
                                                                                
   Atomic configuration                                                         
    4 entries                                                                   
     n  l   j            E        occ.                                          
     1  0  0.50      -384.7179   2.0000                                         
     2  0  0.50       -18.5828   2.0000                                         
     2  1  0.50        -7.0898   3.0000                                         
     3  2  1.50        -6.8029   0.0000                                         
   Description                                                                  
     l       E           TYP  RCUT    TYP  RCUT                                 
     0    -18.5828119     23  1.200                                             
     0    -13.5018863     23  1.200                                             
     1     -7.0897853     23  1.500                                             
     1      9.5240782     23  1.500                                             
     2     -6.8029130      7  1.500                                             
  local pseudopotential read in
  partial core-charges read in
  partial kinetic energy density read in
  atomic valenz-charges read in
  non local Contribution for L=           0  read in
    real space projection operators read in
  non local Contribution for L=           0  read in
    real space projection operators read in
  non local Contribution for L=           1  read in
    real space projection operators read in
  non local Contribution for L=           1  read in
    real space projection operators read in
    PAW grid and wavefunctions read in
 
   number of l-projection  operators is LMAX  =           4
   number of lm-projection operators is LMMAX =           8
 
 POTCAR:    PAW_PBE C 08Apr2002                   
   SHA256 =  253f7b50bb8d59471dbedb8285d89021f4a42ed1a2c5d38a03a736e69125dd95 C/
   COPYR  = (c) Copyright 08Apr2002 Georg Kresse                                
   COPYR  = This file is part of the software VASP. Any use, copying, and all ot
   COPYR  = If you do not have a valid VASP license, you may not use, copy or di
   VRHFIN =C: s2p2                                                              
   LEXCH  = PE                                                                  
   EATOM  =   147.1560 eV,   10.8157 Ry                                         
                                                                                
   TITEL  = PAW_PBE C 08Apr2002                                                 
   LULTRA =        F    use ultrasoft PP ?                                      
   IUNSCR =        1    unscreen: 0-lin 1-nonlin 2-no                           
   RPACOR =    1.200    partial core radius                                     
   POMASS =   12.011; ZVAL   =    4.000    mass and valenz                      
   RCORE  =    1.500    outmost cutoff radius                                   
   RWIGS  =    1.630; RWIGS  =    0.863    wigner-seitz radius (au A)           
   ENMAX  =  400.000; ENMIN  =  300.000 eV                                      
   ICORE  =        2    local potential                                         
   LCOR   =        T    correct aug charges                                     
   LPAW   =        T    paw PP                                                  
   EAUG   =  644.873                                                            
   DEXC   =    0.000                                                            
   RMAX   =    1.529    core radius for proj-oper                               
   RAUG   =    1.300    factor for augmentation sphere                          
   RDEP   =    1.501    radius for radial grids                                 
   RDEPT  =    1.300    core radius for aug-charge                              
                                                                                
   Atomic configuration                                                         
    4 entries                                                                   
     n  l   j            E        occ.                                          
     1  0  0.50      -273.3789   2.0000                                         
     2  0  0.50       -13.7508   2.0000                                         
     2  1  0.50        -5.2854   2.0000                                         
     3  2  1.50        -5.4423   0.0000                                         
   Description                                                                  
     l       E           TYP  RCUT    TYP  RCUT                                 
     0    -13.7508458     23  1.200                                             
     0     -8.2022199     23  1.200                                             
     1     -5.2854383     23  1.500                                             
     1     34.0145650     23  1.500                                             
     2     -5.4423304      7  1.500                                             
  local pseudopotential read in
  partial core-charges read in
  partial kinetic energy density read in
  atomic valenz-charges read in
  non local Contribution for L=           0  read in
    real space projection operators read in
  non local Contribution for L=           0  read in
    real space projection operators read in
  non local Contribution for L=           1  read in
    real space projection operators read in
  non local Contribution for L=           1  read in
    real space projection operators read in
    PAW grid and wavefunctions read in
 
   number of l-projection  operators is LMAX  =           4
   number of lm-projection operators is LMMAX =           8
 
 POTCAR:    PAW_PBE Cr_pv 02Aug2007               
   SHA256 =  c9a7df34d3cdbacf1090e328ef39c0b420964e11c23f63548d1ac9dd218cdba0 Cr
   COPYR  = (c) Copyright 02Aug2007 Georg Kresse                                
   COPYR  = This file is part of the software VASP. Any use, copying, and all ot
   COPYR  = If you do not have a valid VASP license, you may not use, copy or di
   VRHFIN =Cr : p6d5s1                                                          
   LEXCH  = PE                                                                  
   EATOM  =  1647.9177 eV,  121.1185 Ry                                         
                                                                                
   TITEL  = PAW_PBE Cr_pv 02Aug2007                                             
   LULTRA =        F    use ultrasoft PP ?                                      
   IUNSCR =        1    unscreen: 0-lin 1-nonlin 2-no                           
   RPACOR =    2.080    partial core radius                                     
   POMASS =   51.996; ZVAL   =   12.000    mass and valenz                      
   RCORE  =    2.300    outmost cutoff radius                                   
   RWIGS  =    2.500; RWIGS  =    1.323    wigner-seitz radius (au A)           
   ENMAX  =  265.681; ENMIN  =  199.261 eV                                      
   ICORE  =        3    local potential                                         
   LCOR   =        T    correct aug charges                                     
   LPAW   =        T    paw PP                                                  
   EAUG   =  519.424                                                            
   DEXC   =    0.000                                                            
   RMAX   =    2.356    core radius for proj-oper                               
   RAUG   =    1.300    factor for augmentation sphere                          
   RDEP   =    2.447    radius for radial grids                                 
   RDEPT  =    1.882    core radius for aug-charge                              
                                                                                
   Atomic configuration                                                         
    8 entries                                                                   
     n  l   j            E        occ.                                          
     1  0  0.50     -5880.4963   2.0000                                         
     2  0  0.50      -667.0865   2.0000                                         
     2  1  1.50      -560.6250   6.0000                                         
     3  0  0.50       -73.9860   2.0000                                         
     3  1  1.50       -45.4378   6.0000                                         
     3  2  2.50        -2.9137   5.0000                                         
     4  0  0.50        -4.0071   1.0000                                         
     4  3  2.50        -1.3606   0.0000                                         
   Description                                                                  
     l       E           TYP  RCUT    TYP  RCUT                                 
     1    -45.4377911     23  2.000                                             
     1      1.3605826     23  2.000                                             
     2     -2.9136672     23  2.300                                             
     2     -4.2742498     23  2.300                                             
     0     -4.0071320     23  2.300                                             
     0      9.4498803     23  2.300                                             
     3      2.7211652     23  2.300                                             
  local pseudopotential read in
  partial core-charges read in
  partial kinetic energy density read in
  atomic valenz-charges read in
  non local Contribution for L=           1  read in
    real space projection operators read in
  non local Contribution for L=           1  read in
    real space projection operators read in
  non local Contribution for L=           2  read in
    real space projection operators read in
  non local Contribution for L=           2  read in
    real space projection operators read in
  non local Contribution for L=           0  read in
    real space projection operators read in
  non local Contribution for L=           0  read in
    real space projection operators read in
    PAW grid and wavefunctions read in
 
   number of l-projection  operators is LMAX  =           6
   number of lm-projection operators is LMMAX =          18
 
 Optimization of the real space projectors (new method)

 maximal supplied QI-value         = 25.13
 optimisation between [QCUT,QGAM] = [ 11.81, 23.88] = [ 39.08,159.64] Ry 
 Optimized for a Real-space Cutoff    1.18 Angstroem

   l    n(q)    QCUT    max X(q) W(low)/X(q) W(high)/X(q)  e(spline) 
   0      8    11.813   115.676    0.10E-03    0.16E-03    0.35E-06
   0      8    11.813    87.132    0.10E-03    0.16E-03    0.35E-06
   1      8    11.813     4.429    0.16E-03    0.13E-04    0.22E-06
   1      8    11.813     2.733    0.13E-03    0.10E-04    0.18E-06
 Optimization of the real space projectors (new method)

 maximal supplied QI-value         = 25.13
 optimisation between [QCUT,QGAM] = [ 11.81, 23.88] = [ 39.08,159.64] Ry 
 Optimized for a Real-space Cutoff    1.41 Angstroem

   l    n(q)    QCUT    max X(q) W(low)/X(q) W(high)/X(q)  e(spline) 
   0     10    11.813    79.467    0.48E-04    0.30E-04    0.67E-06
   0     10    11.813    66.151    0.47E-04    0.30E-04    0.67E-06
   1     10    11.813    20.169    0.11E-03    0.17E-03    0.11E-05
   1     10    11.813    14.454    0.11E-03    0.17E-03    0.11E-05
 Optimization of the real space projectors (new method)

 maximal supplied QI-value         = 25.13
 optimisation between [QCUT,QGAM] = [ 11.81, 23.88] = [ 39.08,159.64] Ry 
 Optimized for a Real-space Cutoff    1.18 Angstroem

   l    n(q)    QCUT    max X(q) W(low)/X(q) W(high)/X(q)  e(spline) 
   0      8    11.813   115.676    0.10E-03    0.16E-03    0.35E-06
   0      8    11.813    87.132    0.10E-03    0.16E-03    0.35E-06
   1      8    11.813     4.429    0.16E-03    0.13E-04    0.22E-06
   1      8    11.813     2.733    0.13E-03    0.10E-04    0.18E-06
 Optimization of the real space projectors (new method)

 maximal supplied QI-value         = 16.25
 optimisation between [QCUT,QGAM] = [ 11.86, 23.89] = [ 39.41,159.82] Ry 
 Optimized for a Real-space Cutoff    1.33 Angstroem

   l    n(q)    QCUT    max X(q) W(low)/X(q) W(high)/X(q)  e(spline) 
   1      9    11.864     3.262    0.48E-04    0.16E-03    0.14E-06
   1      9    11.864     5.741    0.74E-04    0.40E-03    0.35E-06
   2      9    11.864    60.438    0.17E-03    0.21E-03    0.26E-06
   2      9    11.864    55.380    0.17E-03    0.21E-03    0.27E-06
   0      9    11.864    80.273    0.40E-04    0.47E-04    0.12E-06
   0      9    11.864    36.654    0.35E-04    0.41E-04    0.11E-06
  PAW_PBE C 08Apr2002                   :
 energy of atom  1       EATOM= -147.1560
 kinetic energy error for atom=    0.0066 (will be added to EATOM!!)
  PAW_PBE N 08Apr2002                   :
 energy of atom  2       EATOM= -264.5486
 kinetic energy error for atom=    0.0116 (will be added to EATOM!!)
  PAW_PBE C 08Apr2002                   :
 energy of atom  3       EATOM= -147.1560
 kinetic energy error for atom=    0.0066 (will be added to EATOM!!)
  PAW_PBE Cr_pv 02Aug2007               :
 energy of atom  4       EATOM=-1647.9177
 kinetic energy error for atom=    0.0054 (will be added to EATOM!!)
 
 
 POSCAR: POSCAR-clean                            
  positions in cartesian coordinates
  No initial velocities read in
 exchange correlation table for  LEXCH =        8
   RHO(1)=    0.500       N(1)  =     2000
   RHO(2)=  100.500       N(2)  =     4000
 


--------------------------------------------------------------------------------------------------------


 ion  position               nearest neighbor table
   1  0.000  1.000  0.498-   2 1.42  60 1.42  70 1.43
   2  0.056  0.111  0.498-   1 1.42  13 1.42  15 1.43
   3  0.168  0.002  0.498-   4 1.42  62 1.43  60 1.43
   4  0.224  0.113  0.498-   3 1.42  15 1.42  17 1.44
   5  0.334  0.002  0.498-   6 1.42  62 1.43  64 1.43
   6  0.390  0.113  0.498-   5 1.42  19 1.42  17 1.44
   7  0.500  1.000  0.498-   8 1.42  64 1.42  66 1.43
   8  0.556  0.111  0.498-   7 1.42  21 1.42  19 1.43
   9  0.666  0.998  0.498-  10 1.42  66 1.42  68 1.44
  10  0.722  0.109  0.498-   9 1.42  23 1.43  21 1.43
  11  0.832  0.998  0.498-  12 1.42  70 1.42  68 1.44
  12  0.888  0.109  0.498-  11 1.42  23 1.43  13 1.43
  13  0.999  0.165  0.498-  14 1.42   2 1.42  12 1.43
  14  0.054  0.277  0.499-  13 1.42  25 1.42  27 1.43
  15  0.167  0.168  0.498-  16 1.42   4 1.42   2 1.43
  16  0.223  0.280  0.500-  15 1.42  27 1.43  29 1.44
  17  0.335  0.170  0.499-  18 1.42   4 1.44   6 1.44
  18  0.391  0.281  0.503-  17 1.42  31 1.44  29 1.44
  19  0.501  0.168  0.498-  20 1.42   6 1.42   8 1.43
  20  0.557  0.280  0.500-  19 1.42  33 1.43  31 1.44
  21  0.667  0.165  0.498-  22 1.42   8 1.42  10 1.43
  22  0.723  0.277  0.498-  21 1.42  35 1.42  33 1.43
  23  0.833  0.165  0.498-  24 1.42  10 1.43  12 1.43
  24  0.888  0.276  0.498-  23 1.42  25 1.42  35 1.43
  25  0.999  0.332  0.498-  14 1.42  26 1.42  24 1.42
  26  0.054  0.444  0.499-  39 1.42  37 1.42  25 1.42
  27  0.165  0.333  0.500-  28 1.42  16 1.43  14 1.43
  28  0.219  0.444  0.502-  41 1.41  27 1.42  39 1.42
  29  0.335  0.338  0.503-  30 1.41  18 1.44  16 1.44
  30  0.387  0.448  0.510-  41 1.41  29 1.41  71 2.00
  31  0.503  0.338  0.504-  32 1.41  18 1.44  20 1.44
  32  0.562  0.448  0.510-  43 1.41  31 1.41  71 2.00
  33  0.668  0.333  0.500-  34 1.42  20 1.43  22 1.43
  34  0.725  0.444  0.501-  43 1.41  33 1.42  45 1.42
  35  0.833  0.332  0.498-  22 1.42  36 1.42  24 1.43
  36  0.890  0.444  0.498-  45 1.42  37 1.42  35 1.42
  37  0.000  0.500  0.498-  36 1.42  26 1.42  38 1.42
  38  0.056  0.611  0.498-  47 1.42  49 1.42  37 1.42
  39  0.165  0.500  0.500-  26 1.42  28 1.42  40 1.42
  40  0.220  0.611  0.500-  49 1.42  51 1.42  39 1.42
  41  0.329  0.499  0.505-  30 1.41  28 1.41  42 1.44
  42  0.385  0.612  0.505-  53 1.41  51 1.41  41 1.44
  43  0.671  0.499  0.505-  32 1.41  34 1.41  44 1.44
  44  0.727  0.612  0.505-  55 1.41  57 1.41  43 1.44
  45  0.836  0.500  0.499-  36 1.42  34 1.42  46 1.42
  46  0.891  0.611  0.499-  47 1.42  57 1.42  45 1.42
  47  0.001  0.667  0.498-  46 1.42  38 1.42  48 1.42
  48  0.057  0.779  0.498-  59 1.42  47 1.42  61 1.43
  49  0.166  0.667  0.499-  40 1.42  38 1.42  50 1.42
  50  0.222  0.779  0.498-  63 1.42  49 1.42  61 1.42
  51  0.331  0.667  0.502-  42 1.41  52 1.42  40 1.42
  52  0.388  0.778  0.500-  51 1.42  65 1.43  63 1.43
  53  0.494  0.663  0.510-  42 1.41  54 1.41  71 2.00
  54  0.553  0.773  0.503-  53 1.41  67 1.44  65 1.44
  55  0.669  0.663  0.510-  44 1.41  56 1.41  71 2.00
  56  0.721  0.773  0.504-  55 1.41  67 1.44  69 1.44
  57  0.837  0.667  0.501-  44 1.41  58 1.42  46 1.42
  58  0.891  0.778  0.500-  57 1.42  69 1.42  59 1.43
  59  0.002  0.835  0.498-  60 1.42  48 1.42  58 1.43
  60  0.057  0.946  0.498-  59 1.42   1 1.42   3 1.43
  61  0.168  0.835  0.498-  62 1.42  50 1.42  48 1.43
  62  0.223  0.946  0.498-  61 1.42   3 1.43   5 1.43
  63  0.333  0.835  0.499-  64 1.42  50 1.42  52 1.43
  64  0.389  0.946  0.498-  63 1.42   7 1.42   5 1.43
  65  0.499  0.832  0.500-  66 1.42  52 1.43  54 1.44
  66  0.555  0.943  0.498-  65 1.42   9 1.42   7 1.43
  67  0.665  0.830  0.503-  68 1.42  56 1.44  54 1.44
  68  0.721  0.941  0.499-  67 1.42   9 1.44  11 1.44
  69  0.833  0.832  0.500-  70 1.42  58 1.42  56 1.44
  70  0.889  0.943  0.498-  69 1.42  11 1.42   1 1.43
  71  0.528  0.556  0.554-  55 2.00  32 2.00  53 2.00  30 2.00
 

IMPORTANT INFORMATION: All symmetrisations will be switched off!
NOSYMM: (Re-)initialisation of all symmetry stuff for point group C_1.

 
 
 KPOINTS: K-Points                                

Automatic generation of k-mesh.
Space group operators:
 irot       det(A)        alpha          n_x          n_y          n_z        tau_x        tau_y        tau_z
    1     1.000000     0.000000     1.000000     0.000000     0.000000     0.000000     0.000000     0.000000
 
 Subroutine IBZKPT returns following result:
 ===========================================
 
 Found      4 irreducible k-points:
 
 Following reciprocal coordinates:
            Coordinates               Weight
  0.000000  0.000000  0.000000      1.000000
  0.500000  0.000000  0.000000      1.000000
 -0.000000  0.500000  0.000000      1.000000
  0.500000  0.500000  0.000000      1.000000
 
 Following cartesian coordinates:
            Coordinates               Weight
  0.000000  0.000000  0.000000      1.000000
  0.033606  0.019589  0.000000      1.000000
 -0.000000  0.039178  0.000000      1.000000
  0.033606  0.058767  0.000000      1.000000
 


--------------------------------------------------------------------------------------------------------




 Dimension of arrays:
   k-points           NKPTS =      4   k-points in BZ     NKDIM =      4   number of bands    NBANDS=    184
   number of dos      NEDOS =    301   number of ions     NIONS =     71
   non local maximal  LDIM  =      6   non local SUM 2l+1 LMDIM =     18
   total plane-waves  NPLWV = ******
   max r-space proj   IRMAX =   7110   max aug-charges    IRDMAX=  21308
   dimension x,y,z NGX =   120 NGY =  120 NGZ =  120
   dimension x,y,z NGXF=   240 NGYF=  240 NGZF=  240
   support grid    NGXF=   240 NGYF=  240 NGZF=  240
   ions per type =              65   1   4   1
   NGX,Y,Z   is equivalent  to a cutoff of  13.41, 13.50, 13.30 a.u.
   NGXF,Y,Z  is equivalent  to a cutoff of  26.82, 27.01, 26.60 a.u.

 SYSTEM =  unknown system                          
 POSCAR =  POSCAR-clean                            

 Startparameter for this run:
   NWRITE =      2    write-flag & timer
   PREC   = accura    normal or accurate (medium, high low for compatibility)
   ISTART =      0    job   : 0-new  1-cont  2-samecut
   ICHARG =      2    charge: 1-file 2-atom 10-const
   ISPIN  =      2    spin polarized calculation?
   LNONCOLLINEAR =      F non collinear calculations
   LSORBIT =      F    spin-orbit coupling
   INIWAV =      1    electr: 0-lowe 1-rand  2-diag
   LASPH  =      F    aspherical Exc in radial PAW
   METAGGA=      F    non-selfconsistent MetaGGA calc.

 Electronic Relaxation 1
   ENCUT  =  550.0 eV  40.42 Ry    6.36 a.u.  28.45 28.25 28.68*2*pi/ulx,y,z
   ENINI  =  550.0     initial cutoff
   ENAUG  =  644.9 eV  augmentation charge cutoff
   NELM   =     50;   NELMIN=  2; NELMDL= -5     # of ELM steps 
   EDIFF  = 0.1E-04   stopping-criterion for ELM
   LREAL  =      T    real-space projection
   NLSPLINE    = F    spline interpolate recip. space projectors
   LCOMPAT=      F    compatible to vasp.4.4
   GGA_COMPAT  = T    GGA compatible to vasp.4.4-vasp.4.6
   LMAXPAW     = -100 max onsite density
   LMAXMIX     =    2 max onsite mixed and CHGCAR
   VOSKOWN=      0    Vosko Wilk Nusair interpolation
   ROPT   =   -0.00025  -0.00025  -0.00025  -0.00025
 Ionic relaxation
   EDIFFG = -.5E-01   stopping-criterion for IOM
   NSW    =    400    number of steps for IOM
   NBLOCK =      1;   KBLOCK =    400    inner block; outer block 
   IBRION =      2    ionic relax: 0-MD 1-quasi-New 2-CG
   NFREE  =      1    steps in history (QN), initial steepest desc. (CG)
   ISIF   =      3    stress and relaxation
   IWAVPR =     11    prediction:  0-non 1-charg 2-wave 3-comb
   ISYM   =      0    0-nonsym 1-usesym 2-fastsym
   LCORR  =      T    Harris-Foulkes like correction to forces

   POTIM  = 0.3000    time-step for ionic-motion
   TEIN   =    0.0    initial temperature
   TEBEG  =    0.0;   TEEND  =   0.0 temperature during run
   SMASS  =  -3.00    Nose mass-parameter (am)
   estimated Nose-frequenzy (Omega)   =  0.10E-29 period in steps =****** mass=  -0.506E-26a.u.
   SCALEE = 1.0000    scale energy and forces
   NPACO  =    256;   APACO  = 16.0  distance and # of slots for P.C.
   PSTRESS=    0.0 pullay stress

  Mass of Ions in am
   POMASS =  12.01 14.00 12.01 52.00
  Ionic Valenz
   ZVAL   =   4.00  5.00  4.00 12.00
  Atomic Wigner-Seitz radii
   RWIGS  =  -1.00 -1.00 -1.00 -1.00
  virtual crystal weights 
   VCA    =   1.00  1.00  1.00  1.00
   NELECT =     293.0000    total number of electrons
   NUPDOWN=      -1.0000    fix difference up-down

 DOS related values:
   EMIN   =  10.00;   EMAX   =-10.00  energy-range for DOS
   EFERMI =   0.00
   ISMEAR =     0;   SIGMA  =   0.10  broadening in eV -4-tet -1-fermi 0-gaus

 Electronic relaxation 2 (details)
   IALGO  =     68    algorithm
   LDIAG  =      T    sub-space diagonalisation (order eigenvalues)
   LSUBROT=      F    optimize rotation matrix (better conditioning)
   TURBO    =      0    0=normal 1=particle mesh
   IRESTART =      0    0=no restart 2=restart with 2 vectors
   NREBOOT  =      0    no. of reboots
   NMIN     =      0    reboot dimension
   EREF     =   0.00    reference energy to select bands
   IMIX   =      4    mixing-type and parameters
     AMIX     =   0.40;   BMIX     =  1.00
     AMIX_MAG =   1.60;   BMIX_MAG =  1.00
     AMIN     =   0.10
     WC   =   100.;   INIMIX=   1;  MIXPRE=   1;  MAXMIX= -45

 Intra band minimization:
   WEIMIN = 0.0010     energy-eigenvalue tresh-hold
   EBREAK =  0.14E-07  absolut break condition
   DEPER  =   0.30     relativ break condition  

   TIME   =   0.40     timestep for ELM

  volume/ion in A,a.u.               =      40.12       270.71
  Fermi-wavevector in a.u.,A,eV,Ry     =   0.767079  1.449569  8.005805  0.588410
  Thomas-Fermi vector in A             =   1.867557
 
 Write flags
   LWAVE        =      F    write WAVECAR
   LDOWNSAMPLE  =      F    k-point downsampling of WAVECAR
   LCHARG       =      F    write CHGCAR
   LVTOT        =      F    write LOCPOT, total local potential
   LVHAR        =      F    write LOCPOT, Hartree potential only
   LELF         =      F    write electronic localiz. function (ELF)
   LORBIT       =      0    0 simple, 1 ext, 2 COOP (PROOUT), +10 PAW based schemes


 Dipole corrections
   LMONO  =      F    monopole corrections only (constant potential shift)
   LDIPOL =      F    correct potential (dipole corrections)
   IDIPOL =      0    1-x, 2-y, 3-z, 4-all directions 
   EPSILON=  1.0000000 bulk dielectric constant

 Exchange correlation treatment:
   GGA     =    --    GGA type
   LEXCH   =     8    internal setting for exchange type
   VOSKOWN=      0    Vosko Wilk Nusair interpolation
   LHFCALC =     F    Hartree Fock is set to
   LHFONE  =     F    Hartree Fock one center treatment
   AEXX    =    0.0000 exact exchange contribution

 Linear response parameters
   LEPSILON=     F    determine dielectric tensor
   LRPA    =     F    only Hartree local field effects (RPA)
   LNABLA  =     F    use nabla operator in PAW spheres
   LVEL    =     F    velocity operator in full k-point grid
   LINTERFAST=   F  fast interpolation
   KINTER  =     0    interpolate to denser k-point grid
   CSHIFT  =0.1000    complex shift for real part using Kramers Kronig
   OMEGAMAX=  -1.0    maximum frequency
   DEG_THRESHOLD= 0.2000000E-02 threshold for treating states as degnerate
   RTIME   =   -0.100 relaxation time in fs
  (WPLASMAI=    0.000 imaginary part of plasma frequency in eV, 0.658/RTIME)
   DFIELD  = 0.0000000 0.0000000 0.0000000 field for delta impulse in time
 
 Orbital magnetization related:
   ORBITALMAG=     F  switch on orbital magnetization
   LCHIMAG   =     F  perturbation theory with respect to B field
   DQ        =  0.001000  dq finite difference perturbation B field
   LLRAUG    =     F  two centre corrections for induced B field



--------------------------------------------------------------------------------------------------------


 conjugate gradient relaxation of ions
 charge density and potential will be updated during run
 spin polarized calculation
 RMM-DIIS sequential band-by-band and
  variant of blocked Davidson during initial phase
 perform sub-space diagonalisation
    before iterative eigenvector-optimisation
 modified Broyden-mixing scheme, WC =      100.0
 initial mixing is a Kerker type mixing with AMIX =  0.4000 and BMIX =      1.0000
 Hartree-type preconditioning will be used
 using additional bands           37
 real space projection scheme for non local part
 use partial core corrections
 calculate Harris-corrections to forces 
   (improved forces if not selfconsistent)
 use gradient corrections 
 use of overlap-Matrix (Vanderbilt PP)
 Gauss-broadening in eV      SIGMA  =   0.10


--------------------------------------------------------------------------------------------------------


  energy-cutoff  :      550.00
  volume of cell :     2848.21
      direct lattice vectors                 reciprocal lattice vectors
    14.878307727  0.000105424  0.000000000     0.067211667  0.039178051  0.000000000
    -7.439153864 12.762195204  0.000000000    -0.000000555  0.078356102  0.000000000
     0.000000000  0.000000000 15.000000000     0.000000000  0.000000000  0.066666667

  length of vectors
    14.878307728 14.772089786 15.000000000     0.077796709  0.078356102  0.066666667


 
 k-points in units of 2pi/SCALE and weight: K-Points                                
   0.00000000  0.00000000  0.00000000       0.250
   0.03360583  0.01958903  0.00000000       0.250
  -0.00000028  0.03917805  0.00000000       0.250
   0.03360556  0.05876708  0.00000000       0.250
 
 k-points in reciprocal lattice and weights: K-Points                                
   0.00000000  0.00000000  0.00000000       0.250
   0.50000000  0.00000000  0.00000000       0.250
  -0.00000000  0.50000000  0.00000000       0.250
   0.50000000  0.50000000  0.00000000       0.250
 
 position of ions in fractional coordinates (direct lattice) 
   0.00014703  0.99993181  0.49766807
   0.05571316  0.11129367  0.49774774
   0.16803225  0.00210520  0.49753985
   0.22355821  0.11343998  0.49825115
   0.33432830  0.00207694  0.49777234
   0.39014706  0.11341551  0.49841838
   0.50002407  0.99989044  0.49775648
   0.55582710  0.11125266  0.49767590
   0.66571506  0.99774295  0.49825147
   0.72152612  0.10907882  0.49753824
   0.83231512  0.99776674  0.49841003
   0.88783929  0.10910686  0.49776801
   0.99908442  0.16549374  0.49784405
   0.05430809  0.27667161  0.49853746
   0.16734775  0.16806595  0.49834347
   0.22284185  0.27957445  0.49997583
   0.33528932  0.17029644  0.49941211
   0.39084341  0.28141813  0.50254970
   0.50097822  0.16802960  0.49842000
   0.55697129  0.27954076  0.49998817
   0.66664919  0.16545038  0.49752014
   0.72257294  0.27663324  0.49802908
   0.83255361  0.16485921  0.49764969
   0.88821716  0.27620991  0.49780056
   0.99906908  0.33222521  0.49838447
   0.05442247  0.44382388  0.49884723
   0.16531768  0.33288444  0.50001215
   0.21898612  0.44382270  0.50165224
   0.33514858  0.33773328  0.50339031
   0.38694525  0.44827387  0.50958670
   0.50284791  0.33770682  0.50360105
   0.56160602  0.44823797  0.50998391
   0.66778145  0.33285443  0.49963749
   0.72504010  0.44380782  0.50114295
   0.83335701  0.33221195  0.49791518
   0.88957865  0.44380677  0.49825237
   0.00003314  0.49990030  0.49835048
   0.05573614  0.61130743  0.49834565
   0.16452790  0.49985599  0.50032235
   0.22027264  0.61134265  0.50031499
   0.32877881  0.49923631  0.50514604
   0.38513300  0.61194665  0.50514739
   0.67071104  0.49923365  0.50517220
   0.72707059  0.61195035  0.50517224
   0.83551700  0.49986026  0.49948453
   0.89125350  0.61133457  0.49948422
   0.00136430  0.66739252  0.49824937
   0.05673614  0.77898562  0.49790902
   0.16620335  0.66738054  0.49883406
   0.22244721  0.77897560  0.49837060
   0.33076298  0.66736579  0.50164604
   0.38803591  0.77830247  0.50000539
   0.49425975  0.66291375  0.50958718
   0.55300964  0.77344715  0.50338828
   0.66896610  0.66295341  0.50998288
   0.72073432  0.77348097  0.50359479
   0.83682433  0.66738081  0.50114212
   0.89051054  0.77833045  0.49963539
   0.00151950  0.83455528  0.49802741
   0.05677874  0.94573836  0.49751926
   0.16759972  0.83498348  0.49779087
   0.22328727  0.94632847  0.49764984
   0.33324173  0.83452222  0.49853136
   0.38919606  0.94569806  0.49784785
   0.49886656  0.83160652  0.49997424
   0.55488261  0.94311446  0.49834783
   0.66501623  0.82976534  0.50254304
   0.72058356  0.94088512  0.49940688
   0.83301728  0.83164625  0.49998031
   0.88852543  0.94315192  0.49840894
   0.52788678  0.55561308  0.55407295
 
 position of ions in cartesian coordinates  (Angst):
  -7.43645893 12.76132490  7.46502101
   0.00098677  1.42035737  7.46621609
   2.48437460  0.02688469  7.46309769
   2.48227038  1.44776676  7.47376727
   4.95878870  0.02654158  7.46658504
   4.96101252  1.44747206  7.47627575
   0.00117320 12.76084966  7.46634727
   7.44214093  1.41988678  7.46513856
   2.48235028 12.73346045  7.47377203
   9.92363354  1.39216125  7.46307356
   4.96090025 12.73378160  7.47615045
  12.39788345  1.39253665  7.46652020
  13.63355202  2.11216869  7.46766080
  -1.25019027  3.53094287  7.47806186
   1.23958287  2.14490807  7.47515208
   1.23571236  3.56800714  7.49963746
   3.72167632  2.17339173  7.49118168
   3.72157576  3.59155433  7.53824552
   6.20371007  2.14447940  7.47630003
   6.20724356  3.56761241  7.49982262
   8.68780104  2.11158030  7.46280215
   8.69274532  3.53052356  7.47043619
  11.16057575  2.10405319  7.46474541
  11.16040021  3.52513843  7.46700843
  12.39298273  4.24002833  7.47576708
  -2.49195986  5.66417272  7.48270852
  -0.01673121  4.24835367  7.50018218
  -0.04352248  5.66417505  7.52478359
   2.47399392  4.31025334  7.55085470
   2.42231217  5.72099937  7.64380057
   4.96927299  4.30993342  7.55401582
   5.02123589  5.72055973  7.64975858
   7.45930259  4.24802358  7.49456242
   7.48581505  5.66403852  7.51714419
   9.92756627  4.23984160  7.46872767
   9.93387816  5.66404236  7.47378561
  -3.71834223  6.37982525  7.47525727
  -3.71835051  7.80163060  7.47518475
  -1.27060894  6.37927707  7.50483528
  -1.27058799  7.80209747  7.50472492
   1.17777658  6.37138591  7.57719062
   1.17776199  7.80982318  7.57721079
   6.26516932  6.37138797  7.57758296
   6.26518706  7.80990654  7.57758361
   8.71254167  6.37940228  7.49226792
   8.71253189  7.80206507  7.49226324
  -4.94453714  8.51739379  7.47374059
  -4.95085604  9.94157246  7.46863529
  -2.49192199  8.51725823  7.48251084
  -2.48528121  9.94146208  7.47555906
  -0.04344336  8.51708741  7.52469062
  -0.01659412  9.93288892  7.50008080
   2.42223119  8.46028680  7.64380763
   2.47405524  9.87094181  7.55082413
   5.02127100  8.46081135  7.64974323
   4.96926315  9.87139105  7.55392179
   7.48578134  8.51733237  7.51713176
   7.45916989  9.93329897  7.49453080
  -6.18577746 10.65075751  7.47041111
  -6.19072161 12.06970350  7.46278894
  -3.71797037 10.65623981  7.46686302
  -3.71774635 12.07725221  7.46474766
  -1.25006613 10.65037063  7.47797042
  -1.24461459 12.06922431  7.46771775
   1.23584141 10.61317732  7.49961357
   1.23974067 12.03626939  7.47521740
   3.72156413 10.58969736  7.53814562
   3.72167477 12.00783549  7.49110317
   6.20714301 10.61371955  7.49970466
   6.20350242 12.03678263  7.47613410
   3.72077071  7.09089829  8.31109430
 


--------------------------------------------------------------------------------------------------------


 k-point  1 :   0.0000 0.0000 0.0000  plane waves:   83445
 k-point  2 :   0.5000 0.0000 0.0000  plane waves:   83448
 k-point  3 :  -0.0000 0.5000 0.0000  plane waves:   83436
 k-point  4 :   0.5000 0.5000 0.0000  plane waves:   83444

 maximum and minimum number of plane-waves per node :      6984     6935

 maximum number of plane-waves:     83448
 maximum index in each direction: 
   IXMAX=   28   IYMAX=   28   IZMAX=   28
   IXMIN=  -28   IYMIN=  -28   IZMIN=  -28


 real space projection operators:
  total allocation   :      18580.42 KBytes
  max/ min on nodes  :       1558.30       1535.16


 parallel 3D FFT for wavefunctions:
    minimum data exchange during FFTs selected (reduces bandwidth)
 parallel 3D FFT for charge:
    minimum data exchange during FFTs selected (reduces bandwidth)


 total amount of memory used by VASP MPI-rank0   135481. kBytes
=======================================================================

   base      :      30000. kBytes
   nonlr-proj:      10492. kBytes
   fftplans  :      14072. kBytes
   grid      :      39398. kBytes
   one-center:        186. kBytes
   wavefun   :      41333. kBytes
 
     INWAV:  cpu time    0.0000: real time    0.0000
 Broyden mixing: mesh for mixing (old mesh)
   NGX = 57   NGY = 57   NGZ = 57
  (NGX  =240   NGY  =240   NGZ  =240)
  gives a total of 185193 points

 initial charge density was supplied:
 charge density of overlapping atoms calculated
 number of electron     293.0000000 magnetization       1.0000000
 keeping initial charge density in first step


--------------------------------------------------------------------------------------------------------


 Maximum index for non-local projection operator          621
 Maximum index for augmentation-charges          402 (set IRDMAX)


--------------------------------------------------------------------------------------------------------


 First call to EWALD:  gamma=   0.125
 Maximum number of real-space cells 3x 3x 3
 Maximum number of reciprocal cells 3x 3x 3

    FEWALD:  cpu time    0.0052: real time    0.0054


--------------------------------------- Iteration      1(   1)  ---------------------------------------


    POTLOK:  cpu time    0.5276: real time    0.5516
    SETDIJ:  cpu time    0.0173: real time    0.0218
     EDDAV:  cpu time   16.8170: real time   16.9798
       DOS:  cpu time    0.0010: real time    0.0010
    --------------------------------------------
      LOOP:  cpu time   17.3630: real time   17.5543

 eigenvalue-minimisations  :  3248
 total energy-change (2. order) : 0.2743892E+04  (-0.1173079E+05)
 number of electron     293.0000000 magnetization       1.0000000
 augmentation part      293.0000000 magnetization       1.0000000

 Free energy of the ion-electron system (eV)
  ---------------------------------------------------
  alpha Z        PSCENC =       156.95040625
  Ewald energy   TEWEN  =     30374.90602896
  -Hartree energ DENC   =    -39540.93484019
  -exchange      EXHF   =         0.00000000
  -V(xc)+E(xc)   XCENC  =       982.53675430
  PAW double counting   =      9000.30529238    -9089.18527416
  entropy T*S    EENTRO =        -0.11550590
  eigenvalues    EBANDS =     -1206.32879742
  atomic energy  EATOM  =     12065.75791449
  Solvation  Ediel_sol  =         0.00000000
  ---------------------------------------------------
  free energy    TOTEN  =      2743.89197871 eV

  energy without entropy =     2744.00748461  energy(sigma->0) =     2743.94973166


--------------------------------------------------------------------------------------------------------




--------------------------------------- Iteration      1(   2)  ---------------------------------------


     EDDAV:  cpu time   21.6082: real time   21.8063
       DOS:  cpu time    0.0010: real time    0.0010
    --------------------------------------------
      LOOP:  cpu time   21.6091: real time   21.8073

 eigenvalue-minimisations  :  4312
 total energy-change (2. order) :-0.2915652E+04  (-0.2786723E+04)
 number of electron     293.0000000 magnetization       1.0000000
 augmentation part      293.0000000 magnetization       1.0000000

 Free energy of the ion-electron system (eV)
  ---------------------------------------------------
  alpha Z        PSCENC =       156.95040625
  Ewald energy   TEWEN  =     30374.90602896
  -Hartree energ DENC   =    -39540.93484019
  -exchange      EXHF   =         0.00000000
  -V(xc)+E(xc)   XCENC  =       982.53675430
  PAW double counting   =      9000.30529238    -9089.18527416
  entropy T*S    EENTRO =        -0.03389839
  eigenvalues    EBANDS =     -4122.06196884
  atomic energy  EATOM  =     12065.75791449
  Solvation  Ediel_sol  =         0.00000000
  ---------------------------------------------------
  free energy    TOTEN  =      -171.75958519 eV

  energy without entropy =     -171.72568681  energy(sigma->0) =     -171.74263600


--------------------------------------------------------------------------------------------------------




--------------------------------------- Iteration      1(   3)  ---------------------------------------


     EDDAV:  cpu time   18.8336: real time   19.0061
       DOS:  cpu time    0.0010: real time    0.0010
    --------------------------------------------
      LOOP:  cpu time   18.8346: real time   19.0071

 eigenvalue-minimisations  :  3552
 total energy-change (2. order) :-0.5125142E+03  (-0.5095217E+03)
 number of electron     293.0000000 magnetization       1.0000000
 augmentation part      293.0000000 magnetization       1.0000000

 Free energy of the ion-electron system (eV)
  ---------------------------------------------------
  alpha Z        PSCENC =       156.95040625
  Ewald energy   TEWEN  =     30374.90602896
  -Hartree energ DENC   =    -39540.93484019
  -exchange      EXHF   =         0.00000000
  -V(xc)+E(xc)   XCENC  =       982.53675430
  PAW double counting   =      9000.30529238    -9089.18527416
  entropy T*S    EENTRO =        -0.03651704
  eigenvalues    EBANDS =     -4634.57352571
  atomic energy  EATOM  =     12065.75791449
  Solvation  Ediel_sol  =         0.00000000
  ---------------------------------------------------
  free energy    TOTEN  =      -684.27376072 eV

  energy without entropy =     -684.23724368  energy(sigma->0) =     -684.25550220


--------------------------------------------------------------------------------------------------------




--------------------------------------- Iteration      1(   4)  ---------------------------------------


     EDDAV:  cpu time   18.5832: real time   18.8074
       DOS:  cpu time    0.0010: real time    0.0010
    --------------------------------------------
      LOOP:  cpu time   18.5842: real time   18.8084

 eigenvalue-minimisations  :  3552
 total energy-change (2. order) :-0.1950734E+02  (-0.1935376E+02)
 number of electron     293.0000000 magnetization       1.0000000
 augmentation part      293.0000000 magnetization       1.0000000

 Free energy of the ion-electron system (eV)
  ---------------------------------------------------
  alpha Z        PSCENC =       156.95040625
  Ewald energy   TEWEN  =     30374.90602896
  -Hartree energ DENC   =    -39540.93484019
  -exchange      EXHF   =         0.00000000
  -V(xc)+E(xc)   XCENC  =       982.53675430
  PAW double counting   =      9000.30529238    -9089.18527416
  entropy T*S    EENTRO =        -0.03794358
  eigenvalues    EBANDS =     -4654.07943473
  atomic energy  EATOM  =     12065.75791449
  Solvation  Ediel_sol  =         0.00000000
  ---------------------------------------------------
  free energy    TOTEN  =      -703.78109628 eV

  energy without entropy =     -703.74315270  energy(sigma->0) =     -703.76212449


--------------------------------------------------------------------------------------------------------




--------------------------------------- Iteration      1(   5)  ---------------------------------------


     EDDAV:  cpu time   20.3823: real time   20.6016
       DOS:  cpu time    0.0010: real time    0.0010
    CHARGE:  cpu time    0.9703: real time    0.9850
    MIXING:  cpu time    0.0112: real time    0.0140
    --------------------------------------------
      LOOP:  cpu time   21.3649: real time   21.6016

 eigenvalue-minimisations  :  4024
 total energy-change (2. order) :-0.6232619E+00  (-0.6212041E+00)
 number of electron     292.9999997 magnetization       0.7746195
 augmentation part       11.6645654 magnetization       0.7606343

 Broyden mixing:
  rms(total) = 0.46551E+01    rms(broyden)= 0.46547E+01
  rms(prec ) = 0.54214E+01
  weight for this iteration     100.00

 Free energy of the ion-electron system (eV)
  ---------------------------------------------------
  alpha Z        PSCENC =       156.95040625
  Ewald energy   TEWEN  =     30374.90602896
  -Hartree energ DENC   =    -39540.93484019
  -exchange      EXHF   =         0.00000000
  -V(xc)+E(xc)   XCENC  =       982.53675430
  PAW double counting   =      9000.30529238    -9089.18527416
  entropy T*S    EENTRO =        -0.03799681
  eigenvalues    EBANDS =     -4654.70264342
  atomic energy  EATOM  =     12065.75791449
  Solvation  Ediel_sol  =         0.00000000
  ---------------------------------------------------
  free energy    TOTEN  =      -704.40435820 eV

  energy without entropy =     -704.36636139  energy(sigma->0) =     -704.38535979


--------------------------------------------------------------------------------------------------------




--------------------------------------- Iteration      1(   6)  ---------------------------------------


    POTLOK:  cpu time    0.5237: real time    0.5340
    SETDIJ:  cpu time    0.0152: real time    0.0164
    EDDIAG:  cpu time    3.2934: real time    3.3260
  RMM-DIIS:  cpu time   17.7202: real time   17.8894
    ORTHCH:  cpu time    0.3565: real time    0.3589
       DOS:  cpu time    0.0009: real time    0.0009
    CHARGE:  cpu time    0.9701: real time    0.9875
    MIXING:  cpu time    0.0102: real time    0.0108
    --------------------------------------------
      LOOP:  cpu time   22.8902: real time   23.1239

 eigenvalue-minimisations  :  4090
 total energy-change (2. order) :-0.2817436E+02  (-0.5327357E+02)
 number of electron     293.0000007 magnetization       0.7165554
 augmentation part       17.3706677 magnetization       0.9560687

 Broyden mixing:
  rms(total) = 0.84364E+01    rms(broyden)= 0.84363E+01
  rms(prec ) = 0.93217E+01
  weight for this iteration     100.00

 eigenvalues of (default mixing * dielectric matrix)
  average eigenvalue GAMMA=   0.2142
  0.2142

 Free energy of the ion-electron system (eV)
  ---------------------------------------------------
  alpha Z        PSCENC =       156.95040625
  Ewald energy   TEWEN  =     30374.90602896
  -Hartree energ DENC   =    -39833.23726003
  -exchange      EXHF   =         0.00000000
  -V(xc)+E(xc)   XCENC  =       996.31754071
  PAW double counting   =     15150.67498241   -15239.38465655
  entropy T*S    EENTRO =        -0.04998874
  eigenvalues    EBANDS =     -4404.51368136
  atomic energy  EATOM  =     12065.75791449
  Solvation  Ediel_sol  =         0.00000000
  ---------------------------------------------------
  free energy    TOTEN  =      -732.57871386 eV

  energy without entropy =     -732.52872511  energy(sigma->0) =     -732.55371949


--------------------------------------------------------------------------------------------------------




--------------------------------------- Iteration      1(   7)  ---------------------------------------


    POTLOK:  cpu time    0.5367: real time    0.5439
    SETDIJ:  cpu time    0.0152: real time    0.0153
    EDDIAG:  cpu time    3.2747: real time    3.3081
  RMM-DIIS:  cpu time   13.3181: real time   13.4255
    ORTHCH:  cpu time    0.3122: real time    0.3255
       DOS:  cpu time    0.0009: real time    0.0009
    CHARGE:  cpu time    1.0222: real time    1.0364
    MIXING:  cpu time    0.0099: real time    0.0101
    --------------------------------------------
      LOOP:  cpu time   18.4899: real time   18.6657

 eigenvalue-minimisations  :  3040
 total energy-change (2. order) : 0.7014607E+02  (-0.5450996E+01)
 number of electron     293.0000005 magnetization       0.6169219
 augmentation part       15.2806519 magnetization       0.6210378

 Broyden mixing:
  rms(total) = 0.32154E+01    rms(broyden)= 0.32153E+01
  rms(prec ) = 0.38678E+01
  weight for this iteration     100.00

 eigenvalues of (default mixing * dielectric matrix)
  average eigenvalue GAMMA=   0.4628
  0.4628  0.4628

 Free energy of the ion-electron system (eV)
  ---------------------------------------------------
  alpha Z        PSCENC =       156.95040625
  Ewald energy   TEWEN  =     30374.90602896
  -Hartree energ DENC   =    -39954.75697318
  -exchange      EXHF   =         0.00000000
  -V(xc)+E(xc)   XCENC  =      1000.84820308
  PAW double counting   =     16731.53108288   -16827.04390825
  entropy T*S    EENTRO =        -0.00020262
  eigenvalues    EBANDS =     -4210.62519472
  atomic energy  EATOM  =     12065.75791449
  Solvation  Ediel_sol  =         0.00000000
  ---------------------------------------------------
  free energy    TOTEN  =      -662.43264310 eV

  energy without entropy =     -662.43244049  energy(sigma->0) =     -662.43254180


--------------------------------------------------------------------------------------------------------




--------------------------------------- Iteration      1(   8)  ---------------------------------------


    POTLOK:  cpu time    0.5287: real time    0.5349
    SETDIJ:  cpu time    0.0151: real time    0.0167
    EDDIAG:  cpu time    3.3018: real time    3.3267
  RMM-DIIS:  cpu time   13.6670: real time   13.7772
    ORTHCH:  cpu time    0.3992: real time    0.4220
       DOS:  cpu time    0.0009: real time    0.0009
    CHARGE:  cpu time    0.9814: real time    0.9925
    MIXING:  cpu time    0.0098: real time    0.0099
    --------------------------------------------
      LOOP:  cpu time   18.9039: real time   19.0809

 eigenvalue-minimisations  :  3127
 total energy-change (2. order) : 0.6895917E-01  (-0.2108602E+01)
 number of electron     292.9999998 magnetization       0.3440891
 augmentation part       11.2277968 magnetization       0.3115139

 Broyden mixing:
  rms(total) = 0.28355E+01    rms(broyden)= 0.28352E+01
  rms(prec ) = 0.34795E+01
  weight for this iteration     100.00

 eigenvalues of (default mixing * dielectric matrix)
  average eigenvalue GAMMA=   0.8509
  1.8744  0.3391  0.3391

 Free energy of the ion-electron system (eV)
  ---------------------------------------------------
  alpha Z        PSCENC =       156.95040625
  Ewald energy   TEWEN  =     30374.90602896
  -Hartree energ DENC   =    -40135.18588097
  -exchange      EXHF   =         0.00000000
  -V(xc)+E(xc)   XCENC  =      1007.55357966
  PAW double counting   =     19628.62971971   -19728.15769745
  entropy T*S    EENTRO =        -0.02729456
  eigenvalues    EBANDS =     -4032.79046002
  atomic energy  EATOM  =     12065.75791449
  Solvation  Ediel_sol  =         0.00000000
  ---------------------------------------------------
  free energy    TOTEN  =      -662.36368393 eV

  energy without entropy =     -662.33638938  energy(sigma->0) =     -662.35003665


--------------------------------------------------------------------------------------------------------




--------------------------------------- Iteration      1(   9)  ---------------------------------------


    POTLOK:  cpu time    0.5346: real time    0.5396
    SETDIJ:  cpu time    0.0154: real time    0.0157
    EDDIAG:  cpu time    3.2782: real time    3.3048
  RMM-DIIS:  cpu time   12.9109: real time   13.0054
    ORTHCH:  cpu time    0.4270: real time    0.4287
       DOS:  cpu time    0.0010: real time    0.0010
    CHARGE:  cpu time    0.9933: real time    1.0031
    MIXING:  cpu time    0.0121: real time    0.0123
    --------------------------------------------
      LOOP:  cpu time   18.1726: real time   18.3106

 eigenvalue-minimisations  :  2970
 total energy-change (2. order) : 0.1522048E+02  (-0.1997370E+01)
 number of electron     293.0000001 magnetization       0.2571483
 augmentation part       12.1853652 magnetization       0.2703597

 Broyden mixing:
  rms(total) = 0.11590E+01    rms(broyden)= 0.11589E+01
  rms(prec ) = 0.13069E+01
  weight for this iteration     100.00

 eigenvalues of (default mixing * dielectric matrix)
  average eigenvalue GAMMA=   0.9095
  2.2141  0.7230  0.3504  0.3504

 Free energy of the ion-electron system (eV)
  ---------------------------------------------------
  alpha Z        PSCENC =       156.95040625
  Ewald energy   TEWEN  =     30374.90602896
  -Hartree energ DENC   =    -40440.34743441
  -exchange      EXHF   =         0.00000000
  -V(xc)+E(xc)   XCENC  =      1020.40528678
  PAW double counting   =     27808.57693297   -27910.87557483
  entropy T*S    EENTRO =        -0.00559254
  eigenvalues    EBANDS =     -3722.51116764
  atomic energy  EATOM  =     12065.75791449
  Solvation  Ediel_sol  =         0.00000000
  ---------------------------------------------------
  free energy    TOTEN  =      -647.14319998 eV

  energy without entropy =     -647.13760744  energy(sigma->0) =     -647.14040371


--------------------------------------------------------------------------------------------------------




--------------------------------------- Iteration      1(  10)  ---------------------------------------


    POTLOK:  cpu time    0.5051: real time    0.5093
    SETDIJ:  cpu time    0.0149: real time    0.0152
    EDDIAG:  cpu time    3.2339: real time    3.2600
  RMM-DIIS:  cpu time   13.1165: real time   13.2269
    ORTHCH:  cpu time    0.3543: real time    0.3960
       DOS:  cpu time    0.0010: real time    0.0010
    CHARGE:  cpu time    1.0094: real time    1.0196
    MIXING:  cpu time    0.0120: real time    0.0121
    --------------------------------------------
      LOOP:  cpu time   18.2470: real time   18.4401

 eigenvalue-minimisations  :  2992
 total energy-change (2. order) :-0.4449077E+00  (-0.2998208E+00)
 number of electron     293.0000005 magnetization       0.2024757
 augmentation part       13.7635758 magnetization       0.2247004

 Broyden mixing:
  rms(total) = 0.14425E+01    rms(broyden)= 0.14421E+01
  rms(prec ) = 0.17970E+01
  weight for this iteration     100.00

 eigenvalues of (default mixing * dielectric matrix)
  average eigenvalue GAMMA=   0.9169
  2.3382  1.0697  0.3468  0.3468  0.4832

 Free energy of the ion-electron system (eV)
  ---------------------------------------------------
  alpha Z        PSCENC =       156.95040625
  Ewald energy   TEWEN  =     30374.90602896
  -Hartree energ DENC   =    -40484.01298690
  -exchange      EXHF   =         0.00000000
  -V(xc)+E(xc)   XCENC  =      1021.36078970
  PAW double counting   =     29320.67809843   -29421.85926877
  entropy T*S    EENTRO =        -0.00202288
  eigenvalues    EBANDS =     -3681.36706697
  atomic energy  EATOM  =     12065.75791449
  Solvation  Ediel_sol  =         0.00000000
  ---------------------------------------------------
  free energy    TOTEN  =      -647.58810769 eV

  energy without entropy =     -647.58608480  energy(sigma->0) =     -647.58709625


--------------------------------------------------------------------------------------------------------




--------------------------------------- Iteration      1(  11)  ---------------------------------------


    POTLOK:  cpu time    0.5200: real time    0.5255
    SETDIJ:  cpu time    0.0138: real time    0.0139
    EDDIAG:  cpu time    3.2383: real time    3.2706
  RMM-DIIS:  cpu time   13.5465: real time   13.6485
    ORTHCH:  cpu time    0.2628: real time    0.2765
       DOS:  cpu time    0.0011: real time    0.0011
    CHARGE:  cpu time    1.0091: real time    1.0182
    MIXING:  cpu time    0.0122: real time    0.0123
    --------------------------------------------
      LOOP:  cpu time   18.6038: real time   18.7666

 eigenvalue-minimisations  :  3122
 total energy-change (2. order) : 0.1045784E+01  (-0.4026393E-01)
 number of electron     293.0000002 magnetization       0.1386182
 augmentation part       12.5423428 magnetization       0.1121905

 Broyden mixing:
  rms(total) = 0.76018E+00    rms(broyden)= 0.75962E+00
  rms(prec ) = 0.80832E+00
  weight for this iteration     100.00

 eigenvalues of (default mixing * dielectric matrix)
  average eigenvalue GAMMA=   0.9673
  2.0557  2.0557  0.6396  0.3447  0.3447  0.3636

 Free energy of the ion-electron system (eV)
  ---------------------------------------------------
  alpha Z        PSCENC =       156.95040625
  Ewald energy   TEWEN  =     30374.90602896
  -Hartree energ DENC   =    -40517.24173779
  -exchange      EXHF   =         0.00000000
  -V(xc)+E(xc)   XCENC  =      1021.79195399
  PAW double counting   =     29985.78200003   -30086.28504167
  entropy T*S    EENTRO =        -0.03436351
  eigenvalues    EBANDS =     -3648.16948468
  atomic energy  EATOM  =     12065.75791449
  Solvation  Ediel_sol  =         0.00000000
  ---------------------------------------------------
  free energy    TOTEN  =      -646.54232391 eV

  energy without entropy =     -646.50796040  energy(sigma->0) =     -646.52514215


--------------------------------------------------------------------------------------------------------




--------------------------------------- Iteration      1(  12)  ---------------------------------------


    POTLOK:  cpu time    0.5198: real time    0.5250
    SETDIJ:  cpu time    0.0148: real time    0.0149
    EDDIAG:  cpu time    3.2341: real time    3.2588
  RMM-DIIS:  cpu time   12.8980: real time   12.9901
    ORTHCH:  cpu time    0.4330: real time    0.4710
       DOS:  cpu time    0.0011: real time    0.0011
    CHARGE:  cpu time    1.0035: real time    1.0174
    MIXING:  cpu time    0.0113: real time    0.0114
    --------------------------------------------
      LOOP:  cpu time   18.1156: real time   18.2896

 eigenvalue-minimisations  :  2944
 total energy-change (2. order) : 0.1249922E+00  (-0.1638143E-01)
 number of electron     293.0000003 magnetization       0.1587119
 augmentation part       12.9198375 magnetization      -0.2089295

 Broyden mixing:
  rms(total) = 0.65740E+00    rms(broyden)= 0.65713E+00
  rms(prec ) = 0.68467E+00
  weight for this iteration     100.00

 eigenvalues of (default mixing * dielectric matrix)
  average eigenvalue GAMMA=   0.8565
  2.1073  2.1073  0.5580  0.3460  0.3460  0.3720  0.1589

 Free energy of the ion-electron system (eV)
  ---------------------------------------------------
  alpha Z        PSCENC =       156.95040625
  Ewald energy   TEWEN  =     30374.90602896
  -Hartree energ DENC   =    -40543.44439711
  -exchange      EXHF   =         0.00000000
  -V(xc)+E(xc)   XCENC  =      1021.39112394
  PAW double counting   =     30436.76775339   -30535.74449446
  entropy T*S    EENTRO =        -0.05211152
  eigenvalues    EBANDS =     -3622.94955562
  atomic energy  EATOM  =     12065.75791449
  Solvation  Ediel_sol  =         0.00000000
  ---------------------------------------------------
  free energy    TOTEN  =      -646.41733169 eV

  energy without entropy =     -646.36522016  energy(sigma->0) =     -646.39127592


--------------------------------------------------------------------------------------------------------




--------------------------------------- Iteration      1(  13)  ---------------------------------------


    POTLOK:  cpu time    0.5312: real time    0.5360
    SETDIJ:  cpu time    0.0153: real time    0.0154
    EDDIAG:  cpu time    3.3296: real time    3.3677
  RMM-DIIS:  cpu time   13.0088: real time   13.0977
    ORTHCH:  cpu time    0.3210: real time    0.3285
       DOS:  cpu time    0.0010: real time    0.0010
    CHARGE:  cpu time    0.9740: real time    0.9826
    MIXING:  cpu time    0.0128: real time    0.0129
    --------------------------------------------
      LOOP:  cpu time   18.1938: real time   18.3417

 eigenvalue-minimisations  :  2988
 total energy-change (2. order) :-0.1025759E+00  (-0.2740910E-02)
 number of electron     293.0000003 magnetization       0.0571596
 augmentation part       12.9543603 magnetization      -0.4200007

 Broyden mixing:
  rms(total) = 0.72495E+00    rms(broyden)= 0.72491E+00
  rms(prec ) = 0.75552E+00
  weight for this iteration     100.00

 eigenvalues of (default mixing * dielectric matrix)
  average eigenvalue GAMMA=   0.8686
  2.1739  2.1739  0.6789  0.3455  0.3455  0.5261  0.3253  0.3797

 Free energy of the ion-electron system (eV)
  ---------------------------------------------------
  alpha Z        PSCENC =       156.95040625
  Ewald energy   TEWEN  =     30374.90602896
  -Hartree energ DENC   =    -40545.87583721
  -exchange      EXHF   =         0.00000000
  -V(xc)+E(xc)   XCENC  =      1021.41288984
  PAW double counting   =     30444.43104879   -30543.31573203
  entropy T*S    EENTRO =        -0.02945442
  eigenvalues    EBANDS =     -3620.75717222
  atomic energy  EATOM  =     12065.75791449
  Solvation  Ediel_sol  =         0.00000000
  ---------------------------------------------------
  free energy    TOTEN  =      -646.51990754 eV

  energy without entropy =     -646.49045312  energy(sigma->0) =     -646.50518033


--------------------------------------------------------------------------------------------------------




--------------------------------------- Iteration      1(  14)  ---------------------------------------


    POTLOK:  cpu time    0.5288: real time    0.5323
    SETDIJ:  cpu time    0.0151: real time    0.0152
    EDDIAG:  cpu time    3.2372: real time    3.2635
  RMM-DIIS:  cpu time   13.1276: real time   13.2323
    ORTHCH:  cpu time    0.3888: real time    0.4095
       DOS:  cpu time    0.0011: real time    0.0010
    CHARGE:  cpu time    1.0110: real time    1.0242
    MIXING:  cpu time    0.0135: real time    0.0139
    --------------------------------------------
      LOOP:  cpu time   18.3232: real time   18.4919

 eigenvalue-minimisations  :  2968
 total energy-change (2. order) : 0.1833088E+00  (-0.2843165E-02)
 number of electron     293.0000003 magnetization       0.0510922
 augmentation part       13.0232516 magnetization      -0.2906683

 Broyden mixing:
  rms(total) = 0.70715E+00    rms(broyden)= 0.70713E+00
  rms(prec ) = 0.75777E+00
  weight for this iteration     100.00

 eigenvalues of (default mixing * dielectric matrix)
  average eigenvalue GAMMA=   0.8348
  2.2161  2.2161  0.6931  0.5130  0.3450  0.3450  0.3304  0.4271  0.4271

 Free energy of the ion-electron system (eV)
  ---------------------------------------------------
  alpha Z        PSCENC =       156.95040625
  Ewald energy   TEWEN  =     30374.90602896
  -Hartree energ DENC   =    -40549.31382125
  -exchange      EXHF   =         0.00000000
  -V(xc)+E(xc)   XCENC  =      1021.42765515
  PAW double counting   =     30530.16242490   -30628.91927327
  entropy T*S    EENTRO =        -0.05604814
  eigenvalues    EBANDS =     -3617.25188584
  atomic energy  EATOM  =     12065.75791449
  Solvation  Ediel_sol  =         0.00000000
  ---------------------------------------------------
  free energy    TOTEN  =      -646.33659875 eV

  energy without entropy =     -646.28055062  energy(sigma->0) =     -646.30857468


--------------------------------------------------------------------------------------------------------




--------------------------------------- Iteration      1(  15)  ---------------------------------------


    POTLOK:  cpu time    0.5368: real time    0.5418
    SETDIJ:  cpu time    0.0157: real time    0.0157
    EDDIAG:  cpu time    3.2301: real time    3.2525
  RMM-DIIS:  cpu time   14.2671: real time   14.3821
    ORTHCH:  cpu time    0.3140: real time    0.3154
       DOS:  cpu time    0.0009: real time    0.0009
    CHARGE:  cpu time    1.0033: real time    1.0138
    MIXING:  cpu time    0.0136: real time    0.0136
    --------------------------------------------
      LOOP:  cpu time   19.3817: real time   19.5358

 eigenvalue-minimisations  :  3259
 total energy-change (2. order) :-0.1173253E-01  (-0.3408710E-03)
 number of electron     293.0000003 magnetization       0.0870142
 augmentation part       13.0230076 magnetization      -0.1341990

 Broyden mixing:
  rms(total) = 0.61731E+00    rms(broyden)= 0.61728E+00
  rms(prec ) = 0.67458E+00
  weight for this iteration     100.00

 eigenvalues of (default mixing * dielectric matrix)
  average eigenvalue GAMMA=   0.7767
  2.2123  2.2123  0.3313  0.6692  0.6692  0.3397  0.3462  0.3462  0.3202  0.3202

 Free energy of the ion-electron system (eV)
  ---------------------------------------------------
  alpha Z        PSCENC =       156.95040625
  Ewald energy   TEWEN  =     30374.90602896
  -Hartree energ DENC   =    -40549.52513948
  -exchange      EXHF   =         0.00000000
  -V(xc)+E(xc)   XCENC  =      1021.42817901
  PAW double counting   =     30529.83459091   -30628.61252179
  entropy T*S    EENTRO =        -0.06970393
  eigenvalues    EBANDS =     -3617.01808570
  atomic energy  EATOM  =     12065.75791449
  Solvation  Ediel_sol  =         0.00000000
  ---------------------------------------------------
  free energy    TOTEN  =      -646.34833128 eV

  energy without entropy =     -646.27862735  energy(sigma->0) =     -646.31347932


--------------------------------------------------------------------------------------------------------




--------------------------------------- Iteration      1(  16)  ---------------------------------------


    POTLOK:  cpu time    0.5409: real time    0.5452
    SETDIJ:  cpu time    0.0128: real time    0.0151
    EDDIAG:  cpu time    3.2529: real time    3.2893
  RMM-DIIS:  cpu time   12.6441: real time   12.7320
    ORTHCH:  cpu time    0.2495: real time    0.2540
       DOS:  cpu time    0.0010: real time    0.0010
    CHARGE:  cpu time    0.9775: real time    0.9904
    MIXING:  cpu time    0.0122: real time    0.0123
    --------------------------------------------
      LOOP:  cpu time   17.6909: real time   17.8392

 eigenvalue-minimisations  :  2948
 total energy-change (2. order) :-0.6512828E-01  (-0.2181020E-02)
 number of electron     293.0000003 magnetization       0.0807858
 augmentation part       12.9805974 magnetization      -0.3158385

 Broyden mixing:
  rms(total) = 0.68856E+00    rms(broyden)= 0.68852E+00
  rms(prec ) = 0.72843E+00
  weight for this iteration     100.00

 eigenvalues of (default mixing * dielectric matrix)
  average eigenvalue GAMMA=   0.7738
  2.1967  2.1967  0.3698  0.7176  0.7176  0.6765  0.3450  0.3450  0.4599  0.3257
  0.1608

 Free energy of the ion-electron system (eV)
  ---------------------------------------------------
  alpha Z        PSCENC =       156.95040625
  Ewald energy   TEWEN  =     30374.90602896
  -Hartree energ DENC   =    -40566.46564379
  -exchange      EXHF   =         0.00000000
  -V(xc)+E(xc)   XCENC  =      1021.71030700
  PAW double counting   =     30494.44055420   -30593.26306671
  entropy T*S    EENTRO =        -0.03738757
  eigenvalues    EBANDS =     -3600.41257239
  atomic energy  EATOM  =     12065.75791449
  Solvation  Ediel_sol  =         0.00000000
  ---------------------------------------------------
  free energy    TOTEN  =      -646.41345956 eV

  energy without entropy =     -646.37607199  energy(sigma->0) =     -646.39476578


--------------------------------------------------------------------------------------------------------




--------------------------------------- Iteration      1(  17)  ---------------------------------------


    POTLOK:  cpu time    0.5277: real time    0.5319
    SETDIJ:  cpu time    0.0154: real time    0.0155
    EDDIAG:  cpu time    3.1940: real time    3.2227
  RMM-DIIS:  cpu time   12.9017: real time   12.9959
    ORTHCH:  cpu time    0.2231: real time    0.2249
       DOS:  cpu time    0.0010: real time    0.0010
    CHARGE:  cpu time    0.9955: real time    1.0039
    MIXING:  cpu time    0.0130: real time    0.0131
    --------------------------------------------
      LOOP:  cpu time   17.8715: real time   18.0088

 eigenvalue-minimisations  :  2975
 total energy-change (2. order) :-0.1318370E-02  (-0.6188157E-02)
 number of electron     293.0000003 magnetization       0.1168681
 augmentation part       12.7904276 magnetization      -0.2326167

 Broyden mixing:
  rms(total) = 0.47130E+00    rms(broyden)= 0.47128E+00
  rms(prec ) = 0.47759E+00
  weight for this iteration     100.00

 eigenvalues of (default mixing * dielectric matrix)
  average eigenvalue GAMMA=   0.8588
  2.2353  2.2353  1.2627  1.2627  0.3815  0.7751  0.5790  0.3448  0.3448  0.3777
  0.3080  0.1981

 Free energy of the ion-electron system (eV)
  ---------------------------------------------------
  alpha Z        PSCENC =       156.95040625
  Ewald energy   TEWEN  =     30374.90602896
  -Hartree energ DENC   =    -40598.33764170
  -exchange      EXHF   =         0.00000000
  -V(xc)+E(xc)   XCENC  =      1022.11635943
  PAW double counting   =     30402.96464422   -30501.69854038
  entropy T*S    EENTRO =        -0.03464228
  eigenvalues    EBANDS =     -3569.03930691
  atomic energy  EATOM  =     12065.75791449
  Solvation  Ediel_sol  =         0.00000000
  ---------------------------------------------------
  free energy    TOTEN  =      -646.41477793 eV

  energy without entropy =     -646.38013565  energy(sigma->0) =     -646.39745679


--------------------------------------------------------------------------------------------------------




--------------------------------------- Iteration      1(  18)  ---------------------------------------


    POTLOK:  cpu time    0.5268: real time    0.5306
    SETDIJ:  cpu time    0.0150: real time    0.0152
    EDDIAG:  cpu time    3.2025: real time    3.2266
  RMM-DIIS:  cpu time   12.9623: real time   13.0610
    ORTHCH:  cpu time    0.2489: real time    0.2504
       DOS:  cpu time    0.0010: real time    0.0010
    CHARGE:  cpu time    0.9759: real time    0.9887
    MIXING:  cpu time    0.0145: real time    0.0147
    --------------------------------------------
      LOOP:  cpu time   17.9469: real time   18.0880

 eigenvalue-minimisations  :  2970
 total energy-change (2. order) :-0.8782369E-01  (-0.3920952E-02)
 number of electron     293.0000003 magnetization       0.1243085
 augmentation part       12.8737027 magnetization      -0.2194758

 Broyden mixing:
  rms(total) = 0.41740E+00    rms(broyden)= 0.41739E+00
  rms(prec ) = 0.44012E+00
  weight for this iteration     100.00

 eigenvalues of (default mixing * dielectric matrix)
  average eigenvalue GAMMA=   0.8932
  2.4860  2.4860  1.3702  1.3702  0.3835  0.8513  0.3447  0.3447  0.5594  0.4537
  0.4537  0.3159  0.1920

 Free energy of the ion-electron system (eV)
  ---------------------------------------------------
  alpha Z        PSCENC =       156.95040625
  Ewald energy   TEWEN  =     30374.90602896
  -Hartree energ DENC   =    -40623.37974772
  -exchange      EXHF   =         0.00000000
  -V(xc)+E(xc)   XCENC  =      1022.37103520
  PAW double counting   =     30346.35519219   -30444.92834511
  entropy T*S    EENTRO =        -0.02376954
  eigenvalues    EBANDS =     -3544.51131634
  atomic energy  EATOM  =     12065.75791449
  Solvation  Ediel_sol  =         0.00000000
  ---------------------------------------------------
  free energy    TOTEN  =      -646.50260162 eV

  energy without entropy =     -646.47883208  energy(sigma->0) =     -646.49071685


--------------------------------------------------------------------------------------------------------




--------------------------------------- Iteration      1(  19)  ---------------------------------------


    POTLOK:  cpu time    0.5345: real time    0.5387
    SETDIJ:  cpu time    0.0154: real time    0.0155
    EDDIAG:  cpu time    3.1989: real time    3.2226
  RMM-DIIS:  cpu time   13.6554: real time   13.7714
    ORTHCH:  cpu time    0.2203: real time    0.2287
       DOS:  cpu time    0.0011: real time    0.0011
    CHARGE:  cpu time    1.0148: real time    1.0259
    MIXING:  cpu time    0.0150: real time    0.0151
    --------------------------------------------
      LOOP:  cpu time   18.6554: real time   18.8190

 eigenvalue-minimisations  :  3153
 total energy-change (2. order) : 0.4559675E-02  (-0.1755421E-02)
 number of electron     293.0000003 magnetization       0.1631579
 augmentation part       12.7962944 magnetization      -0.1793039

 Broyden mixing:
  rms(total) = 0.34321E+00    rms(broyden)= 0.34320E+00
  rms(prec ) = 0.34970E+00
  weight for this iteration     100.00

 eigenvalues of (default mixing * dielectric matrix)
  average eigenvalue GAMMA=   0.8809
  2.4476  2.4476  1.4558  1.4558  0.3839  0.8168  0.6291  0.6291  0.3448  0.3448
  0.4785  0.3909  0.3143  0.1933

 Free energy of the ion-electron system (eV)
  ---------------------------------------------------
  alpha Z        PSCENC =       156.95040625
  Ewald energy   TEWEN  =     30374.90602896
  -Hartree energ DENC   =    -40638.02630606
  -exchange      EXHF   =         0.00000000
  -V(xc)+E(xc)   XCENC  =      1022.48143547
  PAW double counting   =     30337.48219060   -30435.93026458
  entropy T*S    EENTRO =        -0.02578557
  eigenvalues    EBANDS =     -3530.09366150
  atomic energy  EATOM  =     12065.75791449
  Solvation  Ediel_sol  =         0.00000000
  ---------------------------------------------------
  free energy    TOTEN  =      -646.49804194 eV

  energy without entropy =     -646.47225637  energy(sigma->0) =     -646.48514916


--------------------------------------------------------------------------------------------------------




--------------------------------------- Iteration      1(  20)  ---------------------------------------


    POTLOK:  cpu time    0.5344: real time    0.5390
    SETDIJ:  cpu time    0.0150: real time    0.0152
    EDDIAG:  cpu time    3.1800: real time    3.2036
  RMM-DIIS:  cpu time   13.1135: real time   13.2037
    ORTHCH:  cpu time    0.2338: real time    0.2351
       DOS:  cpu time    0.0009: real time    0.0009
    CHARGE:  cpu time    0.9777: real time    0.9862
    MIXING:  cpu time    0.0145: real time    0.0148
    --------------------------------------------
      LOOP:  cpu time   18.0698: real time   18.1986

 eigenvalue-minimisations  :  2994
 total energy-change (2. order) :-0.1466280E-01  (-0.9580281E-03)
 number of electron     293.0000003 magnetization       0.1983957
 augmentation part       12.7923487 magnetization      -0.1493467

 Broyden mixing:
  rms(total) = 0.30666E+00    rms(broyden)= 0.30666E+00
  rms(prec ) = 0.31212E+00
  weight for this iteration     100.00

 eigenvalues of (default mixing * dielectric matrix)
  average eigenvalue GAMMA=   0.9622
  2.5515  2.5515  1.7460  1.7460  0.3841  0.9873  0.9873  0.7992  0.3448  0.3448
  0.6034  0.4400  0.4400  0.3150  0.1929

 Free energy of the ion-electron system (eV)
  ---------------------------------------------------
  alpha Z        PSCENC =       156.95040625
  Ewald energy   TEWEN  =     30374.90602896
  -Hartree energ DENC   =    -40651.48281792
  -exchange      EXHF   =         0.00000000
  -V(xc)+E(xc)   XCENC  =      1022.57949551
  PAW double counting   =     30320.92575453   -30419.31244834
  entropy T*S    EENTRO =        -0.02507787
  eigenvalues    EBANDS =     -3516.81196035
  atomic energy  EATOM  =     12065.75791449
  Solvation  Ediel_sol  =         0.00000000
  ---------------------------------------------------
  free energy    TOTEN  =      -646.51270474 eV

  energy without entropy =     -646.48762687  energy(sigma->0) =     -646.50016580


[...]
  E(xc)   -1111.06538 -1110.72696 -1150.17548    -0.01054    -0.00236    -0.00211
  Local  -83747.26198-83745.48133 86090.63466     9.33641    14.12100    -4.65577
  n-local  -289.58452  -286.91620  -269.71576     0.23161    -0.02830    -0.02155
  augment    66.57961    64.94959    65.50845     0.04927     0.05969    -0.02251
  Kinetic  4383.75760  4370.93222  4985.10687     0.18196     0.50297    -0.12731
  Fock        0.00000     0.00000     0.00000     0.00000     0.00000     0.00000
  vdW        -1.51032    -1.66353    -0.04114    -0.00848     0.00025     0.00060
  -------------------------------------------------------------------------------------
  Total       0.03468     0.30437    -0.72876    -0.10136    -0.00135    -0.00815
  in kB       0.01954     0.17152    -0.41067    -0.05712    -0.00076    -0.00459
  external pressure =       -0.07 kB  Pullay stress =        0.00 kB


 VOLUME and BASIS-vectors are now :
 -----------------------------------------------------------------------------
  energy-cutoff  :      550.00
  volume of cell :     2843.14
      direct lattice vectors                 reciprocal lattice vectors
    14.858866394  0.000814954  0.000000000     0.067297735  0.039196617  0.000000000
    -7.429433197 12.755795406  0.000000000    -0.000004300  0.078393234  0.000000000
     0.000000000  0.000000000 15.000000000     0.000000000  0.000000000  0.066666667

  length of vectors
    14.858866416 14.761666372 15.000000000     0.077880421  0.078393234  0.066666667


 FORCES acting on ions
    electron-ion (+dipol)            ewald-force                    non-local-force                 convergence-correction
 -----------------------------------------------------------------------------------------------
   0.121E+01 0.607E+00 0.786E+01   -.117E+01 -.604E+00 -.789E+01   -.310E-01 0.103E-01 0.271E-01   -.230E-02 -.834E-03 -.128E-03
   -.276E+01 -.425E+00 0.767E+01   0.290E+01 0.471E+00 -.770E+01   -.135E+00 -.625E-01 0.237E-01   -.215E-02 -.440E-03 -.142E-03
   0.951E+00 0.782E+00 0.733E+01   -.107E+01 -.636E+00 -.736E+01   0.103E+00 -.141E+00 0.252E-01   0.228E-02 0.180E-03 -.167E-03
   -.117E+01 0.354E+00 0.754E+01   0.114E+01 -.245E+00 -.754E+01   0.303E-01 -.121E+00 0.601E-02   0.283E-02 0.239E-03 -.116E-03
   0.369E+01 0.111E+01 0.662E+01   -.429E+01 -.693E+00 -.665E+01   0.569E+00 -.421E+00 0.191E-01   0.305E-02 0.313E-03 -.261E-03
   0.605E+01 -.166E+01 0.691E+01   -.637E+01 0.191E+01 -.691E+01   0.325E+00 -.263E+00 0.191E-03   0.289E-02 -.263E-04 -.190E-03
   0.212E+02 -.135E+02 0.755E+01   -.264E+02 0.166E+02 -.758E+01   0.527E+01 -.308E+01 0.360E-01   0.279E-03 -.536E-03 0.771E-04
   0.829E+01 -.869E+01 0.767E+01   -.868E+01 0.101E+02 -.770E+01   0.377E+00 -.146E+01 0.258E-01   -.232E-03 0.296E-03 0.961E-04
   -.255E+02 -.134E+02 0.767E+01   0.309E+02 0.164E+02 -.772E+01   -.546E+01 -.293E+01 0.422E-01   -.754E-03 -.966E-03 -.937E-05
   -.689E+01 -.937E+01 0.739E+01   0.722E+01 0.106E+02 -.742E+01   -.325E+00 -.124E+01 0.278E-01   -.112E-02 -.853E-03 -.557E-04
   -.176E+01 -.158E+00 0.701E+01   0.228E+01 0.354E+00 -.703E+01   -.496E+00 -.190E+00 0.100E-01   -.265E-02 -.135E-02 -.301E-03
   -.423E+01 -.229E+01 0.654E+01   0.450E+01 0.233E+01 -.656E+01   -.270E+00 -.412E-01 0.165E-01   -.223E-02 -.160E-02 -.309E-03
   0.658E+00 0.350E+01 0.681E+01   -.516E+00 -.347E+01 -.682E+01   -.142E+00 -.333E-01 0.399E-02   -.209E-02 -.969E-03 -.268E-03
   0.456E+00 0.235E+01 0.645E+01   -.359E+00 -.233E+01 -.647E+01   -.953E-01 -.132E-02 0.229E-01   -.144E-02 -.958E-03 -.245E-03
   0.211E+01 0.461E+01 0.881E+01   -.206E+01 -.445E+01 -.884E+01   -.617E-01 -.189E+00 0.241E-01   0.564E-03 0.512E-03 -.298E-04
   -.188E+01 0.715E+01 0.994E+01   0.238E+01 -.690E+01 -.100E+02   -.492E+00 -.248E+00 0.819E-01   0.631E-03 0.868E-03 0.880E-05
   0.849E+00 0.598E+01 0.732E+01   -.102E+01 -.551E+01 -.735E+01   0.171E+00 -.510E+00 0.252E-01   0.309E-02 0.100E-03 -.191E-03
   0.798E+00 0.595E+01 0.589E+01   -.847E+00 -.521E+01 -.550E+01   0.573E-01 -.733E+00 -.390E+00   0.267E-02 -.907E-03 -.180E-03
   -.618E+00 0.995E+00 0.828E+01   -.312E-02 -.501E+00 -.830E+01   0.621E+00 -.484E+00 0.146E-01   0.145E-02 -.739E-03 -.301E-04
   0.355E+01 0.604E+01 0.984E+01   -.414E+01 -.557E+01 -.992E+01   0.601E+00 -.467E+00 0.783E-01   0.103E-02 -.156E-02 0.104E-04
   -.169E+01 -.452E+01 0.783E+01   0.173E+01 0.532E+01 -.784E+01   -.429E-01 -.796E+00 0.126E-01   -.133E-02 -.688E-03 0.786E-04
   -.162E+01 -.112E+01 0.810E+01   0.157E+01 0.159E+01 -.813E+01   0.444E-01 -.455E+00 0.284E-01   -.151E-02 -.254E-02 0.769E-04
   -.103E+01 -.132E+01 0.599E+01   0.161E+01 0.162E+01 -.597E+01   -.570E+00 -.263E+00 -.168E-01   -.176E-02 -.194E-02 -.246E-03
   -.185E+01 0.106E+01 0.597E+01   0.193E+01 -.887E+00 -.600E+01   -.828E-01 -.151E+00 0.207E-01   -.160E-02 -.209E-02 -.322E-03
   0.168E+01 0.196E+01 0.520E+01   -.154E+01 -.192E+01 -.518E+01   -.128E+00 -.326E-01 -.237E-01   -.727E-03 -.869E-03 -.407E-03
   0.255E+01 0.481E+01 0.564E+01   -.252E+01 -.481E+01 -.567E+01   -.364E-01 0.465E-02 0.264E-01   0.607E-03 0.305E-03 -.405E-03
   0.455E+01 0.993E+01 0.686E+01   -.429E+01 -.998E+01 -.683E+01   -.271E+00 0.582E-01 -.275E-01   0.313E-03 0.742E-03 0.325E-04
   0.116E+02 0.744E+01 0.533E+01   -.114E+02 -.739E+01 -.545E+01   -.247E+00 -.436E-01 0.111E+00   0.693E-03 0.247E-02 0.209E-04
   -.134E+01 0.178E+02 0.119E+02   0.157E+01 -.168E+02 -.122E+02   -.220E+00 -.958E+00 0.214E+00   0.115E-02 0.818E-03 -.109E-03
   -.834E+01 0.353E+02 0.269E+02   0.146E+02 -.318E+02 -.261E+02   -.623E+01 -.350E+01 -.782E+00   0.511E-03 0.133E-02 0.188E-03
   0.161E+01 0.171E+02 0.112E+02   -.196E+01 -.161E+02 -.114E+02   0.354E+00 -.106E+01 0.212E+00   0.193E-02 -.118E-02 0.335E-04
   0.863E+01 0.344E+02 0.226E+02   -.148E+02 -.308E+02 -.217E+02   0.622E+01 -.357E+01 -.912E+00   0.391E-03 -.543E-03 0.784E-03
   -.399E+01 0.749E+01 0.789E+01   0.369E+01 -.736E+01 -.785E+01   0.315E+00 -.132E+00 -.353E-01   -.826E-03 -.256E-02 0.188E-03
   -.117E+02 0.553E+01 0.694E+01   0.114E+02 -.532E+01 -.705E+01   0.296E+00 -.221E+00 0.120E+00   -.127E-02 -.199E-02 0.259E-03
   -.195E+01 0.773E+00 0.663E+01   0.200E+01 -.641E+00 -.661E+01   -.490E-01 -.131E+00 -.208E-01   -.177E-02 -.252E-02 -.128E-03
   -.367E+01 0.325E+01 0.754E+01   0.365E+01 -.317E+01 -.758E+01   0.300E-01 -.784E-01 0.410E-01   -.136E-02 -.165E-02 -.726E-04
   0.748E+00 0.265E+00 0.642E+01   -.714E+00 -.281E+00 -.644E+01   -.333E-01 -.369E-03 0.154E-01   0.702E-03 -.162E-03 -.399E-03
   0.828E+00 -.150E+00 0.634E+01   -.894E+00 0.814E-01 -.636E+01   0.712E-01 0.887E-01 0.127E-01   0.153E-02 0.802E-03 -.388E-03
   0.581E+01 0.133E+01 0.376E+01   -.574E+01 -.146E+01 -.371E+01   -.560E-01 0.101E+00 -.444E-01   0.951E-03 0.227E-02 -.197E-03
   0.491E+01 0.148E+01 0.387E+01   -.497E+01 -.165E+01 -.383E+01   0.523E-01 0.180E+00 -.429E-01   0.169E-02 0.214E-02 -.374E-03
   0.250E+02 0.957E+01 0.134E+02   -.241E+02 -.102E+02 -.140E+02   -.856E+00 0.621E+00 0.568E+00   -.506E-04 0.209E-02 0.731E-04
   0.243E+02 -.346E+01 0.141E+02   -.234E+02 0.361E+01 -.146E+02   -.892E+00 -.155E+00 0.548E+00   -.111E-02 0.230E-02 0.470E-03
   -.253E+02 0.773E+01 0.125E+02   0.243E+02 -.816E+01 -.130E+02   0.897E+00 0.452E+00 0.539E+00   -.441E-03 -.154E-02 0.899E-04
   -.259E+02 -.787E+01 0.130E+02   0.250E+02 0.828E+01 -.135E+02   0.845E+00 -.436E+00 0.514E+00   -.770E-03 0.933E-04 -.397E-03
   -.486E+01 -.242E+00 0.661E+01   0.478E+01 0.268E+00 -.657E+01   0.728E-01 -.368E-01 -.272E-01   -.116E-02 -.110E-02 0.282E-03
   -.499E+01 -.610E+00 0.659E+01   0.491E+01 0.624E+00 -.657E+01   0.884E-01 -.360E-02 -.205E-01   -.873E-03 -.836E-03 0.195E-03
   -.279E+01 -.399E+01 0.738E+01   0.272E+01 0.396E+01 -.741E+01   0.790E-01 0.565E-02 0.367E-01   0.349E-03 0.249E-03 -.707E-04
   -.101E+01 -.273E+01 0.658E+01   0.854E+00 0.275E+01 -.657E+01   0.162E+00 -.777E-02 -.191E-01   0.118E-02 -.952E-05 -.155E-03
   0.555E+01 -.308E+01 0.549E+01   -.560E+01 0.292E+01 -.552E+01   0.392E-01 0.147E+00 0.279E-01   0.309E-02 0.202E-02 -.499E-03
   0.538E+01 -.981E+00 0.523E+01   -.577E+01 0.760E+00 -.521E+01   0.378E+00 0.218E+00 -.199E-01   0.349E-02 0.104E-02 -.508E-03
   0.145E+02 -.355E+01 0.660E+01   -.143E+02 0.276E+01 -.675E+01   -.268E+00 0.768E+00 0.138E+00   0.700E-03 0.246E-02 -.182E-03
   0.849E+01 0.440E+00 0.718E+01   -.930E+01 -.135E+01 -.715E+01   0.804E+00 0.912E+00 -.359E-01   0.247E-03 0.962E-03 -.708E-04
   -.101E+02 -.304E+02 0.225E+02   0.166E+02 0.262E+02 -.215E+02   -.649E+01 0.424E+01 -.101E+01   -.248E-02 0.289E-02 0.118E-02
   -.621E+01 -.851E+01 0.107E+02   0.749E+01 0.649E+01 -.108E+02   -.128E+01 0.202E+01 0.118E+00   -.126E-02 0.189E-02 0.995E-03
   0.573E+01 -.342E+02 0.249E+02   -.119E+02 0.304E+02 -.241E+02   0.623E+01 0.374E+01 -.850E+00   -.716E-03 0.844E-03 -.302E-03
   -.273E+01 -.153E+02 0.114E+02   0.285E+01 0.140E+02 -.116E+02   -.973E-01 0.123E+01 0.226E+00   -.166E-02 0.183E-02 -.468E-03
   -.121E+02 -.628E+01 0.734E+01   0.118E+02 0.616E+01 -.747E+01   0.240E+00 0.112E+00 0.120E+00   -.172E-02 -.137E-03 -.849E-04
   -.488E+01 -.946E+01 0.788E+01   0.475E+01 0.948E+01 -.785E+01   0.132E+00 -.226E-01 -.286E-01   -.202E-02 -.132E-03 -.841E-04
   -.155E+01 -.265E+01 0.797E+01   0.148E+01 0.271E+01 -.800E+01   0.640E-01 -.766E-01 0.313E-01   -.717E-03 0.155E-03 -.586E-04
   -.172E+01 -.460E+01 0.775E+01   0.174E+01 0.464E+01 -.776E+01   -.147E-01 -.411E-01 0.635E-02   -.461E-03 -.552E-03 -.963E-04
   0.234E+01 -.130E+01 0.607E+01   -.251E+01 0.133E+01 -.610E+01   0.175E+00 -.488E-01 0.222E-01   0.338E-02 0.676E-03 -.380E-03
   0.183E+01 -.327E+01 0.601E+01   -.207E+01 0.331E+01 -.600E+01   0.229E+00 -.476E-01 -.144E-01   0.336E-02 0.348E-03 -.306E-03
   0.926E+01 0.653E+00 0.660E+01   -.993E+01 -.106E+01 -.663E+01   0.670E+00 0.404E+00 0.219E-01   0.202E-02 0.349E-03 -.344E-03
   0.126E+02 -.527E+01 0.683E+01   -.140E+02 0.491E+01 -.685E+01   0.139E+01 0.359E+00 0.141E-01   0.155E-02 -.146E-03 -.195E-03
   -.138E+01 0.195E+02 0.939E+01   0.192E+01 -.259E+02 -.930E+01   -.541E+00 0.645E+01 -.864E-01   -.657E-03 0.821E-03 0.476E-03
   0.205E+01 -.572E+01 0.109E+02   -.212E+01 0.558E+01 -.111E+02   0.505E-01 0.160E+00 0.164E+00   -.510E-03 -.752E-03 0.363E-03
   -.665E+01 -.237E+01 0.612E+01   0.732E+01 0.123E+01 -.573E+01   -.697E+00 0.113E+01 -.393E+00   -.118E-02 0.168E-02 0.111E-03
   -.106E+02 -.769E+01 0.770E+01   0.119E+02 0.685E+01 -.773E+01   -.136E+01 0.881E+00 0.186E-01   -.761E-03 -.440E-03 -.164E-03
   -.256E+00 -.590E+01 0.969E+01   -.977E-01 0.563E+01 -.978E+01   0.341E+00 0.263E+00 0.842E-01   -.273E-02 0.687E-03 -.303E-03
   -.416E+01 -.568E+01 0.820E+01   0.431E+01 0.551E+01 -.821E+01   -.135E+00 0.180E+00 0.147E-01   -.314E-02 -.643E-03 -.215E-03
   -.877E+00 0.457E+01 -.624E+03   0.101E+01 -.454E+01 0.607E+03   -.166E+00 -.154E-01 0.178E+02   0.174E-01 -.132E-01 0.144E-01
 -----------------------------------------------------------------------------------------------
   -.142E+00 0.172E+00 -.176E+02   -.167E-12 -.743E-12 -.114E-12   0.119E+00 -.153E+00 0.176E+02   0.164E-01 -.132E-01 0.994E-02
 
 
 POSITION                                       TOTAL-FORCE (eV/Angst)
 -----------------------------------------------------------------------------------
     -7.42994     12.75414      7.46470         0.000360      0.013082      0.000350
      0.00036      1.42037      7.46578         0.005812     -0.018621     -0.000445
      2.48403      0.02553      7.46311        -0.014786      0.006678     -0.001816
      2.48021      1.44651      7.47379        -0.001080     -0.012062     -0.000596
      4.96260      0.02688      7.46608        -0.025523     -0.004313     -0.003692
      4.95714      1.44455      7.47583         0.007571     -0.007965     -0.001828
      0.01333     12.74735      7.46685         0.012876      0.013002      0.000820
      7.44115      1.41131      7.46543        -0.009906     -0.024466      0.001779
      2.46732     12.72214      7.47370        -0.001763      0.003359     -0.000861
      9.90076      1.38337      7.46325         0.002168     -0.008090     -0.000861
      4.94360     12.72976      7.47546         0.025074      0.002063     -0.005449
     12.37827      1.39266      7.46614        -0.003304     -0.008871     -0.004830
     13.61460      2.11177      7.46728        -0.001698     -0.000979     -0.003214
     -1.24863      3.52962      7.47731         0.000775      0.016695     -0.000783
      1.23887      2.14445      7.47528        -0.003408     -0.027359      0.001703
      1.23633      3.56865      7.50125         0.005312     -0.000550      0.002207
      3.71806      2.17087      7.49097         0.002137     -0.029121     -0.002345
      3.71717      3.58870      7.53741         0.011097      0.016172     -0.001855
      6.19867      2.13460      7.47628        -0.001976      0.012207     -0.000518
      6.19970      3.56210      7.50044         0.007477     -0.000969     -0.001108
      8.67642      2.11357      7.46303         0.002138     -0.003035      0.001257
      8.68052      3.52781      7.47025        -0.000119      0.010354      0.002856
     11.14278      2.09509      7.46433         0.003871      0.028445     -0.002666
     11.14318      3.51997      7.46642        -0.002215      0.019475     -0.005295
     12.37610      4.23628      7.47474         0.017794      0.006457     -0.005672
     -2.48742      5.66176      7.48141        -0.003165      0.010292     -0.004128
     -0.01468      4.24741      7.50051        -0.017953      0.005677      0.004142
     -0.03935      5.66424      7.52709        -0.008241      0.004875      0.000790
      2.47322      4.31062      7.55082         0.024853     -0.001453      0.000120
      2.42771      5.72457      7.63797         0.010143     -0.004209     -0.007853
      4.96273      4.30649      7.55293        -0.008215     -0.010592      0.006849
      5.00812      5.71974      7.64636        -0.007794     -0.009691      0.018776
      7.44721      4.24471      7.49493         0.010796     -0.008022      0.004700
      7.47228      5.66137      7.51982         0.012515     -0.015453      0.004316
      9.91549      4.23686      7.46859        -0.007346     -0.003680     -0.002066
      9.92031      5.66043      7.47362         0.012222      0.005993      0.000115
     -3.71151      6.37582      7.47383         0.001497     -0.018828     -0.006317
     -3.71159      7.79754      7.47401         0.006171      0.022814     -0.004040
     -1.26607      6.37910      7.50538         0.010444     -0.026041      0.000729
     -1.26502      7.80247      7.50478        -0.009420      0.011874     -0.007351
      1.18039      6.37235      7.57904         0.019857      0.017366     -0.003381
      1.17814      7.80999      7.57839         0.016838      0.004314      0.012802
      6.25320      6.36828      7.57980        -0.006154      0.003832      0.002208
      6.25223      7.80586      7.57850        -0.022622     -0.018685     -0.007618
      8.70071      6.37561      7.49371        -0.004208     -0.013454      0.008257
      8.70008      7.79839      7.49362         0.003819      0.011337      0.007297
     -4.93783      8.51296      7.47392         0.007463     -0.017164      0.001851
     -4.94384      9.93727      7.46864         0.002865      0.009265     -0.000707
     -2.48498      8.51214      7.48161        -0.007215     -0.012506     -0.006833
     -2.47898      9.93739      7.47456        -0.002798     -0.000613     -0.008041
     -0.03403      8.51946      7.52439        -0.013789     -0.018843     -0.006272
     -0.01222      9.94067      7.49928        -0.003155      0.014955     -0.001435
      2.41928      8.46546      7.64624         0.014052      0.007010      0.040528
      2.46589      9.87944      7.55372         0.004415      0.008714      0.024664
      5.00362      8.44982      7.64324        -0.015735      0.011287     -0.016974
      4.95607      9.86610      7.55224         0.010782     -0.018107     -0.004722
      7.47186      8.51263      7.51864         0.010151      0.000888      0.000310
      7.44692      9.92980      7.49463        -0.008012      0.009023      0.002048
     -6.17862     10.64515      7.47036        -0.004164     -0.005330      0.002554
     -6.18326     12.06344      7.46289         0.000491     -0.001337      0.000246
     -3.71123     10.65142      7.46612        -0.001334     -0.015232     -0.005457
     -3.70678     12.07125      7.46415        -0.008020     -0.008555     -0.003602
     -1.24839     10.64232      7.47688         0.005140     -0.000147     -0.004359
     -1.22906     12.05954      7.46750         0.003804      0.005479     -0.002635
      1.23577     10.62122      7.50193        -0.000665      0.013194      0.005475
      1.23779     12.03124      7.47571        -0.016256      0.021770      0.002284
      3.71902     10.58461      7.53715        -0.025903     -0.004234      0.003154
      3.70359     11.99998      7.49018        -0.009294      0.035869     -0.004450
      6.19497     10.60908      7.50055        -0.018114     -0.010827     -0.003012
      6.18757     12.03106      7.47638         0.013613      0.009273     -0.001557
      3.71433      7.09119      8.31875        -0.011043     -0.003682     -0.008542
 -----------------------------------------------------------------------------------
    total drift:                               -0.007338      0.005296     -0.018822


--------------------------------------------------------------------------------------------------------



  FREE ENERGIE OF THE ION-ELECTRON SYSTEM (eV)
  ---------------------------------------------------
  free  energy   TOTEN  =      -653.42582795 eV

  energy  without entropy=     -653.39613031  energy(sigma->0) =     -653.41097913
 
 d Force = 0.7432490E-03[ 0.117E-03, 0.137E-02]  d Energy = 0.7679885E-03-0.247E-04
 d Force =-0.6769730E+00[-0.681E+00,-0.673E+00]  d Ewald  =-0.1092594E+02 0.102E+02


--------------------------------------------------------------------------------------------------------


    POTLOK:  cpu time    0.5322: real time    0.5368


--------------------------------------------------------------------------------------------------------


 Conjugate gradient step on ions:
 trial-energy change:   -0.000768  1 .order   -0.000799   -0.001529   -0.000070
  (g-gl).g = 0.186E-02      g.g   = 0.185E-02  gl.gl    = 0.376E-02
 g(Force)  = 0.158E-02   g(Stress)= 0.267E-03 ortho     =-0.116E-04
 gamma     =   0.49481
 trial     =   0.83032
 opt step  =   0.87037  (harmonic =   0.87037) maximal distance =0.00254957
 next E    =  -653.425861   (d E  =  -0.00080)


--------------------------------------------------------------------------------------------------------


  
 reached required accuracy - stopping structural energy minimisation
     LOOP+:  cpu time  120.4206: real time  121.7122
    4ORBIT:  cpu time    0.0000: real time    0.0000

 total amount of memory used by VASP MPI-rank0   135481. kBytes
=======================================================================

   base      :      30000. kBytes
   nonlr-proj:      10492. kBytes
   fftplans  :      14072. kBytes
   grid      :      39398. kBytes
   one-center:        186. kBytes
   wavefun   :      41333. kBytes
 
  
  
 General timing and accounting informations for this job:
 ========================================================
  
                  Total CPU time used (sec):     3349.837
                            User time (sec):     3317.719
                          System time (sec):       32.118
                         Elapsed time (sec):     3383.655
  
                   Maximum memory used (kb):      626992.
                   Average memory used (kb):           0.
  
                          Minor page faults:      6251568
                          Major page faults:           34
                 Voluntary context switches:        28994
