 running on   48 total cores
 distrk:  each k-point on   48 cores,    1 groups
 distr:  one band on   12 cores,    4 groups
 using from now: INCAR     
 vasp.5.4.4.18Apr17-6-g9f103f2a35 (build Sep 02 2021 13:24:58) complex          
  
 POSCAR found type information on POSCAR  C  N  C  Cr
 POSCAR found :  4 types and      71 ions
 scaLAPACK will be used
 LDA part: xc-table for Pade appr. of Perdew
 POSCAR, INCAR and KPOINTS ok, starting setup
 FFT: planning ...
 WAVECAR not read
 entering main loop
       N       E                     dE             d eps       ncg     rms          rms(c)
DAV:   1     0.274389197871E+04    0.27439E+04   -0.11731E+05  3248   0.127E+03
DAV:   2    -0.171759585194E+03   -0.29157E+04   -0.27867E+04  4312   0.296E+02
DAV:   3    -0.684273760721E+03   -0.51251E+03   -0.50952E+03  3552   0.129E+02
DAV:   4    -0.703781096282E+03   -0.19507E+02   -0.19354E+02  3552   0.312E+01
DAV:   5    -0.704404358202E+03   -0.62326E+00   -0.62120E+00  4024   0.478E+00    0.466E+01
RMM:   6    -0.732578713859E+03   -0.28174E+02   -0.53274E+02  4090   0.393E+01    0.844E+01
RMM:   7    -0.662432643105E+03    0.70146E+02   -0.54510E+01  3040   0.137E+01    0.322E+01
RMM:   8    -0.662363683933E+03    0.68959E-01   -0.21086E+01  3127   0.706E+00    0.284E+01
RMM:   9    -0.647143199978E+03    0.15220E+02   -0.19974E+01  2970   0.841E+00    0.116E+01
RMM:  10    -0.647588107689E+03   -0.44491E+00   -0.29982E+00  2992   0.309E+00    0.144E+01
RMM:  11    -0.646542323908E+03    0.10458E+01   -0.40264E-01  3122   0.103E+00    0.760E+00
RMM:  12    -0.646417331685E+03    0.12499E+00   -0.16381E-01  2944   0.935E-01    0.657E+00
RMM:  13    -0.646519907544E+03   -0.10258E+00   -0.27409E-02  2988   0.323E-01    0.725E+00
RMM:  14    -0.646336598751E+03    0.18331E+00   -0.28432E-02  2968   0.381E-01    0.707E+00
RMM:  15    -0.646348331282E+03   -0.11733E-01   -0.34087E-03  3259   0.887E-02    0.617E+00
RMM:  16    -0.646413459561E+03   -0.65128E-01   -0.21810E-02  2948   0.285E-01    0.689E+00
RMM:  17    -0.646414777931E+03   -0.13184E-02   -0.61882E-02  2975   0.391E-01    0.471E+00
RMM:  18    -0.646502601617E+03   -0.87824E-01   -0.39210E-02  2970   0.298E-01    0.417E+00
RMM:  19    -0.646498041942E+03    0.45597E-02   -0.17554E-02  3153   0.163E-01    0.343E+00
RMM:  20    -0.646512704738E+03   -0.14663E-01   -0.95803E-03  2994   0.138E-01    0.307E+00
RMM:  21    -0.646515924557E+03   -0.32198E-02   -0.13210E-02  2963   0.162E-01    0.252E+00
RMM:  22    -0.646503286836E+03    0.12638E-01   -0.15217E-02  2963   0.156E-01    0.219E+00
RMM:  23    -0.646509573290E+03   -0.62865E-02   -0.29321E-03  3239   0.723E-02    0.218E+00
RMM:  24    -0.646508845402E+03    0.72789E-03   -0.65507E-04  2620   0.329E-02    0.221E+00
RMM:  25    -0.646506593020E+03    0.22524E-02   -0.23752E-04  2328   0.279E-02    0.225E+00
RMM:  26    -0.646512003190E+03   -0.54102E-02   -0.75273E-04  2689   0.460E-02    0.216E+00
RMM:  27    -0.646508677147E+03    0.33260E-02   -0.13432E-03  2917   0.589E-02    0.211E+00
RMM:  28    -0.646488583733E+03    0.20093E-01   -0.24533E-03  2968   0.725E-02    0.222E+00
RMM:  29    -0.646485740508E+03    0.28432E-02   -0.12938E-03  2871   0.526E-02    0.218E+00
RMM:  30    -0.646486486308E+03   -0.74580E-03   -0.23741E-04  2236   0.265E-02    0.216E+00
RMM:  31    -0.646461730544E+03    0.24756E-01   -0.11071E-02  2982   0.173E-01    0.215E+00
RMM:  32    -0.646466611320E+03   -0.48808E-02   -0.19081E-03  3121   0.556E-02    0.210E+00
RMM:  33    -0.646467223762E+03   -0.61244E-03   -0.26110E-04  2164   0.234E-02    0.210E+00
RMM:  34    -0.646462341868E+03    0.48819E-02   -0.81912E-04  2740   0.431E-02    0.210E+00
RMM:  35    -0.646468211956E+03   -0.58701E-02   -0.40426E-04  2647   0.441E-02    0.209E+00
RMM:  36    -0.646476427008E+03   -0.82151E-02   -0.23608E-03  2918   0.821E-02    0.211E+00
RMM:  37    -0.646475576957E+03    0.85005E-03   -0.32521E-04  2227   0.305E-02    0.213E+00
RMM:  38    -0.646463301479E+03    0.12275E-01   -0.21998E-03  2932   0.825E-02    0.218E+00
RMM:  39    -0.646446417671E+03    0.16884E-01   -0.31816E-03  3016   0.758E-02    0.233E+00
RMM:  40    -0.646440568393E+03    0.58493E-02   -0.21480E-03  2966   0.740E-02    0.248E+00
RMM:  41    -0.646400075112E+03    0.40493E-01   -0.13171E-02  3017   0.174E-01    0.252E+00
RMM:  42    -0.646395725637E+03    0.43495E-02   -0.60245E-03  3156   0.828E-02    0.211E+00
RMM:  43    -0.646397591219E+03   -0.18656E-02   -0.95362E-04  2894   0.581E-02    0.193E+00
RMM:  44    -0.646396493575E+03    0.10976E-02   -0.26705E-04  2378   0.302E-02    0.174E+00
RMM:  45    -0.646397290099E+03   -0.79652E-03   -0.81728E-05  2002   0.259E-02    0.165E+00
RMM:  46    -0.646398128040E+03   -0.83794E-03   -0.65844E-05  2010   0.212E-02    0.171E+00
RMM:  47    -0.646396630603E+03    0.14974E-02   -0.67143E-05  2027   0.147E-02    0.164E+00
RMM:  48    -0.646391917743E+03    0.47129E-02   -0.10625E-03  2892   0.477E-02    0.124E+00
RMM:  49    -0.646396718091E+03   -0.48003E-02   -0.47901E-04  2696   0.512E-02    0.136E+00
RMM:  50    -0.646397961912E+03   -0.12438E-02   -0.25258E-04  2552   0.520E-02
   1 F= -.65279326E+03 E0= -.65276632E+03  d E =-.652793E+03  mag=    -0.1681
 Constraining cell:  1  0  0  |  1  1  0  |  0  0  0
 curvature:   0.00 expect dE= 0.000E+00 dE for cont linesearch  0.000E+00
 trial: gam= 0.00000 g(F)=  0.121E+00 g(S)=  0.961E-02 ort = 0.000E+00 (trialstep = 0.100E+01)
 search vector abs. value=  0.131E+00
 bond charge predicted
       N       E                     dE             d eps       ncg     rms          rms(c)
DAV:   1    -0.646410785390E+03   -0.14067E-01   -0.92611E+00  3200   0.873E+00    0.170E+00
RMM:   2    -0.646544002038E+03   -0.13322E+00   -0.33438E-01  3044   0.141E+00    0.446E+00
RMM:   3    -0.646563628584E+03   -0.19627E-01   -0.29433E-02  3584   0.369E-01    0.507E+00
RMM:   4    -0.646500933236E+03    0.62695E-01   -0.19240E-02  3258   0.240E-01    0.372E+00
RMM:   5    -0.646507595379E+03   -0.66621E-02   -0.27327E-02  2983   0.278E-01    0.326E+00
RMM:   6    -0.646500461600E+03    0.71338E-02   -0.20620E-02  3080   0.198E-01    0.227E+00
RMM:   7    -0.646507295509E+03   -0.68339E-02   -0.90236E-03  3032   0.141E-01    0.212E+00
RMM:   8    -0.646496463910E+03    0.10832E-01   -0.10080E-02  3005   0.153E-01    0.199E+00
RMM:   9    -0.646484595856E+03    0.11868E-01   -0.64071E-03  3063   0.111E-01    0.190E+00
RMM:  10    -0.646481233845E+03    0.33620E-02   -0.20933E-03  3281   0.574E-02    0.185E+00
RMM:  11    -0.646479835114E+03    0.13987E-02   -0.70261E-04  2947   0.348E-02    0.184E+00
RMM:  12    -0.646478164380E+03    0.16707E-02   -0.46059E-04  2732   0.287E-02    0.184E+00
RMM:  13    -0.646482128156E+03   -0.39638E-02   -0.28664E-04  2652   0.304E-02    0.181E+00
RMM:  14    -0.646472448161E+03    0.96800E-02   -0.17785E-03  2932   0.670E-02    0.187E+00
RMM:  15    -0.646477809727E+03   -0.53616E-02   -0.30123E-04  2625   0.342E-02    0.181E+00
RMM:  16    -0.646473988817E+03    0.38209E-02   -0.19039E-04  2370   0.215E-02    0.184E+00
RMM:  17    -0.646473955848E+03    0.32969E-04   -0.30911E-05  1924   0.712E-03    0.183E+00
RMM:  18    -0.646473623982E+03    0.33187E-03   -0.14728E-05  1817   0.685E-03    0.183E+00
RMM:  19    -0.646475998391E+03   -0.23744E-02   -0.25903E-05  1879   0.912E-03    0.182E+00
RMM:  20    -0.646494379802E+03   -0.18381E-01   -0.20921E-03  2975   0.710E-02    0.176E+00
RMM:  21    -0.646530722508E+03   -0.36343E-01   -0.15991E-02  3021   0.181E-01    0.173E+00
RMM:  22    -0.646524998172E+03    0.57243E-02   -0.13779E-03  2913   0.624E-02    0.191E+00
RMM:  23    -0.646551506855E+03   -0.26509E-01   -0.66935E-03  3072   0.112E-01    0.193E+00
RMM:  24    -0.646552620156E+03   -0.11133E-02   -0.19240E-03  2986   0.678E-02    0.211E+00
RMM:  25    -0.646597186897E+03   -0.44567E-01   -0.16526E-02  3041   0.182E-01    0.245E+00
RMM:  26    -0.646598794848E+03   -0.16080E-02   -0.34244E-03  3382   0.632E-02    0.274E+00
RMM:  27    -0.646611062026E+03   -0.12267E-01   -0.17708E-03  3153   0.485E-02    0.294E+00
RMM:  28    -0.646615955316E+03   -0.48933E-02   -0.72657E-04  2683   0.317E-02    0.306E+00
RMM:  29    -0.646626425726E+03   -0.10470E-01   -0.10864E-03  2922   0.416E-02    0.313E+00
RMM:  30    -0.646618509002E+03    0.79167E-02   -0.22860E-04  2262   0.252E-02    0.313E+00
RMM:  31    -0.646617197175E+03    0.13118E-02   -0.77001E-05  1993   0.109E-02    0.311E+00
RMM:  32    -0.646620181004E+03   -0.29838E-02   -0.15234E-04  2164   0.190E-02    0.311E+00
RMM:  33    -0.646585965327E+03    0.34216E-01   -0.56522E-03  3001   0.114E-01    0.301E+00
RMM:  34    -0.646589164986E+03   -0.31997E-02   -0.69645E-04  2765   0.365E-02    0.286E+00
RMM:  35    -0.646583903886E+03    0.52611E-02   -0.47172E-04  2790   0.267E-02    0.272E+00
RMM:  36    -0.646595727579E+03   -0.11824E-01   -0.81375E-04  2851   0.480E-02    0.269E+00
RMM:  37    -0.646597351418E+03   -0.16238E-02   -0.17740E-04  2184   0.159E-02    0.274E+00
RMM:  38    -0.646597525902E+03   -0.17448E-03   -0.25894E-05  1823   0.841E-03    0.277E+00
RMM:  39    -0.646604072886E+03   -0.65470E-02   -0.34058E-04  2603   0.266E-02    0.281E+00
RMM:  40    -0.646607458824E+03   -0.33859E-02   -0.39904E-04  2479   0.258E-02    0.283E+00
RMM:  41    -0.646597997442E+03    0.94614E-02   -0.32268E-04  2665   0.288E-02    0.275E+00
RMM:  42    -0.646599151317E+03   -0.11539E-02   -0.63541E-05  1964   0.122E-02    0.269E+00
RMM:  43    -0.646599073853E+03    0.77464E-04   -0.26840E-05  1855   0.881E-03    0.270E+00
RMM:  44    -0.646598968508E+03    0.10534E-03   -0.16049E-05  1803   0.633E-03    0.271E+00
RMM:  45    -0.646605524905E+03   -0.65564E-02   -0.23088E-04  2507   0.237E-02    0.275E+00
RMM:  46    -0.646602565658E+03    0.29592E-02   -0.23233E-05  1849   0.992E-03    0.276E+00
RMM:  47    -0.646636173442E+03   -0.33608E-01   -0.63394E-03  3004   0.120E-01    0.292E+00
RMM:  48    -0.646628079714E+03    0.80937E-02   -0.67694E-04  2521   0.379E-02    0.303E+00
RMM:  49    -0.646630585598E+03   -0.25059E-02   -0.30975E-04  2273   0.169E-02    0.304E+00
RMM:  50    -0.646623427833E+03    0.71578E-02   -0.41906E-04  2670   0.341E-02
   2 F= -.65302439E+03 E0= -.65300761E+03  d E =-.231128E+00  mag=    -0.6185
 Constraining cell:  1  0  0  |  1  1  0  |  0  0  0
 trial-energy change:   -0.231128  1 .order   -0.036740   -0.131005    0.057525
 step:   0.9559(harm=  0.6949)  dis= 0.01436  next Energy=  -653.025642 (dE=-0.232E+00)
 bond charge predicted
       N       E                     dE             d eps       ncg     rms          rms(c)
DAV:   1    -0.646623452611E+03    0.71330E-02   -0.18266E-02  3440   0.385E-01    0.306E+00
RMM:   2    -0.646761376584E+03   -0.13792E+00   -0.13421E-01  2950   0.567E-01    0.285E+00
RMM:   3    -0.646784288674E+03   -0.22912E-01   -0.23013E-01  3059   0.606E-01    0.303E+00
RMM:   4    -0.646639082583E+03    0.14521E+00   -0.15120E-01  3039   0.538E-01    0.180E+00
RMM:   5    -0.646579274784E+03    0.59808E-01   -0.13885E-01  3119   0.464E-01    0.893E-01
RMM:   6    -0.646715047210E+03   -0.13577E+00   -0.48944E-02  3006   0.264E-01    0.706E-01
RMM:   7    -0.646813920349E+03   -0.98873E-01   -0.43068E-02  3012   0.255E-01    0.434E-01
RMM:   8    -0.646928719071E+03   -0.11480E+00   -0.43779E-02  2969   0.210E-01    0.334E-01
RMM:   9    -0.646952110200E+03   -0.23391E-01   -0.10466E-02  3135   0.921E-02    0.146E-01
RMM:  10    -0.646966755883E+03   -0.14646E-01   -0.35361E-03  3022   0.706E-02    0.139E-01
RMM:  11    -0.646979793709E+03   -0.13038E-01   -0.14281E-03  2416   0.362E-02    0.933E-02
RMM:  12    -0.646980317548E+03   -0.52384E-03   -0.12617E-03  2551   0.366E-02    0.636E-02
RMM:  13    -0.646985907781E+03   -0.55902E-02   -0.17847E-04  2232   0.159E-02    0.494E-02
RMM:  14    -0.646986501474E+03   -0.59369E-03   -0.77016E-05  2156   0.108E-02    0.185E-02
RMM:  15    -0.646987090803E+03   -0.58933E-03   -0.43276E-05  1988   0.647E-03    0.586E-03
RMM:  16    -0.646987507179E+03   -0.41638E-03   -0.23295E-05  1356   0.448E-03    0.512E-03
RMM:  17    -0.646987714859E+03   -0.20768E-03   -0.36796E-05  1750   0.522E-03    0.577E-03
RMM:  18    -0.646987775327E+03   -0.60468E-04   -0.15262E-05  1279   0.364E-03    0.175E-03
RMM:  19    -0.646987870837E+03   -0.95510E-04   -0.91650E-06  1160   0.276E-03    0.315E-03
RMM:  20    -0.646987922388E+03   -0.51551E-04   -0.44447E-06  1054   0.222E-03    0.143E-03
RMM:  21    -0.646987938055E+03   -0.15666E-04   -0.17422E-06   939   0.187E-03    0.117E-03
RMM:  22    -0.646987940441E+03   -0.23867E-05   -0.68534E-07   764   0.156E-03
   3 F= -.65338867E+03 E0= -.65337282E+03  d E =-.595414E+00  mag=    -1.6788
 Constraining cell:  1  0  0  |  1  1  0  |  0  0  0
 curvature:  -0.09 expect dE=-0.147E-01 dE for cont linesearch -0.604E-02
 ZBRENT: interpolating
 opt :   0.5611  next Energy=  -653.406863 (dE=-0.614E+00)
 bond charge predicted
       N       E                     dE             d eps       ncg     rms          rms(c)
DAV:   1    -0.647009314391E+03   -0.21376E-01   -0.14470E+00  3200   0.344E+00    0.377E-01
RMM:   2    -0.647011111854E+03   -0.17975E-02   -0.44956E-02  3061   0.535E-01    0.218E-01
RMM:   3    -0.647009263630E+03    0.18482E-02   -0.37662E-03  3286   0.129E-01    0.144E-01
RMM:   4    -0.647008811394E+03    0.45224E-03   -0.13587E-03  3049   0.752E-02    0.140E-01
RMM:   5    -0.647009077065E+03   -0.26567E-03   -0.54499E-04  2861   0.375E-02    0.858E-02
RMM:   6    -0.647009631575E+03   -0.55451E-03   -0.11202E-04  2223   0.204E-02    0.199E-02
RMM:   7    -0.647010289603E+03   -0.65803E-03   -0.34379E-05  2010   0.101E-02    0.943E-03
RMM:   8    -0.647010650261E+03   -0.36066E-03   -0.13086E-05  1801   0.570E-03    0.562E-03
RMM:   9    -0.647010963723E+03   -0.31346E-03   -0.13230E-05  1812   0.430E-03    0.276E-03
RMM:  10    -0.647011096463E+03   -0.13274E-03   -0.74529E-06  1281   0.290E-03    0.154E-03
RMM:  11    -0.647011134756E+03   -0.38293E-04   -0.24829E-06  1092   0.216E-03    0.877E-04
RMM:  12    -0.647011151529E+03   -0.16773E-04   -0.19073E-06  1065   0.204E-03    0.474E-04
RMM:  13    -0.647011156436E+03   -0.49073E-05   -0.33992E-07   711   0.162E-03
   4 F= -.65340976E+03 E0= -.65339450E+03  d E =-.616501E+00  mag=    -1.7504
 Constraining cell:  1  0  0  |  1  1  0  |  0  0  0
 curvature:  -0.28 expect dE=-0.100E-01 dE for cont linesearch -0.466E-03
 ZBRENT: interpolating
 opt :   0.4935  next Energy=  -653.410311 (dE=-0.617E+00)
 bond charge predicted
       N       E                     dE             d eps       ncg     rms          rms(c)
DAV:   1    -0.647012038881E+03   -0.88735E-03   -0.42471E-02  3312   0.589E-01    0.645E-02
RMM:   2    -0.647012061391E+03   -0.22510E-04   -0.13192E-03  3060   0.916E-02    0.370E-02
RMM:   3    -0.647011988371E+03    0.73020E-04   -0.10828E-04  2895   0.222E-02    0.269E-02
RMM:   4    -0.647011962452E+03    0.25918E-04   -0.46616E-05  1942   0.142E-02    0.288E-02
RMM:   5    -0.647011967129E+03   -0.46766E-05   -0.19141E-05  1886   0.947E-03
   5 F= -.65341019E+03 E0= -.65339505E+03  d E =-.616931E+00  mag=    -1.7583
 Constraining cell:  1  0  0  |  1  1  0  |  0  0  0
 curvature:  -0.33 expect dE=-0.929E-02 dE for cont linesearch -0.737E-05
 trial: gam= 0.22759 g(F)=  0.273E-01 g(S)=  0.847E-03 ort =-0.171E-02 (trialstep = 0.899E+00)
 search vector abs. value=  0.341E-01
 bond charge predicted
       N       E                     dE             d eps       ncg     rms          rms(c)
DAV:   1    -0.647016176013E+03   -0.42136E-02   -0.17193E+00  3224   0.395E+00    0.453E-01
RMM:   2    -0.647025323853E+03   -0.91478E-02   -0.72133E-02  3005   0.627E-01    0.783E-01
RMM:   3    -0.647019506899E+03    0.58170E-02   -0.10132E-02  3281   0.191E-01    0.233E-01
RMM:   4    -0.647018921438E+03    0.58546E-03   -0.12119E-03  3174   0.729E-02    0.120E-01
RMM:   5    -0.647018735520E+03    0.18592E-03   -0.68988E-04  2951   0.534E-02    0.409E-02
RMM:   6    -0.647018760514E+03   -0.24994E-04   -0.53103E-05  2141   0.168E-02    0.215E-02
RMM:   7    -0.647018806141E+03   -0.45628E-04   -0.21828E-05  1861   0.938E-03    0.123E-02
RMM:   8    -0.647018837770E+03   -0.31629E-04   -0.51055E-06  1776   0.552E-03    0.645E-03
RMM:   9    -0.647018860993E+03   -0.23223E-04   -0.31997E-06  1773   0.393E-03    0.200E-03
RMM:  10    -0.647018865040E+03   -0.40466E-05   -0.70216E-07  1255   0.231E-03
   6 F= -.65341923E+03 E0= -.65340425E+03  d E =-.903575E-02  mag=    -1.7648
 Constraining cell:  1  0  0  |  1  1  0  |  0  0  0
 trial-energy change:   -0.009036  1 .order   -0.008802   -0.024910    0.007306
 step:   0.7016(harm=  0.6949)  dis= 0.00653  next Energy=  -653.420026 (dE=-0.983E-02)
 bond charge predicted
       N       E                     dE             d eps       ncg     rms          rms(c)
DAV:   1    -0.647020007361E+03   -0.11464E-02   -0.82723E-02  3384   0.866E-01    0.990E-02
RMM:   2    -0.647020431198E+03   -0.42384E-03   -0.34724E-03  3004   0.138E-01    0.170E-01
RMM:   3    -0.647020159499E+03    0.27170E-03   -0.48189E-04  3088   0.419E-02    0.506E-02
RMM:   4    -0.647020138210E+03    0.21289E-04   -0.55076E-05  2279   0.161E-02    0.270E-02
RMM:   5    -0.647020126003E+03    0.12207E-04   -0.36614E-05  2075   0.131E-02    0.895E-03
RMM:   6    -0.647020130411E+03   -0.44074E-05   -0.37162E-06  1729   0.568E-03
   7 F= -.65342005E+03 E0= -.65340504E+03  d E =-.985768E-02  mag=    -1.7641
 Constraining cell:  1  0  0  |  1  1  0  |  0  0  0
 curvature:  -0.43 expect dE=-0.375E-02 dE for cont linesearch -0.452E-06
 trial: gam= 0.28782 g(F)=  0.756E-02 g(S)=  0.122E-02 ort =-0.190E-03 (trialstep = 0.859E+00)
 search vector abs. value=  0.115E-01
 bond charge predicted
       N       E                     dE             d eps       ncg     rms          rms(c)
DAV:   1    -0.647023697746E+03   -0.35717E-02   -0.56528E-01  3160   0.222E+00    0.219E-01
RMM:   2    -0.647025412307E+03   -0.17146E-02   -0.18128E-02  3050   0.321E-01    0.268E-01
RMM:   3    -0.647024757071E+03    0.65524E-03   -0.23235E-03  3227   0.985E-02    0.156E-01
RMM:   4    -0.647024501692E+03    0.25538E-03   -0.38325E-04  3043   0.405E-02    0.708E-02
RMM:   5    -0.647024425369E+03    0.76324E-04   -0.17442E-04  2945   0.283E-02    0.232E-02
RMM:   6    -0.647024455405E+03   -0.30036E-04   -0.12267E-05  1813   0.927E-03    0.922E-03
RMM:   7    -0.647024485308E+03   -0.29904E-04   -0.40275E-06  1773   0.491E-03    0.414E-03
RMM:   8    -0.647024507128E+03   -0.21819E-04   -0.17305E-06  1724   0.302E-03    0.218E-03
RMM:   9    -0.647024522738E+03   -0.15610E-04   -0.80612E-07  1115   0.201E-03    0.940E-04
RMM:  10    -0.647024527689E+03   -0.49508E-05   -0.38006E-07   809   0.166E-03
   8 F= -.65342366E+03 E0= -.65340869E+03  d E =-.361482E-02  mag=    -1.7705
 Constraining cell:  1  0  0  |  1  1  0  |  0  0  0
 trial-energy change:   -0.003615  1 .order   -0.003627   -0.007501    0.000248
 step:   0.8318(harm=  0.8318)  dis= 0.00465  next Energy=  -653.423680 (dE=-0.363E-02)
 bond charge predicted
       N       E                     dE             d eps       ncg     rms          rms(c)
DAV:   1    -0.647024506584E+03    0.16154E-04   -0.57203E-04  3328   0.710E-02    0.693E-03
RMM:   2    -0.647024509711E+03   -0.31267E-05   -0.16164E-05  1780   0.103E-02
   9 F= -.65342367E+03 E0= -.65340869E+03  d E =-.362297E-02  mag=    -1.7705
 Constraining cell:  1  0  0  |  1  1  0  |  0  0  0
 curvature:  -0.55 expect dE=-0.206E-02 dE for cont linesearch -0.147E-06
 trial: gam= 0.41786 g(F)=  0.375E-02 g(S)=  0.102E-04 ort = 0.556E-04 (trialstep = 0.854E+00)
 search vector abs. value=  0.581E-02
 bond charge predicted
       N       E                     dE             d eps       ncg     rms          rms(c)
DAV:   1    -0.647025581861E+03   -0.10753E-02   -0.28124E-01  3192   0.161E+00    0.140E-01
RMM:   2    -0.647026403565E+03   -0.82170E-03   -0.91374E-03  2992   0.220E-01    0.135E-01
RMM:   3    -0.647026260316E+03    0.14325E-03   -0.10208E-03  3321   0.626E-02    0.107E-01
RMM:   4    -0.647026137291E+03    0.12303E-03   -0.16627E-04  2941   0.257E-02    0.428E-02
RMM:   5    -0.647026114145E+03    0.23146E-04   -0.72090E-05  2646   0.173E-02    0.167E-02
RMM:   6    -0.647026124030E+03   -0.98851E-05   -0.69582E-06  1777   0.699E-03
  10 F= -.65342500E+03 E0= -.65341011E+03  d E =-.132788E-02  mag=    -1.7750
 Constraining cell:  1  0  0  |  1  1  0  |  0  0  0
 trial-energy change:   -0.001328  1 .order   -0.001379   -0.003230    0.000473
 step:   0.7365(harm=  0.7448)  dis= 0.00251  next Energy=  -653.425033 (dE=-0.136E-02)
 bond charge predicted
       N       E                     dE             d eps       ncg     rms          rms(c)
DAV:   1    -0.647026117545E+03   -0.34002E-05   -0.53244E-03  3288   0.222E-01    0.191E-02
RMM:   2    -0.647026143236E+03   -0.25691E-04   -0.16868E-04  2886   0.297E-02    0.209E-02
RMM:   3    -0.647026142609E+03    0.62707E-06   -0.18117E-05  1806   0.901E-03
  11 F= -.65342506E+03 E0= -.65341016E+03  d E =-.138760E-02  mag=    -1.7751
 Constraining cell:  1  0  0  |  1  1  0  |  0  0  0
 curvature:  -0.57 expect dE=-0.105E-02 dE for cont linesearch -0.131E-07
 trial: gam= 0.49481 g(F)=  0.158E-02 g(S)=  0.267E-03 ort =-0.116E-04 (trialstep = 0.830E+00)
 search vector abs. value=  0.326E-02
 bond charge predicted
       N       E                     dE             d eps       ncg     rms          rms(c)
DAV:   1    -0.647025989031E+03    0.15421E-03   -0.15699E-01  3320   0.129E+00    0.125E-01
RMM:   2    -0.647026821130E+03   -0.83210E-03   -0.82719E-03  3006   0.185E-01    0.140E-01
RMM:   3    -0.647026625823E+03    0.19531E-03   -0.93820E-04  3282   0.560E-02    0.863E-02
RMM:   4    -0.647026558389E+03    0.67434E-04   -0.10735E-04  2195   0.204E-02    0.383E-02
RMM:   5    -0.647026539011E+03    0.19379E-04   -0.37547E-05  1966   0.136E-02    0.178E-02
RMM:   6    -0.647026544389E+03   -0.53789E-05   -0.11767E-05  1789   0.861E-03
  12 F= -.65342583E+03 E0= -.65341098E+03  d E =-.767989E-03  mag=    -1.7770
 Constraining cell:  1  0  0  |  1  1  0  |  0  0  0
 trial-energy change:   -0.000768  1 .order   -0.000799   -0.001529   -0.000070
 step:   0.8704(harm=  0.8704)  dis= 0.00255  next Energy=  -653.425861 (dE=-0.801E-03)
 reached required accuracy - stopping structural energy minimisation
