       N       E                     dE             d eps       ncg     rms          rms(c)
DAV:   1     0.294181587012E+04    0.29418E+04   -0.11697E+05  4000   0.126E+03
DAV:   2    -0.196975423839E+02   -0.29615E+04   -0.28567E+04  4456   0.356E+02
DAV:   3    -0.442444076498E+03   -0.42275E+03   -0.41825E+03  4000   0.154E+02
DAV:   4    -0.456740014751E+03   -0.14296E+02   -0.13941E+02  4136   0.393E+01
DAV:   5    -0.457234849133E+03   -0.49483E+00   -0.48981E+00  4384   0.560E+00    0.618E+01
DAV:   6    -0.396315054113E+03    0.60920E+02   -0.62681E+01  4672   0.318E+01    0.425E+01
DAV:   7    -0.370016136248E+03    0.26299E+02   -0.11356E+02  4216   0.338E+01    0.222E+01
DAV:   8    -0.368631988303E+03    0.13841E+01   -0.15726E+01  4264   0.156E+01    0.158E+01
DAV:   9    -0.368907373324E+03   -0.27539E+00   -0.95460E+00  5288   0.229E+01    0.629E+00
DAV:  10    -0.368154069799E+03    0.75330E+00   -0.67482E+00  5328   0.160E+01    0.303E+00
DAV:  11    -0.368076577669E+03    0.77492E-01   -0.73442E-01  4496   0.361E+00    0.160E+00
DAV:  12    -0.368048053159E+03    0.28525E-01   -0.19543E-01  4592   0.172E+00    0.856E-01
DAV:  13    -0.368041169144E+03    0.68840E-02   -0.86227E-02  4208   0.104E+00    0.406E-01
DAV:  14    -0.368040887192E+03    0.28195E-03   -0.21081E-02  4240   0.571E-01    0.300E-01
DAV:  15    -0.368040612291E+03    0.27490E-03   -0.43609E-03  5040   0.371E-01    0.168E-01
DAV:  16    -0.368040622914E+03   -0.10623E-04   -0.92220E-04  3872   0.106E-01
   1 F= -.37272088E+03 E0= -.37272088E+03  d E =0.000000E+00  mag=     0.0000
