 vasp.5.4.4.18Apr17-6-g9f103f2a35 (build Jan 14 2022 15:04:31) complex          
  
 executed on             LinuxIFC date 2023.04.05  11:31:11
 running on   48 total cores
 distrk:  each k-point on   48 cores,    1 groups
 distr:  one band on NCORES_PER_BAND=  12 cores,    4 groups


--------------------------------------------------------------------------------------------------------


 INCAR:
 POTCAR:    PAW_PBE C 08Apr2002                   
 POTCAR:    PAW_PBE N 08Apr2002                   
 POTCAR:    PAW_PBE Ge_d 03Jul2007                
 POTCAR:    PAW_PBE C 08Apr2002                   
   SHA256 =  253f7b50bb8d59471dbedb8285d89021f4a42ed1a2c5d38a03a736e69125dd95 C/
   COPYR  = (c) Copyright 08Apr2002 Georg Kresse                                
   COPYR  = This file is part of the software VASP. Any use, copying, and all ot
   COPYR  = If you do not have a valid VASP license, you may not use, copy or di
   VRHFIN =C: s2p2                                                              
   LEXCH  = PE                                                                  
   EATOM  =   147.1560 eV,   10.8157 Ry                                         
                                                                                
   TITEL  = PAW_PBE C 08Apr2002                                                 
   LULTRA =        F    use ultrasoft PP ?                                      
   IUNSCR =        1    unscreen: 0-lin 1-nonlin 2-no                           
   RPACOR =    1.200    partial core radius                                     
   POMASS =   12.011; ZVAL   =    4.000    mass and valenz                      
   RCORE  =    1.500    outmost cutoff radius                                   
   RWIGS  =    1.630; RWIGS  =    0.863    wigner-seitz radius (au A)           
   ENMAX  =  400.000; ENMIN  =  300.000 eV                                      
   ICORE  =        2    local potential                                         
   LCOR   =        T    correct aug charges                                     
   LPAW   =        T    paw PP                                                  
   EAUG   =  644.873                                                            
   DEXC   =    0.000                                                            
   RMAX   =    1.529    core radius for proj-oper                               
   RAUG   =    1.300    factor for augmentation sphere                          
   RDEP   =    1.501    radius for radial grids                                 
   RDEPT  =    1.300    core radius for aug-charge                              
                                                                                
   Atomic configuration                                                         
    4 entries                                                                   
     n  l   j            E        occ.                                          
     1  0  0.50      -273.3789   2.0000                                         
     2  0  0.50       -13.7508   2.0000                                         
     2  1  0.50        -5.2854   2.0000                                         
     3  2  1.50        -5.4423   0.0000                                         
   Description                                                                  
     l       E           TYP  RCUT    TYP  RCUT                                 
     0    -13.7508458     23  1.200                                             
     0     -8.2022199     23  1.200                                             
     1     -5.2854383     23  1.500                                             
     1     34.0145650     23  1.500                                             
     2     -5.4423304      7  1.500                                             
  local pseudopotential read in
  partial core-charges read in
  partial kinetic energy density read in
  atomic valenz-charges read in
  non local Contribution for L=           0  read in
    real space projection operators read in
  non local Contribution for L=           0  read in
    real space projection operators read in
  non local Contribution for L=           1  read in
    real space projection operators read in
  non local Contribution for L=           1  read in
    real space projection operators read in
    PAW grid and wavefunctions read in
 
   number of l-projection  operators is LMAX  =           4
   number of lm-projection operators is LMMAX =           8
 
 POTCAR:    PAW_PBE N 08Apr2002                   
   SHA256 =  e053789ff3a61a86a1b75d8a110fcc91f86041011e7b0817c7c99e4e8a6349d7 N/
   COPYR  = (c) Copyright 08Apr2002 Georg Kresse                                
   COPYR  = This file is part of the software VASP. Any use, copying, and all ot
   COPYR  = If you do not have a valid VASP license, you may not use, copy or di
   VRHFIN =N: s2p3                                                              
   LEXCH  = PE                                                                  
   EATOM  =   264.5486 eV,   19.4438 Ry                                         
                                                                                
   TITEL  = PAW_PBE N 08Apr2002                                                 
   LULTRA =        F    use ultrasoft PP ?                                      
   IUNSCR =        1    unscreen: 0-lin 1-nonlin 2-no                           
   RPACOR =    1.200    partial core radius                                     
   POMASS =   14.001; ZVAL   =    5.000    mass and valenz                      
   RCORE  =    1.500    outmost cutoff radius                                   
   RWIGS  =    1.400; RWIGS  =    0.741    wigner-seitz radius (au A)           
   ENMAX  =  400.000; ENMIN  =  300.000 eV                                      
   ICORE  =        2    local potential                                         
   LCOR   =        T    correct aug charges                                     
   LPAW   =        T    paw PP                                                  
   EAUG   =  627.112                                                            
   DEXC   =    0.000                                                            
   RMAX   =    1.529    core radius for proj-oper                               
   RAUG   =    1.300    factor for augmentation sphere                          
   RDEP   =    1.514    radius for radial grids                                 
   RDEPT  =    1.338    core radius for aug-charge                              
                                                                                
   Atomic configuration                                                         
    4 entries                                                                   
     n  l   j            E        occ.                                          
     1  0  0.50      -384.7179   2.0000                                         
     2  0  0.50       -18.5828   2.0000                                         
     2  1  0.50        -7.0898   3.0000                                         
     3  2  1.50        -6.8029   0.0000                                         
   Description                                                                  
     l       E           TYP  RCUT    TYP  RCUT                                 
     0    -18.5828119     23  1.200                                             
     0    -13.5018863     23  1.200                                             
     1     -7.0897853     23  1.500                                             
     1      9.5240782     23  1.500                                             
     2     -6.8029130      7  1.500                                             
  local pseudopotential read in
  partial core-charges read in
  partial kinetic energy density read in
  atomic valenz-charges read in
  non local Contribution for L=           0  read in
    real space projection operators read in
  non local Contribution for L=           0  read in
    real space projection operators read in
  non local Contribution for L=           1  read in
    real space projection operators read in
  non local Contribution for L=           1  read in
    real space projection operators read in
    PAW grid and wavefunctions read in
 
   number of l-projection  operators is LMAX  =           4
   number of lm-projection operators is LMMAX =           8
 
 POTCAR:    PAW_PBE Ge_d 03Jul2007                
   SHA256 =  944b26c40d2d7c4f4eb1ff3a2e8dbfdd7129146276cd341854bfd5c0e57780ed Ge
   COPYR  = (c) Copyright 03Jul2007 Georg Kresse                                
   COPYR  = This file is part of the software VASP. Any use, copying, and all ot
   COPYR  = If you do not have a valid VASP license, you may not use, copy or di
   VRHFIN =Ge: 3d4s4p                                                           
   LEXCH  = PE                                                                  
   EATOM  =  2596.2402 eV,  190.8183 Ry                                         
                                                                                
   TITEL  = PAW_PBE Ge_d 03Jul2007                                              
   LULTRA =        F    use ultrasoft PP ?                                      
   IUNSCR =        1    unscreen: 0-lin 1-nonlin 2-no                           
   RPACOR =    2.000    partial core radius                                     
   POMASS =   72.610; ZVAL   =   14.000    mass and valenz                      
   RCORE  =    2.300    outmost cutoff radius                                   
   RWIGS  =    2.300; RWIGS  =    1.217    wigner-seitz radius (au A)           
   ENMAX  =  310.294; ENMIN  =  232.720 eV                                      
   ICORE  =        3    local potential                                         
   LCOR   =        T    correct aug charges                                     
   LPAW   =        T    paw PP                                                  
   EAUG   =  531.356                                                            
   DEXC   =    0.000                                                            
   RMAX   =    2.342    core radius for proj-oper                               
   RAUG   =    1.300    factor for augmentation sphere                          
   RDEP   =    2.318    radius for radial grids                                 
   RDEPT  =    1.783    core radius for aug-charge                              
                                                                                
   Atomic configuration                                                         
    9 entries                                                                   
     n  l   j            E        occ.                                          
     1  0  0.50    -10959.8463   2.0000                                         
     2  0  0.50     -1371.6056   2.0000                                         
     2  1  1.50     -1198.4791   6.0000                                         
     3  0  0.50      -168.4733   2.0000                                         
     3  1  1.50      -115.6019   6.0000                                         
     3  2  2.50       -29.3106  10.0000                                         
     4  0  0.50       -11.7309   2.0000                                         
     4  1  0.50        -3.8952   2.0000                                         
     4  3  2.50        -4.0817   0.0000                                         
   Description                                                                  
     l       E           TYP  RCUT    TYP  RCUT                                 
     2    -29.3105938     23  2.200                                             
     2    -13.6058260     23  2.200                                             
     0    -11.7309493     23  2.300                                             
     0     -7.4578696     23  2.300                                             
     1     -3.8952261     23  2.300                                             
     1      6.1178114     23  2.300                                             
     3     -1.3605826     23  2.300                                             
  local pseudopotential read in
  partial core-charges read in
  partial kinetic energy density read in
  atomic valenz-charges read in
  non local Contribution for L=           2  read in
    real space projection operators read in
  non local Contribution for L=           2  read in
    real space projection operators read in
  non local Contribution for L=           0  read in
    real space projection operators read in
  non local Contribution for L=           0  read in
    real space projection operators read in
  non local Contribution for L=           1  read in
    real space projection operators read in
  non local Contribution for L=           1  read in
    real space projection operators read in
    PAW grid and wavefunctions read in
 
   number of l-projection  operators is LMAX  =           6
   number of lm-projection operators is LMMAX =          18
 

 ----------------------------------------------------------------------------- 
|                                                                             |
|  ADVICE TO THIS USER RUNNING 'VASP/VAMP'   (HEAR YOUR MASTER'S VOICE ...):  |
|                                                                             |
|      You have a (more or less) 'large supercell' and for larger cells       |
|      it might be more efficient to use real space projection opertators     |
|      So try LREAL= Auto  in the INCAR   file.                               |
|      Mind:          For very  accurate calculation you might also keep the  |
|      reciprocal projection scheme          (i.e. LREAL=.FALSE.)             |
|                                                                             |
 ----------------------------------------------------------------------------- 

  PAW_PBE C 08Apr2002                   :
 energy of atom  1       EATOM= -147.1560
 kinetic energy error for atom=    0.0132 (will be added to EATOM!!)
  PAW_PBE N 08Apr2002                   :
 energy of atom  2       EATOM= -264.5486
 kinetic energy error for atom=    0.0298 (will be added to EATOM!!)
  PAW_PBE Ge_d 03Jul2007                :
 energy of atom  3       EATOM=-2596.2402
 kinetic energy error for atom=    0.0090 (will be added to EATOM!!)
 
 
 POSCAR: POSCAR-c3n4                             
  positions in cartesian coordinates
  No initial velocities read in
 exchange correlation table for  LEXCH =        8
   RHO(1)=    0.500       N(1)  =     2000
   RHO(2)=  100.500       N(2)  =     4000

 VTST: version 3.2, (02/03/18)

 CHAIN: initializing optimizer
 
 OPT: Using VASP Dynamics algorithm
 CHAIN: Read ICHAIN            0
 
 POSCAR: POSCAR-c3n4                             
  positions in cartesian coordinates
  No initial velocities read in
 


--------------------------------------------------------------------------------------------------------


 ion  position               nearest neighbor table
   1  0.106  0.214  0.426-  26 1.15  46 1.15  25 1.22   6 1.94  16 1.94
   2  0.288  0.399  0.433-  29 1.14  35 1.19  25 1.23   5 1.97  10 2.00
   3  0.104  0.392  0.427-  44 1.13  39 1.19  25 1.23  17 1.96  12 1.99
   4  0.447  0.064  0.506-  30 1.14  27 1.15  48 1.21  13 1.95   8 1.95
   5  0.453  0.401  0.413-  28 1.14  29 1.15  56 1.23  15 1.94   2 1.97
   6  0.112  0.053  0.449-  26 1.14  31 1.15  32 1.20   9 1.93   1 1.94  16 2.06
   7  0.096  0.712  0.484-  54 1.14  34 1.17  33 1.21  12 1.93  22 1.96
   8  0.284  0.890  0.501-  27 1.15  37 1.16  33 1.22   4 1.95  11 1.95
   9  0.109  0.895  0.498-  31 1.14  52 1.16  33 1.23   6 1.93  23 1.94
  10  0.448  0.548  0.502-  38 1.14  56 1.17  35 1.17  19 1.93   2 2.00  24 2.03  57 2.35
  11  0.445  0.885  0.489-  37 1.15  36 1.15  48 1.19  21 1.95   8 1.95
  12  0.087  0.542  0.481-  34 1.14  40 1.16  39 1.17   7 1.93   3 1.99  22 2.06  57 2.35
  13  0.616  0.223  0.473-  42 1.16  30 1.16  41 1.21   4 1.95  18 1.95
  14  0.780  0.390  0.400-  45 1.16  51 1.17  41 1.21  17 1.93  22 1.93
  15  0.610  0.394  0.435-  28 1.15  55 1.15  41 1.25  24 1.94   5 1.94
  16  0.940  0.052  0.461-  46 1.13  43 1.15  32 1.20  20 1.93   1 1.94   6 2.06
  17  0.941  0.387  0.394-  45 1.14  44 1.15  40 1.22  14 1.93   3 1.96
  18  0.623  0.066  0.512-  42 1.14  47 1.15  48 1.21  13 1.95  21 1.95
  19  0.613  0.711  0.531-  50 1.14  38 1.17  49 1.21  10 1.93  24 1.96
  20  0.790  0.897  0.523-  43 1.14  53 1.15  49 1.24  16 1.93  23 1.94
  21  0.609  0.892  0.521-  47 1.15  36 1.16  49 1.24  18 1.95  11 1.95
  22  0.938  0.563  0.421-  51 1.13  54 1.16  40 1.22  14 1.93   7 1.96  12 2.06
  23  0.954  0.902  0.535-  52 1.15  53 1.15  32 1.20  20 1.94   9 1.94
  24  0.621  0.555  0.490-  55 1.13  50 1.14  56 1.22  15 1.94  19 1.96  10 2.03
  25  0.167  0.335  0.425-   1 1.22   3 1.23   2 1.23
  26  0.165  0.161  0.421-   6 1.14   1 1.15
  27  0.336  0.002  0.522-   8 1.15   4 1.15
  28  0.512  0.352  0.392-   5 1.14  15 1.15
  29  0.345  0.361  0.390-   2 1.14   5 1.15
  30  0.506  0.177  0.493-   4 1.14  13 1.16
  31  0.159  0.988  0.447-   9 1.14   6 1.15
  32  0.002  0.002  0.483-  16 1.20  23 1.20   6 1.20
  33  0.165  0.831  0.500-   7 1.21   8 1.22   9 1.23
  34  0.134  0.645  0.518-  12 1.14   7 1.17  57 2.26
  35  0.334  0.491  0.492-  10 1.17   2 1.19  57 1.77
  36  0.503  0.831  0.490-  11 1.15  21 1.16
  37  0.333  0.829  0.479-  11 1.15   8 1.16
  38  0.499  0.648  0.545-  10 1.14  19 1.17  57 2.27
  39  0.142  0.484  0.485-  12 1.17   3 1.19  57 1.79
  40  0.988  0.496  0.436-  12 1.16  22 1.22  17 1.22
  41  0.667  0.330  0.429-  13 1.21  14 1.21  15 1.25
  42  0.680  0.178  0.495-  18 1.14  13 1.16
  43  0.827  0.986  0.468-  20 1.14  16 1.15
  44  0.011  0.348  0.379-   3 1.13  17 1.15
  45  0.830  0.330  0.380-  17 1.14  14 1.16
  46  0.993  0.161  0.435-  16 1.13   1 1.15
  47  0.669  0.005  0.539-  21 1.15  18 1.15
  48  0.505  0.004  0.498-  11 1.19  18 1.21   4 1.21
  49  0.668  0.832  0.534-  19 1.21  21 1.24  20 1.24
  50  0.675  0.666  0.512-  19 1.14  24 1.14
  51  0.832  0.507  0.396-  22 1.13  14 1.17
  52  0.016  0.853  0.549-  23 1.15   9 1.16
  53  0.849  0.860  0.566-  20 1.15  23 1.15
  54  0.004  0.677  0.435-   7 1.14  22 1.16
  55  0.668  0.491  0.484-  24 1.13  15 1.15
  56  0.506  0.502  0.467-  10 1.17  24 1.22   5 1.23
  57  0.287  0.593  0.558-  35 1.77  39 1.79  34 2.26  38 2.27  10 2.35  12 2.35
 

IMPORTANT INFORMATION: All symmetrisations will be switched off!
NOSYMM: (Re-)initialisation of all symmetry stuff for point group C_1.

 
 
 KPOINTS: K-Points                                

Automatic generation of k-mesh.
Space group operators:
 irot       det(A)        alpha          n_x          n_y          n_z        tau_x        tau_y        tau_z
    1     1.000000     0.000000     1.000000     0.000000     0.000000     0.000000     0.000000     0.000000
 
 Subroutine IBZKPT returns following result:
 ===========================================
 
 Found      5 irreducible k-points:
 
 Following reciprocal coordinates:
            Coordinates               Weight
  0.000000  0.000000  0.000000      1.000000
  0.333333 -0.000000  0.000000      2.000000
  0.000000  0.333333  0.000000      2.000000
  0.333333  0.333333  0.000000      2.000000
 -0.333333  0.333333  0.000000      2.000000
 
 Following cartesian coordinates:
            Coordinates               Weight
  0.000000  0.000000  0.000000      1.000000
  0.024277  0.014368  0.000000      2.000000
  0.000396  0.028736  0.000000      2.000000
  0.024673  0.043104  0.000000      2.000000
 -0.023881  0.014368  0.000000      2.000000
 
 TETIRR: Found     24 inequivalent tetrahedra from       54


--------------------------------------------------------------------------------------------------------




 Dimension of arrays:
   k-points           NKPTS =      5   k-points in BZ     NKDIM =      5   number of bands    NBANDS=    168
   number of dos      NEDOS =   4000   number of ions     NIONS =     57
   non local maximal  LDIM  =      6   non local SUM 2l+1 LMDIM =     18
   total plane-waves  NPLWV = 268800
   max r-space proj   IRMAX =      1   max aug-charges    IRDMAX=   6099
   dimension x,y,z NGX =    64 NGY =   60 NGZ =   70
   dimension x,y,z NGXF=   128 NGYF=  120 NGZF=  140
   support grid    NGXF=   128 NGYF=  120 NGZF=  140
   ions per type =              24  32   1
   NGX,Y,Z   is equivalent  to a cutoff of   8.94,  8.53,  9.02 a.u.
   NGXF,Y,Z  is equivalent  to a cutoff of  17.87, 17.07, 18.04 a.u.

 SYSTEM =  unknown system                          
 POSCAR =  POSCAR-c3n4                             

 Startparameter for this run:
   NWRITE =      2    write-flag & timer
   PREC   = normal    normal or accurate (medium, high low for compatibility)
   ISTART =      0    job   : 0-new  1-cont  2-samecut
   ICHARG =      2    charge: 1-file 2-atom 10-const
   ISPIN  =      2    spin polarized calculation?
   LNONCOLLINEAR =      F non collinear calculations
   LSORBIT =      F    spin-orbit coupling
   INIWAV =      1    electr: 0-lowe 1-rand  2-diag
   LASPH  =      F    aspherical Exc in radial PAW
   METAGGA=      F    non-selfconsistent MetaGGA calc.

 Electronic Relaxation 1
   ENCUT  =  440.0 eV  32.34 Ry    5.69 a.u.  20.36 19.99 22.06*2*pi/ulx,y,z
   ENINI  =  440.0     initial cutoff
   ENAUG  =  644.9 eV  augmentation charge cutoff
   NELM   =    100;   NELMIN=  2; NELMDL= -5     # of ELM steps 
   EDIFF  = 0.1E-03   stopping-criterion for ELM
   LREAL  =      F    real-space projection
   NLSPLINE    = F    spline interpolate recip. space projectors
   LCOMPAT=      F    compatible to vasp.4.4
   GGA_COMPAT  = T    GGA compatible to vasp.4.4-vasp.4.6
   LMAXPAW     = -100 max onsite density
   LMAXMIX     =    2 max onsite mixed and CHGCAR
   VOSKOWN=      0    Vosko Wilk Nusair interpolation
   ROPT   =    0.00000   0.00000   0.00000
 Ionic relaxation
   EDIFFG = -.1E-01   stopping-criterion for IOM
   NSW    =      0    number of steps for IOM
   NBLOCK =      1;   KBLOCK =      1    inner block; outer block 
   IBRION =     -1    ionic relax: 0-MD 1-quasi-New 2-CG
   NFREE  =      0    steps in history (QN), initial steepest desc. (CG)
   ISIF   =      2    stress and relaxation
   IWAVPR =     10    prediction:  0-non 1-charg 2-wave 3-comb
   ISYM   =      0    0-nonsym 1-usesym 2-fastsym
   LCORR  =      T    Harris-Foulkes like correction to forces

   POTIM  = 0.5000    time-step for ionic-motion
   TEIN   =    0.0    initial temperature
   TEBEG  =    0.0;   TEEND  =   0.0 temperature during run
   SMASS  =  -3.00    Nose mass-parameter (am)
   estimated Nose-frequenzy (Omega)   =  0.10E-29 period in steps =****** mass=  -0.324E-26a.u.
   SCALEE = 1.0000    scale energy and forces
   NPACO  =    256;   APACO  = 16.0  distance and # of slots for P.C.
   PSTRESS=    0.0 pullay stress

  Mass of Ions in am
   POMASS =  12.01 14.00 72.61
  Ionic Valenz
   ZVAL   =   4.00  5.00 14.00
  Atomic Wigner-Seitz radii
   RWIGS  =  -1.00 -1.00 -1.00
  virtual crystal weights 
   VCA    =   1.00  1.00  1.00
   NELECT =     270.0000    total number of electrons
   NUPDOWN=      -1.0000    fix difference up-down

 DOS related values:
   EMIN   = -14.00;   EMAX   =  6.00  energy-range for DOS
   EFERMI =   0.00
   ISMEAR =    -5;   SIGMA  =   0.20  broadening in eV -4-tet -1-fermi 0-gaus

 Electronic relaxation 2 (details)
   IALGO  =     38    algorithm
   LDIAG  =      T    sub-space diagonalisation (order eigenvalues)
   LSUBROT=      F    optimize rotation matrix (better conditioning)
   TURBO    =      0    0=normal 1=particle mesh
   IRESTART =      0    0=no restart 2=restart with 2 vectors
   NREBOOT  =      0    no. of reboots
   NMIN     =      0    reboot dimension
   EREF     =   0.00    reference energy to select bands
   IMIX   =      4    mixing-type and parameters
     AMIX     =   0.25;   BMIX     =  0.00
     AMIX_MAG =   1.00;   BMIX_MAG =  0.00
     AMIN     =   0.10
     WC   =   100.;   INIMIX=   1;  MIXPRE=   1;  MAXMIX= -45

 Intra band minimization:
   WEIMIN = 0.0000     energy-eigenvalue tresh-hold
   EBREAK =  0.15E-06  absolut break condition
   DEPER  =   0.30     relativ break condition  

   TIME   =   0.40     timestep for ELM

  volume/ion in A,a.u.               =      26.88       181.39
  Fermi-wavevector in a.u.,A,eV,Ry     =   0.917844  1.734474 11.462063  0.842438
  Thomas-Fermi vector in A             =   2.042859
 
 Write flags
   LWAVE        =      F    write WAVECAR
   LDOWNSAMPLE  =      F    k-point downsampling of WAVECAR
   LCHARG       =      F    write CHGCAR
   LVTOT        =      F    write LOCPOT, total local potential
   LVHAR        =      F    write LOCPOT, Hartree potential only
   LELF         =      F    write electronic localiz. function (ELF)
   LORBIT       =     11    0 simple, 1 ext, 2 COOP (PROOUT), +10 PAW based schemes


 Dipole corrections
   LMONO  =      F    monopole corrections only (constant potential shift)
   LDIPOL =      F    correct potential (dipole corrections)
   IDIPOL =      0    1-x, 2-y, 3-z, 4-all directions 
   EPSILON=  1.0000000 bulk dielectric constant

 Exchange correlation treatment:
   GGA     =    --    GGA type
   LEXCH   =     8    internal setting for exchange type
   VOSKOWN=      0    Vosko Wilk Nusair interpolation
   LHFCALC =     F    Hartree Fock is set to
   LHFONE  =     F    Hartree Fock one center treatment
   AEXX    =    0.0000 exact exchange contribution

 Linear response parameters
   LEPSILON=     F    determine dielectric tensor
   LRPA    =     F    only Hartree local field effects (RPA)
   LNABLA  =     F    use nabla operator in PAW spheres
   LVEL    =     F    velocity operator in full k-point grid
   LINTERFAST=   F  fast interpolation
   KINTER  =     0    interpolate to denser k-point grid
   CSHIFT  =0.1000    complex shift for real part using Kramers Kronig
   OMEGAMAX=  -1.0    maximum frequency
   DEG_THRESHOLD= 0.2000000E-02 threshold for treating states as degnerate
   RTIME   =   -0.100 relaxation time in fs
  (WPLASMAI=    0.000 imaginary part of plasma frequency in eV, 0.658/RTIME)
   DFIELD  = 0.0000000 0.0000000 0.0000000 field for delta impulse in time
 
 Orbital magnetization related:
   ORBITALMAG=     F  switch on orbital magnetization
   LCHIMAG   =     F  perturbation theory with respect to B field
   DQ        =  0.001000  dq finite difference perturbation B field
   LLRAUG    =     F  two centre corrections for induced B field



--------------------------------------------------------------------------------------------------------


 Static calculation
 charge density and potential will be updated during run
 spin polarized calculation
 Variant of blocked Davidson
 Davidson routine will perform the subspace rotation
 perform sub-space diagonalisation
    after iterative eigenvector-optimisation
 modified Broyden-mixing scheme, WC =      100.0
 initial mixing is a Kerker type mixing with AMIX =  0.2500 and BMIX =      0.0001
 Hartree-type preconditioning will be used
 using additional bands           33
 reciprocal scheme for non local part
 use partial core corrections
 calculate Harris-corrections to forces 
   (improved forces if not selfconsistent)
 use gradient corrections 
 use of overlap-Matrix (Vanderbilt PP)
 Fermi weights with tetrahedron method with Bloechl corrections


--------------------------------------------------------------------------------------------------------


  energy-cutoff  :      440.00
  volume of cell :     1532.08
      direct lattice vectors                 reciprocal lattice vectors
    11.905344842 -0.164036808  0.000000000     0.084686476  0.050121063  0.000000000
    -5.952672421 10.057864255  0.000000000     0.001381178  0.100242126  0.000000000
     0.000000000  0.000000000 12.900000000     0.000000000  0.000000000  0.077519380

  length of vectors
    11.906474872 11.687383895 12.900000000     0.098406911  0.100251641  0.077519380


 
 k-points in units of 2pi/SCALE and weight: K-Points                                
   0.00000000  0.00000000  0.00000000       0.111
   0.02427679  0.01436804  0.00000000       0.222
   0.00039594  0.02873608  0.00000000       0.222
   0.02467273  0.04310411  0.00000000       0.222
  -0.02388085  0.01436804  0.00000000       0.222
 
 k-points in reciprocal lattice and weights: K-Points                                
   0.00000000  0.00000000  0.00000000       0.111
   0.33333333 -0.00000000  0.00000000       0.222
   0.00000000  0.33333333  0.00000000       0.222
   0.33333333  0.33333333  0.00000000       0.222
  -0.33333333  0.33333333  0.00000000       0.222
 
 position of ions in fractional coordinates (direct lattice) 
   0.10567936  0.21351909  0.42646415
   0.28750403  0.39866334  0.43315811
   0.10379301  0.39177313  0.42728737
   0.44732828  0.06383887  0.50569377
   0.45258916  0.40124889  0.41252546
   0.11203481  0.05273921  0.44868132
   0.09638015  0.71191070  0.48390127
   0.28433946  0.89006364  0.50120122
   0.10941441  0.89537413  0.49812536
   0.44792521  0.54827090  0.50190381
   0.44544784  0.88520183  0.48897001
   0.08690842  0.54210436  0.48067119
   0.61614813  0.22292684  0.47270451
   0.78023735  0.38968276  0.39988272
   0.61037743  0.39432339  0.43546161
   0.93951642  0.05229783  0.46070020
   0.94071854  0.38652888  0.39388003
   0.62278394  0.06558106  0.51203168
   0.61322902  0.71118454  0.53124878
   0.78984871  0.89727295  0.52288011
   0.60944297  0.89248269  0.52132702
   0.93832005  0.56283419  0.42050954
   0.95436023  0.90171878  0.53466451
   0.62130548  0.55465507  0.48986027
   0.16668926  0.33545237  0.42502835
   0.16473950  0.16097029  0.42095206
   0.33626584  0.00180669  0.52215766
   0.51175722  0.35246859  0.39238613
   0.34471728  0.36074551  0.38975287
   0.50565751  0.17673507  0.49315170
   0.15873210  0.98821904  0.44665654
   0.00214731  0.00186372  0.48284181
   0.16462634  0.83083069  0.50025956
   0.13400723  0.64526801  0.51778798
   0.33371346  0.49116238  0.49155062
   0.50288345  0.83078126  0.48972341
   0.33307237  0.82932770  0.47937372
   0.49902190  0.64803204  0.54483375
   0.14173676  0.48364631  0.48511610
   0.98839512  0.49595573  0.43598798
   0.66736443  0.33015381  0.42931770
   0.67970142  0.17802103  0.49523771
   0.82720183  0.98622484  0.46784919
   0.01097216  0.34809993  0.37880244
   0.83047981  0.33016544  0.37952861
   0.99296173  0.16101876  0.43513088
   0.66886761  0.00524437  0.53948092
   0.50484899  0.00388347  0.49830916
   0.66830364  0.83227641  0.53419919
   0.67536455  0.66551462  0.51246466
   0.83211404  0.50666912  0.39574663
   0.01584380  0.85299492  0.54867721
   0.84924332  0.85956436  0.56604968
   0.00424175  0.67726383  0.43455477
   0.66753141  0.49127771  0.48382075
   0.50565566  0.50179634  0.46716125
   0.28676550  0.59288202  0.55779478
 
 position of ions in cartesian coordinates  (Angst):
  -0.01285993  2.13021067  5.50138756
   1.04972232  3.96254050  5.58773966
  -1.09640559  3.92337510  5.51200708
   4.94558557  0.56870435  6.52344958
   2.99972675  3.96146562  5.32157844
   1.01987382  0.51206602  5.78798905
  -3.09033229  7.14449131  6.24232640
  -1.91309799  8.90549712  6.46549577
  -4.02725267  8.98760348  6.42581712
   2.06902706  5.44095808  6.47455912
   0.03389365  8.83017002  6.30771307
  -2.19229503  5.43815593  6.20065831
   6.00844551  2.14109694  6.09788814
   6.96934085  3.79138869  5.15848708
   4.91947576  3.86592680  5.61745480
  10.87395517  0.37188917  5.94303261
   8.89869884  3.73334257  5.08105241
   7.02407500  0.55744586  6.60520863
   3.06725440  7.05240546  6.85310923
   4.06224930  8.89508530  6.74515336
   1.94297160  8.87649862  6.72511859
   7.82065619  5.50699089  5.42457307
   5.99435107  8.91281490  6.89717223
   4.09517609  5.47672847  6.31919744
  -0.01234495  3.34659125  5.48286569
   1.00307720  1.59199395  5.43028156
   3.99260611 -0.03698856  6.73583377
   3.99451618  3.46113418  5.06178114
   1.95657822  3.57178306  5.02781207
   4.96798100  1.69463095  6.36165690
  -3.99278390  9.91333507  5.76186940
   0.01447037  0.01839280  6.22865939
  -2.98572951  8.32937749  6.45334836
  -2.24566680  6.46803591  6.67946490
   1.04924512  4.88530322  6.34100299
   1.04163222  8.27339369  6.31743205
  -0.97137472  8.28662929  6.18392102
   2.08350536  6.43596034  7.02835540
  -1.19156305  4.84119884  6.25799771
   8.81492277  4.82612226  5.62424490
   5.97990620  3.21116990  5.53819835
   7.03237896  1.67901529  6.38856645
   3.97744968  9.78362400  6.03525452
  -1.94149751  3.49934196  4.88655148
   7.92178179  3.18452992  4.89591908
  10.86305983  1.45662255  5.61318829
   7.93188161 -0.05697178  6.95930382
   5.98728432 -0.04375440  6.42818816
   3.00211652  8.26129674  6.89116960
   4.07885730  6.58287108  6.61079409
   6.89056925  4.95951192  5.10513152
  -4.88897348  8.57670817  7.07793604
   4.99382951  8.50607453  7.30204086
  -3.98103027  6.81113189  5.60575654
   5.02277629  4.83170481  6.24128764
   3.03297574  4.96405337  6.02638009
  -0.11519031  5.91608683  7.19555270
 


--------------------------------------------------------------------------------------------------------


 k-point  1 :   0.0000 0.0000 0.0000  plane waves:   32107
 k-point  2 :   0.3333-0.0000 0.0000  plane waves:   32068
 k-point  3 :   0.0000 0.3333 0.0000  plane waves:   32082
 k-point  4 :   0.3333 0.3333 0.0000  plane waves:   32093
 k-point  5 :  -0.3333 0.3333 0.0000  plane waves:   32111

 maximum and minimum number of plane-waves per node :      2692     2653

 maximum number of plane-waves:     32111
 maximum index in each direction: 
   IXMAX=   20   IYMAX=   19   IZMAX=   22
   IXMIN=  -20   IYMIN=  -20   IZMIN=  -22


 parallel 3D FFT for wavefunctions:
    minimum data exchange during FFTs selected (reduces bandwidth)
 parallel 3D FFT for charge:
    minimum data exchange during FFTs selected (reduces bandwidth)


 total amount of memory used by VASP MPI-rank0    65682. kBytes
=======================================================================

   base      :      30000. kBytes
   nonl-proj :       8220. kBytes
   fftplans  :       2461. kBytes
   grid      :       6514. kBytes
   one-center:        155. kBytes
   wavefun   :      18332. kBytes
 
     INWAV:  cpu time    0.0000: real time    0.0001
 Broyden mixing: mesh for mixing (old mesh)
   NGX = 41   NGY = 39   NGZ = 45
  (NGX  =128   NGY  =120   NGZ  =140)
  gives a total of  71955 points

 initial charge density was supplied:
 charge density of overlapping atoms calculated
 number of electron     270.0000000 magnetization       1.0000000
 keeping initial charge density in first step


--------------------------------------------------------------------------------------------------------


 Maximum index for augmentation-charges          178 (set IRDMAX)


--------------------------------------------------------------------------------------------------------


 First call to EWALD:  gamma=   0.154
 Maximum number of real-space cells 3x 3x 3
 Maximum number of reciprocal cells 3x 3x 3

    FEWALD:  cpu time    0.0034: real time    0.0036


--------------------------------------- Iteration      1(   1)  ---------------------------------------


    POTLOK:  cpu time    0.0652: real time    0.0772
    SETDIJ:  cpu time    0.0092: real time    0.0099
     EDDAV:  cpu time    4.7967: real time    4.8954
 BZINTS: Fermi energy: 12.183345;270.000000 electrons
         Band energy:***********;  BLOECHL correction: -0.014824
       DOS:  cpu time    0.2761: real time    0.2766
    --------------------------------------------
      LOOP:  cpu time    5.1472: real time    5.2591

 eigenvalue-minimisations  :  4000
 total energy-change (2. order) : 0.2941816E+04  (-0.1169704E+05)
 number of electron     270.0000000 magnetization       1.0000000
 augmentation part      270.0000000 magnetization       1.0000000

 Free energy of the ion-electron system (eV)
  ---------------------------------------------------
  alpha Z        PSCENC =       226.82526955
  Ewald energy   TEWEN  =     31841.08671366
  -Hartree energ DENC   =    -42514.25571877
  -exchange      EXHF   =         0.00000000
  -V(xc)+E(xc)   XCENC  =      1093.83920178
  PAW double counting   =     10998.91041168   -11485.61342155
  entropy T*S    EENTRO =         0.00000000
  eigenvalues    EBANDS =     -1811.23691818
  atomic energy  EATOM  =     14592.26033195
  Solvation  Ediel_sol  =         0.00000000
  ---------------------------------------------------
  free energy    TOTEN  =      2941.81587012 eV

  energy without entropy =     2941.81587012  energy(sigma->0) =     2941.81587012


--------------------------------------------------------------------------------------------------------




--------------------------------------- Iteration      1(   2)  ---------------------------------------


     EDDAV:  cpu time    7.2510: real time    7.3064
 BZINTS: Fermi energy:  0.217213;270.000000 electrons
         Band energy:***********;  BLOECHL correction: -0.009641
       DOS:  cpu time    0.0100: real time    0.0100
    --------------------------------------------
      LOOP:  cpu time    7.2610: real time    7.3163

 eigenvalue-minimisations  :  4456
 total energy-change (2. order) :-0.2961513E+04  (-0.2856670E+04)
 number of electron     270.0000000 magnetization       1.0000000
 augmentation part      270.0000000 magnetization       1.0000000

 Free energy of the ion-electron system (eV)
  ---------------------------------------------------
  alpha Z        PSCENC =       226.82526955
  Ewald energy   TEWEN  =     31841.08671366
  -Hartree energ DENC   =    -42514.25571877
  -exchange      EXHF   =         0.00000000
  -V(xc)+E(xc)   XCENC  =      1093.83920178
  PAW double counting   =     10998.91041168   -11485.61342155
  entropy T*S    EENTRO =         0.00000000
  eigenvalues    EBANDS =     -4772.75033069
  atomic energy  EATOM  =     14592.26033195
  Solvation  Ediel_sol  =         0.00000000
  ---------------------------------------------------
  free energy    TOTEN  =       -19.69754238 eV

  energy without entropy =      -19.69754238  energy(sigma->0) =      -19.69754238


--------------------------------------------------------------------------------------------------------




--------------------------------------- Iteration      1(   3)  ---------------------------------------


     EDDAV:  cpu time    6.6265: real time    6.6910
 BZINTS: Fermi energy: -3.630317;270.000000 electrons
         Band energy:***********;  BLOECHL correction: -0.027016
       DOS:  cpu time    0.0104: real time    0.0105
    --------------------------------------------
      LOOP:  cpu time    6.6370: real time    6.7015

 eigenvalue-minimisations  :  4000
 total energy-change (2. order) :-0.4227465E+03  (-0.4182453E+03)
 number of electron     270.0000000 magnetization       1.0000000
 augmentation part      270.0000000 magnetization       1.0000000

 Free energy of the ion-electron system (eV)
  ---------------------------------------------------
  alpha Z        PSCENC =       226.82526955
  Ewald energy   TEWEN  =     31841.08671366
  -Hartree energ DENC   =    -42514.25571877
  -exchange      EXHF   =         0.00000000
  -V(xc)+E(xc)   XCENC  =      1093.83920178
  PAW double counting   =     10998.91041168   -11485.61342155
  entropy T*S    EENTRO =         0.00000000
  eigenvalues    EBANDS =     -5195.49686480
  atomic energy  EATOM  =     14592.26033195
  Solvation  Ediel_sol  =         0.00000000
  ---------------------------------------------------
  free energy    TOTEN  =      -442.44407650 eV

  energy without entropy =     -442.44407650  energy(sigma->0) =     -442.44407650


--------------------------------------------------------------------------------------------------------




--------------------------------------- Iteration      1(   4)  ---------------------------------------


     EDDAV:  cpu time    6.6094: real time    6.6465
 BZINTS: Fermi energy: -4.036259;270.000000 electrons
         Band energy:***********;  BLOECHL correction:  0.000000
       DOS:  cpu time    0.0042: real time    0.0042
    --------------------------------------------
      LOOP:  cpu time    6.6136: real time    6.6507

 eigenvalue-minimisations  :  4136
 total energy-change (2. order) :-0.1429594E+02  (-0.1394122E+02)
 number of electron     270.0000000 magnetization       1.0000000
 augmentation part      270.0000000 magnetization       1.0000000

 Free energy of the ion-electron system (eV)
  ---------------------------------------------------
  alpha Z        PSCENC =       226.82526955
  Ewald energy   TEWEN  =     31841.08671366
  -Hartree energ DENC   =    -42514.25571877
  -exchange      EXHF   =         0.00000000
  -V(xc)+E(xc)   XCENC  =      1093.83920178
  PAW double counting   =     10998.91041168   -11485.61342155
  entropy T*S    EENTRO =         0.00000000
  eigenvalues    EBANDS =     -5209.79280306
  atomic energy  EATOM  =     14592.26033195
  Solvation  Ediel_sol  =         0.00000000
  ---------------------------------------------------
  free energy    TOTEN  =      -456.74001475 eV

  energy without entropy =     -456.74001475  energy(sigma->0) =     -456.74001475


--------------------------------------------------------------------------------------------------------




--------------------------------------- Iteration      1(   5)  ---------------------------------------


     EDDAV:  cpu time    7.1249: real time    7.1715
 BZINTS: Fermi energy: -4.061265;270.000000 electrons
         Band energy:***********;  BLOECHL correction:  0.000000
       DOS:  cpu time    0.0039: real time    0.0040
    CHARGE:  cpu time    0.0833: real time    0.0860
    MIXING:  cpu time    0.0032: real time    0.0033
    --------------------------------------------
      LOOP:  cpu time    7.2152: real time    7.2648

 eigenvalue-minimisations  :  4384
 total energy-change (2. order) :-0.4948344E+00  (-0.4898091E+00)
 number of electron     269.9999953 magnetization       0.0000000
 augmentation part       23.4819539 magnetization      -0.0006735

 Broyden mixing:
  rms(total) = 0.61842E+01    rms(broyden)= 0.61816E+01
  rms(prec ) = 0.69374E+01
  weight for this iteration     100.00

 Free energy of the ion-electron system (eV)
  ---------------------------------------------------
  alpha Z        PSCENC =       226.82526955
  Ewald energy   TEWEN  =     31841.08671366
  -Hartree energ DENC   =    -42514.25571877
  -exchange      EXHF   =         0.00000000
  -V(xc)+E(xc)   XCENC  =      1093.83920178
  PAW double counting   =     10998.91041168   -11485.61342155
  entropy T*S    EENTRO =         0.00000000
  eigenvalues    EBANDS =     -5210.28763744
  atomic energy  EATOM  =     14592.26033195
  Solvation  Ediel_sol  =         0.00000000
  ---------------------------------------------------
  free energy    TOTEN  =      -457.23484913 eV

  energy without entropy =     -457.23484913  energy(sigma->0) =     -457.23484913


--------------------------------------------------------------------------------------------------------




--------------------------------------- Iteration      1(   6)  ---------------------------------------


    POTLOK:  cpu time    0.0531: real time    0.0553
    SETDIJ:  cpu time    0.0098: real time    0.0098
     EDDAV:  cpu time    6.0187: real time    6.0657
 BZINTS: Fermi energy: -2.400850;270.000000 electrons
         Band energy:***********;  BLOECHL correction:  0.000000
       DOS:  cpu time    0.0038: real time    0.0038
    CHARGE:  cpu time    0.0829: real time    0.0884
    MIXING:  cpu time    0.0019: real time    0.0027
    --------------------------------------------
      LOOP:  cpu time    6.1703: real time    6.2257

 eigenvalue-minimisations  :  4672
 total energy-change (2. order) : 0.6091980E+02  (-0.6268135E+01)
 number of electron     269.9999959 magnetization      -0.0000000
 augmentation part       22.4099145 magnetization      -0.0035332

 Broyden mixing:
  rms(total) = 0.42456E+01    rms(broyden)= 0.42455E+01
  rms(prec ) = 0.46212E+01
  weight for this iteration     100.00

 eigenvalues of (default mixing * dielectric matrix)
  average eigenvalue GAMMA=   2.0406
  2.0406

 Free energy of the ion-electron system (eV)
  ---------------------------------------------------
  alpha Z        PSCENC =       226.82526955
  Ewald energy   TEWEN  =     31841.08671366
  -Hartree energ DENC   =    -43127.86168548
  -exchange      EXHF   =         0.00000000
  -V(xc)+E(xc)   XCENC  =      1115.77318907
  PAW double counting   =     17276.92966452   -17770.45607810
  entropy T*S    EENTRO =         0.00000000
  eigenvalues    EBANDS =     -4550.87245927
  atomic energy  EATOM  =     14592.26033195
  Solvation  Ediel_sol  =         0.00000000
  ---------------------------------------------------
  free energy    TOTEN  =      -396.31505411 eV

  energy without entropy =     -396.31505411  energy(sigma->0) =     -396.31505411


--------------------------------------------------------------------------------------------------------




--------------------------------------- Iteration      1(   7)  ---------------------------------------


    POTLOK:  cpu time    0.0507: real time    0.0533
    SETDIJ:  cpu time    0.0085: real time    0.0085
     EDDAV:  cpu time    5.6789: real time    5.7227
 BZINTS: Fermi energy: -0.410353;270.000000 electrons
         Band energy:***********;  BLOECHL correction:  0.000000
       DOS:  cpu time    0.0037: real time    0.0037
    CHARGE:  cpu time    0.0834: real time    0.0854
    MIXING:  cpu time    0.0020: real time    0.0021
    --------------------------------------------
      LOOP:  cpu time    5.8271: real time    5.8757

 eigenvalue-minimisations  :  4216
 total energy-change (2. order) : 0.2629892E+02  (-0.1135564E+02)
 number of electron     269.9999957 magnetization      -0.0000000
 augmentation part       21.2298463 magnetization       0.0018979

 Broyden mixing:
  rms(total) = 0.22176E+01    rms(broyden)= 0.22170E+01
  rms(prec ) = 0.23280E+01
  weight for this iteration     100.00

 eigenvalues of (default mixing * dielectric matrix)
  average eigenvalue GAMMA=   1.8868
  1.0620  2.7115

 Free energy of the ion-electron system (eV)
  ---------------------------------------------------
  alpha Z        PSCENC =       226.82526955
  Ewald energy   TEWEN  =     31841.08671366
  -Hartree energ DENC   =    -43945.77897868
  -exchange      EXHF   =         0.00000000
  -V(xc)+E(xc)   XCENC  =      1144.92643850
  PAW double counting   =     32185.92473558   -32692.49064322
  entropy T*S    EENTRO =         0.00000000
  eigenvalues    EBANDS =     -3722.77000357
  atomic energy  EATOM  =     14592.26033195
  Solvation  Ediel_sol  =         0.00000000
  ---------------------------------------------------
  free energy    TOTEN  =      -370.01613625 eV

  energy without entropy =     -370.01613625  energy(sigma->0) =     -370.01613625


--------------------------------------------------------------------------------------------------------




--------------------------------------- Iteration      1(   8)  ---------------------------------------


    POTLOK:  cpu time    0.0531: real time    0.0547
    SETDIJ:  cpu time    0.0100: real time    0.0100
     EDDAV:  cpu time    5.5301: real time    5.5779
 BZINTS: Fermi energy:  0.054764;270.000000 electrons
         Band energy:***********;  BLOECHL correction:  0.000000
       DOS:  cpu time    0.0040: real time    0.0040
    CHARGE:  cpu time    0.0818: real time    0.0833
    MIXING:  cpu time    0.0018: real time    0.0018
    --------------------------------------------
      LOOP:  cpu time    5.6807: real time    5.7317

 eigenvalue-minimisations  :  4264
 total energy-change (2. order) : 0.1384148E+01  (-0.1572613E+01)
 number of electron     269.9999959 magnetization       0.0000000
 augmentation part       21.0232760 magnetization       0.0008363

 Broyden mixing:
  rms(total) = 0.15773E+01    rms(broyden)= 0.15772E+01
  rms(prec ) = 0.16263E+01
  weight for this iteration     100.00

 eigenvalues of (default mixing * dielectric matrix)
  average eigenvalue GAMMA=   1.9787
  3.4618  1.6668  0.8076

 Free energy of the ion-electron system (eV)
  ---------------------------------------------------
  alpha Z        PSCENC =       226.82526955
  Ewald energy   TEWEN  =     31841.08671366
  -Hartree energ DENC   =    -44032.89692314
  -exchange      EXHF   =         0.00000000
  -V(xc)+E(xc)   XCENC  =      1148.75090444
  PAW double counting   =     38901.72314019   -39412.25108553
  entropy T*S    EENTRO =         0.00000000
  eigenvalues    EBANDS =     -3634.13033943
  atomic energy  EATOM  =     14592.26033195
  Solvation  Ediel_sol  =         0.00000000
  ---------------------------------------------------
  free energy    TOTEN  =      -368.63198830 eV

  energy without entropy =     -368.63198830  energy(sigma->0) =     -368.63198830


--------------------------------------------------------------------------------------------------------




--------------------------------------- Iteration      1(   9)  ---------------------------------------


    POTLOK:  cpu time    0.0524: real time    0.0541
    SETDIJ:  cpu time    0.0081: real time    0.0086
     EDDAV:  cpu time    6.7590: real time    6.7920
 BZINTS: Fermi energy: -0.090273;270.000000 electrons
         Band energy:***********;  BLOECHL correction:  0.000000
       DOS:  cpu time    0.0038: real time    0.0038
    CHARGE:  cpu time    0.0829: real time    0.0834
    MIXING:  cpu time    0.0019: real time    0.0019
    --------------------------------------------
      LOOP:  cpu time    6.9081: real time    6.9438

 eigenvalue-minimisations  :  5288
 total energy-change (2. order) :-0.2753850E+00  (-0.9546032E+00)
 number of electron     269.9999961 magnetization       0.0000000
 augmentation part       21.1932942 magnetization      -0.0000679

 Broyden mixing:
  rms(total) = 0.62911E+00    rms(broyden)= 0.62882E+00
  rms(prec ) = 0.82848E+00
  weight for this iteration     100.00

 eigenvalues of (default mixing * dielectric matrix)
  average eigenvalue GAMMA=   1.8680
  3.8886  1.8300  0.8766  0.8766

 Free energy of the ion-electron system (eV)
  ---------------------------------------------------
  alpha Z        PSCENC =       226.82526955
  Ewald energy   TEWEN  =     31841.08671366
  -Hartree energ DENC   =    -43980.12894367
  -exchange      EXHF   =         0.00000000
  -V(xc)+E(xc)   XCENC  =      1148.10639999
  PAW double counting   =     48464.53443369   -48980.38908434
  entropy T*S    EENTRO =         0.00000000
  eigenvalues    EBANDS =     -3681.20249415
  atomic energy  EATOM  =     14592.26033195
  Solvation  Ediel_sol  =         0.00000000
  ---------------------------------------------------
  free energy    TOTEN  =      -368.90737332 eV

  energy without entropy =     -368.90737332  energy(sigma->0) =     -368.90737332


--------------------------------------------------------------------------------------------------------




--------------------------------------- Iteration      1(  10)  ---------------------------------------


    POTLOK:  cpu time    0.0702: real time    0.0720
    SETDIJ:  cpu time    0.0095: real time    0.0098
     EDDAV:  cpu time    6.3860: real time    6.4173
 BZINTS: Fermi energy:  0.136034;270.000000 electrons
         Band energy:***********;  BLOECHL correction:  0.000000
       DOS:  cpu time    0.0039: real time    0.0039
    CHARGE:  cpu time    0.0815: real time    0.0818
    MIXING:  cpu time    0.0019: real time    0.0019
    --------------------------------------------
      LOOP:  cpu time    6.5529: real time    6.5867

 eigenvalue-minimisations  :  5328
 total energy-change (2. order) : 0.7533035E+00  (-0.6748178E+00)
 number of electron     269.9999959 magnetization      -0.0000000
 augmentation part       21.1535034 magnetization      -0.0003087

 Broyden mixing:
  rms(total) = 0.30312E+00    rms(broyden)= 0.30274E+00
  rms(prec ) = 0.34757E+00
  weight for this iteration     100.00

 eigenvalues of (default mixing * dielectric matrix)
  average eigenvalue GAMMA=   1.6970
  4.0048  1.9850  1.0666  0.7143  0.7143

 Free energy of the ion-electron system (eV)
  ---------------------------------------------------
  alpha Z        PSCENC =       226.82526955
  Ewald energy   TEWEN  =     31841.08671366
  -Hartree energ DENC   =    -43980.28222812
  -exchange      EXHF   =         0.00000000
  -V(xc)+E(xc)   XCENC  =      1148.58066289
  PAW double counting   =     50829.96846261   -51345.14312164
  entropy T*S    EENTRO =         0.00000000
  eigenvalues    EBANDS =     -3681.45016069
  atomic energy  EATOM  =     14592.26033195
  Solvation  Ediel_sol  =         0.00000000
  ---------------------------------------------------
  free energy    TOTEN  =      -368.15406980 eV

  energy without entropy =     -368.15406980  energy(sigma->0) =     -368.15406980


--------------------------------------------------------------------------------------------------------




--------------------------------------- Iteration      1(  11)  ---------------------------------------


    POTLOK:  cpu time    0.0710: real time    0.0731
    SETDIJ:  cpu time    0.0097: real time    0.0097
     EDDAV:  cpu time    5.8504: real time    5.8898
 BZINTS: Fermi energy:  0.034759;270.000000 electrons
         Band energy:***********;  BLOECHL correction:  0.000000
       DOS:  cpu time    0.0037: real time    0.0037
    CHARGE:  cpu time    0.0825: real time    0.0836
    MIXING:  cpu time    0.0020: real time    0.0020
    --------------------------------------------
      LOOP:  cpu time    6.0194: real time    6.0620

 eigenvalue-minimisations  :  4496
 total energy-change (2. order) : 0.7749213E-01  (-0.7344227E-01)
 number of electron     269.9999959 magnetization      -0.0000000
 augmentation part       21.1491349 magnetization      -0.0001376

 Broyden mixing:
  rms(total) = 0.16000E+00    rms(broyden)= 0.15997E+00
  rms(prec ) = 0.17903E+00
  weight for this iteration     100.00

 eigenvalues of (default mixing * dielectric matrix)
  average eigenvalue GAMMA=   1.6501
  3.9305  2.0843  1.5074  0.9543  0.7121  0.7121

 Free energy of the ion-electron system (eV)
  ---------------------------------------------------
  alpha Z        PSCENC =       226.82526955
  Ewald energy   TEWEN  =     31841.08671366
  -Hartree energ DENC   =    -43954.53176675
  -exchange      EXHF   =         0.00000000
  -V(xc)+E(xc)   XCENC  =      1147.92984381
  PAW double counting   =     52012.09596620   -52526.77256571
  entropy T*S    EENTRO =         0.00000000
  eigenvalues    EBANDS =     -3706.97037038
  atomic energy  EATOM  =     14592.26033195
  Solvation  Ediel_sol  =         0.00000000
  ---------------------------------------------------
  free energy    TOTEN  =      -368.07657767 eV

  energy without entropy =     -368.07657767  energy(sigma->0) =     -368.07657767


--------------------------------------------------------------------------------------------------------




--------------------------------------- Iteration      1(  12)  ---------------------------------------


    POTLOK:  cpu time    0.0533: real time    0.0553
    SETDIJ:  cpu time    0.0099: real time    0.0100
     EDDAV:  cpu time    5.7508: real time    5.7819
 BZINTS: Fermi energy: -0.020255;270.000000 electrons
         Band energy:***********;  BLOECHL correction:  0.000000
       DOS:  cpu time    0.0038: real time    0.0042
    CHARGE:  cpu time    0.0817: real time    0.0820
    MIXING:  cpu time    0.0021: real time    0.0022
    --------------------------------------------
      LOOP:  cpu time    5.9016: real time    5.9356

 eigenvalue-minimisations  :  4592
 total energy-change (2. order) : 0.2852451E-01  (-0.1954305E-01)
 number of electron     269.9999959 magnetization      -0.0000000
 augmentation part       21.1513259 magnetization       0.0000024

 Broyden mixing:
  rms(total) = 0.85586E-01    rms(broyden)= 0.85566E-01
  rms(prec ) = 0.98584E-01
  weight for this iteration     100.00

 eigenvalues of (default mixing * dielectric matrix)
  average eigenvalue GAMMA=   1.6346
  3.8797  2.5375  1.7452  0.9479  0.9479  0.6920  0.6920

 Free energy of the ion-electron system (eV)
  ---------------------------------------------------
  alpha Z        PSCENC =       226.82526955
  Ewald energy   TEWEN  =     31841.08671366
  -Hartree energ DENC   =    -43939.61620230
  -exchange      EXHF   =         0.00000000
  -V(xc)+E(xc)   XCENC  =      1147.43350885
  PAW double counting   =     52146.28942375   -52660.49674391
  entropy T*S    EENTRO =         0.00000000
  eigenvalues    EBANDS =     -3721.83035471
  atomic energy  EATOM  =     14592.26033195
  Solvation  Ediel_sol  =         0.00000000
  ---------------------------------------------------
  free energy    TOTEN  =      -368.04805316 eV

  energy without entropy =     -368.04805316  energy(sigma->0) =     -368.04805316


--------------------------------------------------------------------------------------------------------




--------------------------------------- Iteration      1(  13)  ---------------------------------------


    POTLOK:  cpu time    0.0528: real time    0.0546
    SETDIJ:  cpu time    0.0097: real time    0.0098
     EDDAV:  cpu time    5.5312: real time    5.5777
 BZINTS: Fermi energy: -0.044011;270.000000 electrons
         Band energy:***********;  BLOECHL correction:  0.000000
       DOS:  cpu time    0.0035: real time    0.0035
    CHARGE:  cpu time    0.0801: real time    0.0811
    MIXING:  cpu time    0.0022: real time    0.0022
    --------------------------------------------
      LOOP:  cpu time    5.6795: real time    5.7288

 eigenvalue-minimisations  :  4208
 total energy-change (2. order) : 0.6884015E-02  (-0.8622707E-02)
 number of electron     269.9999959 magnetization       0.0000000
 augmentation part       21.1583611 magnetization       0.0000067

 Broyden mixing:
  rms(total) = 0.40554E-01    rms(broyden)= 0.40511E-01
  rms(prec ) = 0.46068E-01
  weight for this iteration     100.00

 eigenvalues of (default mixing * dielectric matrix)
  average eigenvalue GAMMA=   1.5921
  3.8710  2.7055  1.8407  1.0366  0.9473  0.9473  0.6943  0.6943

 Free energy of the ion-electron system (eV)
  ---------------------------------------------------
  alpha Z        PSCENC =       226.82526955
  Ewald energy   TEWEN  =     31841.08671366
  -Hartree energ DENC   =    -43931.66464336
  -exchange      EXHF   =         0.00000000
  -V(xc)+E(xc)   XCENC  =      1147.13998266
  PAW double counting   =     52307.42903031   -52821.55263106
  entropy T*S    EENTRO =         0.00000000
  eigenvalues    EBANDS =     -3729.56522284
  atomic energy  EATOM  =     14592.26033195
  Solvation  Ediel_sol  =         0.00000000
  ---------------------------------------------------
  free energy    TOTEN  =      -368.04116914 eV

  energy without entropy =     -368.04116914  energy(sigma->0) =     -368.04116914


--------------------------------------------------------------------------------------------------------




--------------------------------------- Iteration      1(  14)  ---------------------------------------


    POTLOK:  cpu time    0.0526: real time    0.0546
    SETDIJ:  cpu time    0.0478: real time    0.0483
     EDDAV:  cpu time    5.7973: real time    5.8268
 BZINTS: Fermi energy: -0.044011;270.000000 electrons
         Band energy:***********;  BLOECHL correction:  0.000000
       DOS:  cpu time    0.0034: real time    0.0034
    CHARGE:  cpu time    0.1085: real time    0.1090
    MIXING:  cpu time    0.0025: real time    0.0025
    --------------------------------------------
      LOOP:  cpu time    6.0122: real time    6.0445

 eigenvalue-minimisations  :  4240
 total energy-change (2. order) : 0.2819523E-03  (-0.2108134E-02)
 number of electron     269.9999959 magnetization       0.0000000
 augmentation part       21.1582645 magnetization       0.0000008

 Broyden mixing:
  rms(total) = 0.29992E-01    rms(broyden)= 0.29985E-01
  rms(prec ) = 0.32117E-01
  weight for this iteration     100.00

 eigenvalues of (default mixing * dielectric matrix)
  average eigenvalue GAMMA=   1.5827
  3.8399  2.7625  1.7635  1.3918  1.0648  1.0648  0.9594  0.6988  0.6988

 Free energy of the ion-electron system (eV)
  ---------------------------------------------------
  alpha Z        PSCENC =       226.82526955
  Ewald energy   TEWEN  =     31841.08671366
  -Hartree energ DENC   =    -43932.00257320
  -exchange      EXHF   =         0.00000000
  -V(xc)+E(xc)   XCENC  =      1147.12260420
  PAW double counting   =     52358.22938223   -52872.31320142
  entropy T*S    EENTRO =         0.00000000
  eigenvalues    EBANDS =     -3729.24941415
  atomic energy  EATOM  =     14592.26033195
  Solvation  Ediel_sol  =         0.00000000
  ---------------------------------------------------
  free energy    TOTEN  =      -368.04088719 eV

  energy without entropy =     -368.04088719  energy(sigma->0) =     -368.04088719


--------------------------------------------------------------------------------------------------------




--------------------------------------- Iteration      1(  15)  ---------------------------------------


    POTLOK:  cpu time    0.0531: real time    0.0551
    SETDIJ:  cpu time    0.0096: real time    0.0096
     EDDAV:  cpu time    6.3052: real time    6.3378
 BZINTS: Fermi energy: -0.039010;270.000000 electrons
         Band energy:***********;  BLOECHL correction:  0.000000
       DOS:  cpu time    0.0037: real time    0.0037
    CHARGE:  cpu time    0.0807: real time    0.0809
    MIXING:  cpu time    0.0025: real time    0.0025
    --------------------------------------------
      LOOP:  cpu time    6.4547: real time    6.4896

 eigenvalue-minimisations  :  5040
 total energy-change (2. order) : 0.2749007E-03  (-0.4360878E-03)
 number of electron     269.9999959 magnetization       0.0000000
 augmentation part       21.1591922 magnetization      -0.0000022

 Broyden mixing:
  rms(total) = 0.16773E-01    rms(broyden)= 0.16770E-01
  rms(prec ) = 0.17598E-01
  weight for this iteration     100.00

 eigenvalues of (default mixing * dielectric matrix)
  average eigenvalue GAMMA=   1.6670
  3.6284  3.1858  2.6917  1.6925  1.3061  1.0032  0.8741  0.8741  0.7069  0.7069

 Free energy of the ion-electron system (eV)
  ---------------------------------------------------
  alpha Z        PSCENC =       226.82526955
  Ewald energy   TEWEN  =     31841.08671366
  -Hartree energ DENC   =    -43933.10415384
  -exchange      EXHF   =         0.00000000
  -V(xc)+E(xc)   XCENC  =      1147.13604761
  PAW double counting   =     52365.00406101   -52879.15165887
  entropy T*S    EENTRO =         0.00000000
  eigenvalues    EBANDS =     -3728.09722336
  atomic energy  EATOM  =     14592.26033195
  Solvation  Ediel_sol  =         0.00000000
  ---------------------------------------------------
  free energy    TOTEN  =      -368.04061229 eV

  energy without entropy =     -368.04061229  energy(sigma->0) =     -368.04061229


--------------------------------------------------------------------------------------------------------




--------------------------------------- Iteration      1(  16)  ---------------------------------------


    POTLOK:  cpu time    0.1145: real time    0.1173
    SETDIJ:  cpu time    0.0095: real time    0.0098
     EDDAV:  cpu time    5.1884: real time    5.2258
 BZINTS: Fermi energy: -0.035259;270.000000 electrons
         Band energy:***********;  BLOECHL correction:  0.000000
       DOS:  cpu time    0.0038: real time    0.0038
    --------------------------------------------
      LOOP:  cpu time    5.3162: real time    5.3567

 eigenvalue-minimisations  :  3872
 total energy-change (2. order) :-0.1062274E-04  (-0.9221980E-04)
 number of electron     269.9999959 magnetization       0.0000000
 augmentation part       21.1591922 magnetization      -0.0000022

 Free energy of the ion-electron system (eV)
  ---------------------------------------------------
  alpha Z        PSCENC =       226.82526955
  Ewald energy   TEWEN  =     31841.08671366
  -Hartree energ DENC   =    -43934.62489714
  -exchange      EXHF   =         0.00000000
  -V(xc)+E(xc)   XCENC  =      1147.16990292
  PAW double counting   =     52364.47267606   -52878.62263966
  entropy T*S    EENTRO =         0.00000000
  eigenvalues    EBANDS =     -3726.60798025
  atomic energy  EATOM  =     14592.26033195
  Solvation  Ediel_sol  =         0.00000000
  ---------------------------------------------------
  free energy    TOTEN  =      -368.04062291 eV

  energy without entropy =     -368.04062291  energy(sigma->0) =     -368.04062291


--------------------------------------------------------------------------------------------------------




 average (electrostatic) potential at core
  the test charge radii are     0.6991  0.7089  0.9911
  (the norm of the test charge is              1.0000)
       1 -58.8653       2 -59.3255       3 -59.3058       4 -59.0469       5 -59.0111
       6 -59.0836       7 -59.0397       8 -58.8208       9 -58.7357      10 -59.9699
      11 -59.2431      12 -59.9548      13 -58.8611      14 -58.8916      15 -58.6000
      16 -59.1270      17 -59.0570      18 -58.9976      19 -59.1728      20 -58.8227
      21 -58.8234      22 -59.1709      23 -59.0485      24 -59.1886      25 -73.2148
      26 -70.6300      27 -70.6279      28 -70.8745      29 -70.9641      30 -70.7804
      31 -70.6732      32 -74.2127      33 -72.6619      34 -71.2512      35 -72.6550
      36 -70.8702      37 -70.8718      38 -71.3334      39 -72.5766      40 -74.3672
      41 -72.9174      42 -70.8877      43 -70.7470      44 -71.0265      45 -71.1219
      46 -70.7035      47 -70.6855      48 -74.0798      49 -72.8914      50 -71.0760
      51 -70.9844      52 -70.6176      53 -70.5525      54 -70.9691      55 -70.9708
      56 -74.4368      57 -79.4559
 
 
 
 E-fermi :  -0.0353     XC(G=0):  -3.8090     alpha+bet : -3.5386


 spin component 1

 k-point     1 :       0.0000    0.0000    0.0000
  band No.  band energies     occupation 
      1     -29.5844      1.00000
      2     -29.4465      1.00000
      3     -29.1540      1.00000
      4     -29.0601      1.00000
      5     -27.7232      1.00000
      6     -27.5351      1.00000
      7     -27.4490      1.00000
      8     -26.5713      1.00000
      9     -26.3378      1.00000
     10     -26.2590      1.00000
     11     -26.1980      1.00000
     12     -26.1825      1.00000
     13     -26.0080      1.00000
     14     -25.1272      1.00000
     15     -24.9900      1.00000
     16     -24.7823      1.00000
     17     -24.7731      1.00000
     18     -24.6488      1.00000
     19     -24.6455      1.00000
     20     -24.6023      1.00000
     21     -24.5701      1.00000
     22     -23.4092      1.00000
     23     -23.3676      1.00000
     24     -22.8199      1.00000
     25     -22.8155      1.00000
     26     -22.6553      1.00000
     27     -22.5956      1.00000
     28     -22.5165      1.00000
     29     -22.4728      1.00000
     30     -22.4536      1.00000
     31     -22.3549      1.00000
     32     -22.3304      1.00000
     33     -21.5952      1.00000
     34     -21.4651      1.00000
     35     -21.4193      1.00000
     36     -21.2863      1.00000
     37     -20.6638      1.00000
     38     -18.7100      1.00000
     39     -18.6684      1.00000
     40     -18.4750      1.00000
     41     -18.2478      1.00000
     42     -18.0950      1.00000
     43     -17.9761      1.00000
     44     -17.5959      1.00000
     45     -17.4108      1.00000
     46     -16.3889      1.00000
     47     -16.2649      1.00000
     48     -16.1607      1.00000
     49     -15.9851      1.00000
     50     -15.8646      1.00000
     51     -15.6887      1.00000
     52     -15.4410      1.00000
     53     -15.3414      1.00000
     54     -15.1329      1.00000
     55     -14.9771      1.00000
     56     -14.9139      1.00000
     57     -14.7066      1.00000
     58     -14.5173      1.00000
     59     -14.4016      1.00000
     60     -14.2311      1.00000
     61     -14.1040      1.00000
     62     -13.9371      1.00000
     63     -13.9134      1.00000
     64     -13.7408      1.00000
     65     -13.5606      1.00000
     66     -13.4206      1.00000
     67     -13.0491      1.00000
     68     -12.7870      1.00000
     69     -12.4691      1.00000
     70     -12.4527      1.00000
     71     -12.2304      1.00000
     72     -12.1178      1.00000
     73     -11.9293      1.00000
     74     -11.8169      1.00000
     75     -11.6177      1.00000
     76     -11.4421      1.00000
     77     -11.2341      1.00000
     78     -11.1205      1.00000
     79     -11.0572      1.00000
     80     -10.8953      1.00000
     81     -10.5740      1.00000
     82     -10.4841      1.00000
     83     -10.2435      1.00000
     84     -10.2035      1.00000
     85     -10.1130      1.00000
     86      -9.9633      1.00000
     87      -9.8074      1.00000
     88      -9.4058      1.00000
     89      -9.2445      1.00000
     90      -8.9974      1.00000
     91      -8.9536      1.00000
     92      -8.4010      1.00000
     93      -8.2398      1.00000
     94      -8.1176      1.00000
     95      -7.6647      1.00000
     96      -7.5009      1.00000
     97      -7.3563      1.00000
     98      -7.3123      1.00000
     99      -7.1935      1.00000
    100      -7.1289      1.00000
    101      -7.0653      1.00000
    102      -7.0547      1.00000
    103      -6.8409      1.00000
    104      -6.7600      1.00000
    105      -6.5290      1.00000
    106      -6.4950      1.00000
    107      -6.1121      1.00000
    108      -5.8543      1.00000
    109      -5.5315      1.00000
    110      -5.2949      1.00000
    111      -5.0590      1.00000
    112      -4.9407      1.00000
    113      -4.7822      1.00000
    114      -4.7230      1.00000
    115      -4.6799      1.00000
    116      -4.5723      1.00000
    117      -4.4340      1.00000
    118      -4.3928      1.00000
    119      -4.3219      1.00000
    120      -4.1862      1.00000
    121      -4.0151      1.00000
    122      -3.8200      1.00000
    123      -3.7480      1.00000
    124      -3.4923      1.00000
    125      -3.2810      1.00000
    126      -3.0773      1.00000
    127      -2.8992      1.00000
    128      -2.8782      1.00000
    129      -2.7466      1.00000
    130      -2.4772      1.00000
    131      -2.3525      1.00000
    132      -2.0089      1.00000
    133      -1.9144      1.00000
    134      -1.8919      1.00000
    135      -0.2317      1.00000
    136       0.2958      0.00000
    137       0.4708      0.00000
    138       0.8162      0.00000
    139       1.0898      0.00000
    140       1.1516      0.00000
    141       1.3783      0.00000
    142       1.6927      0.00000
    143       1.7502      0.00000
    144       1.9520      0.00000
    145       2.3220      0.00000
    146       2.3972      0.00000
    147       2.4213      0.00000
    148       2.5548      0.00000
    149       2.6830      0.00000
    150       2.7478      0.00000
    151       2.9655      0.00000
    152       3.1253      0.00000
    153       3.1839      0.00000
    154       3.2556      0.00000
    155       3.3589      0.00000
    156       3.4777      0.00000
    157       3.7038      0.00000
    158       3.7914      0.00000
    159       3.8632      0.00000
    160       4.0850      0.00000
    161       4.1403      0.00000
    162       4.1608      0.00000
    163       4.4654      0.00000
    164       4.4987      0.00000
    165       4.5418      0.00000
    166       4.6764      0.00000
    167       4.7405      0.00000
    168       4.7940      0.00000

 k-point     2 :       0.3333   -0.0000    0.0000
  band No.  band energies     occupation 
      1     -29.5588      1.00000
      2     -29.4720      1.00000
      3     -29.1510      1.00000
      4     -29.0803      1.00000
      5     -27.6633      1.00000
      6     -27.5115      1.00000
      7     -27.3350      1.00000
      8     -26.9205      1.00000
      9     -26.4243      1.00000
     10     -26.3645      1.00000
     11     -26.2169      1.00000
     12     -26.1480      1.00000
     13     -25.5199      1.00000
     14     -25.1715      1.00000
     15     -24.9326      1.00000
     16     -24.7956      1.00000
     17     -24.7767      1.00000
     18     -24.7501      1.00000
     19     -24.6455      1.00000
     20     -24.5335      1.00000
     21     -24.5206      1.00000
     22     -23.5107      1.00000
     23     -23.2451      1.00000
     24     -23.0876      1.00000
     25     -22.9415      1.00000
     26     -22.9117      1.00000
     27     -22.8061      1.00000
     28     -22.5678      1.00000
     29     -22.5055      1.00000
     30     -22.2952      1.00000
     31     -22.2686      1.00000
     32     -21.9032      1.00000
     33     -21.5748      1.00000
     34     -21.3873      1.00000
     35     -21.2904      1.00000
     36     -21.0883      1.00000
     37     -20.7946      1.00000
     38     -18.8455      1.00000
     39     -18.8020      1.00000
     40     -18.4907      1.00000
     41     -18.2534      1.00000
     42     -18.0612      1.00000
     43     -17.9406      1.00000
     44     -17.8467      1.00000
     45     -17.6825      1.00000
     46     -16.1214      1.00000
     47     -16.0912      1.00000
     48     -15.9818      1.00000
     49     -15.8465      1.00000
     50     -15.7109      1.00000
     51     -15.5135      1.00000
     52     -15.4701      1.00000
     53     -15.1765      1.00000
     54     -15.0978      1.00000
     55     -15.0180      1.00000
     56     -14.9361      1.00000
     57     -14.8593      1.00000
     58     -14.5744      1.00000
     59     -14.4816      1.00000
     60     -14.3148      1.00000
     61     -14.1425      1.00000
     62     -14.0065      1.00000
     63     -13.8875      1.00000
     64     -13.6998      1.00000
     65     -13.5917      1.00000
     66     -13.4145      1.00000
     67     -13.1176      1.00000
     68     -13.0983      1.00000
     69     -13.0107      1.00000
     70     -12.4893      1.00000
     71     -12.2652      1.00000
     72     -12.0745      1.00000
     73     -11.8387      1.00000
     74     -11.7317      1.00000
     75     -11.5044      1.00000
     76     -11.2867      1.00000
     77     -11.1527      1.00000
     78     -10.9486      1.00000
     79     -10.7909      1.00000
     80     -10.6987      1.00000
     81     -10.6048      1.00000
     82     -10.4874      1.00000
     83     -10.3337      1.00000
     84     -10.1930      1.00000
     85     -10.0721      1.00000
     86      -9.9668      1.00000
     87      -9.8432      1.00000
     88      -9.4565      1.00000
     89      -9.3711      1.00000
     90      -9.1985      1.00000
     91      -8.7829      1.00000
     92      -8.3942      1.00000
     93      -8.2867      1.00000
     94      -8.1919      1.00000
     95      -7.6724      1.00000
     96      -7.4820      1.00000
     97      -7.3989      1.00000
     98      -7.2999      1.00000
     99      -7.2146      1.00000
    100      -7.1101      1.00000
    101      -7.0330      1.00000
    102      -6.9874      1.00000
    103      -6.8766      1.00000
    104      -6.8070      1.00000
    105      -6.7131      1.00000
    106      -6.3929      1.00000
    107      -6.1202      1.00000
    108      -5.7610      1.00000
    109      -5.4646      1.00000
    110      -5.2528      1.00000
    111      -5.1131      1.00000
    112      -4.9296      1.00000
    113      -4.8651      1.00000
    114      -4.8162      1.00000
    115      -4.6567      1.00000
    116      -4.5246      1.00000
    117      -4.4495      1.00000
    118      -4.3898      1.00000
    119      -4.2697      1.00000
    120      -4.1738      1.00000
    121      -4.0188      1.00000
    122      -3.9802      1.00000
    123      -3.5206      1.00000
    124      -3.4777      1.00000
    125      -3.2817      1.00000
    126      -3.1539      1.00000
    127      -2.9492      1.00000
    128      -2.7918      1.00000
    129      -2.6472      1.00000
    130      -2.4911      1.00000
    131      -2.3932      1.00000
    132      -2.1645      1.00000
    133      -1.9606      1.00000
    134      -1.8731      1.00000
    135      -0.0802      1.00000
    136       0.2842      0.00000
    137       0.6652      0.00000
    138       0.8391      0.00000
    139       1.1600      0.00000
    140       1.3111      0.00000
    141       1.3910      0.00000
    142       1.5947      0.00000
    143       1.7560      0.00000
    144       1.8047      0.00000
    145       2.0650      0.00000
    146       2.2270      0.00000
    147       2.3204      0.00000
    148       2.5014      0.00000
    149       2.6426      0.00000
    150       2.8449      0.00000
    151       2.9172      0.00000
    152       2.9648      0.00000
    153       3.2066      0.00000
    154       3.3143      0.00000
    155       3.4807      0.00000
    156       3.5949      0.00000
    157       3.6434      0.00000
    158       3.7442      0.00000
    159       3.8517      0.00000
    160       4.0953      0.00000
    161       4.2793      0.00000
    162       4.3027      0.00000
    163       4.4052      0.00000
    164       4.5178      0.00000
    165       4.5469      0.00000
    166       4.6743      0.00000
    167       4.7452      0.00000
    168       4.8019      0.00000

 k-point     3 :       0.0000    0.3333    0.0000
  band No.  band energies     occupation 
      1     -29.5728      1.00000
      2     -29.4460      1.00000
      3     -29.1818      1.00000
      4     -29.0614      1.00000
      5     -27.7013      1.00000
      6     -27.4426      1.00000
      7     -27.3657      1.00000
      8     -26.8436      1.00000
      9     -26.5636      1.00000
     10     -26.3614      1.00000
     11     -26.2949      1.00000
     12     -26.0131      1.00000
     13     -25.4937      1.00000
     14     -25.0998      1.00000
     15     -24.9897      1.00000
     16     -24.8688      1.00000
     17     -24.7820      1.00000
     18     -24.7242      1.00000
     19     -24.6464      1.00000
     20     -24.5722      1.00000
     21     -24.4906      1.00000
     22     -23.3977      1.00000
     23     -23.3277      1.00000
     24     -23.0473      1.00000
     25     -22.9769      1.00000
     26     -22.9242      1.00000
     27     -22.7852      1.00000
     28     -22.6917      1.00000
     29     -22.3879      1.00000
     30     -22.3364      1.00000
     31     -22.1485      1.00000
     32     -22.0101      1.00000
     33     -21.5565      1.00000
     34     -21.4252      1.00000
     35     -21.2056      1.00000
     36     -21.1649      1.00000
     37     -20.7775      1.00000
     38     -18.8616      1.00000
     39     -18.7884      1.00000
     40     -18.4886      1.00000
     41     -18.1705      1.00000
     42     -18.0609      1.00000
     43     -17.9410      1.00000
     44     -17.8992      1.00000
     45     -17.6686      1.00000
     46     -16.3753      1.00000
     47     -15.9647      1.00000
     48     -15.9131      1.00000
     49     -15.8481      1.00000
     50     -15.6732      1.00000
     51     -15.6353      1.00000
[...]
   -.130E+02 0.398E+02 0.161E+03   0.160E+02 -.401E+02 -.161E+03   0.324E+01 0.100E+01 0.678E+00   -.338E-01 -.136E-01 -.112E-01
   0.877E+02 -.720E+02 -.109E+03   -.914E+02 0.732E+02 0.111E+03   0.379E+01 -.201E+01 -.429E+00   0.319E-01 -.192E-01 0.125E-03
   -.183E+02 0.689E+02 0.253E+03   0.182E+02 -.713E+02 -.257E+03   -.361E+00 0.414E+01 0.250E+01   0.122E-01 0.449E-02 0.803E-03
   -.819E+02 -.237E+02 0.122E+03   0.854E+02 0.250E+02 -.124E+03   -.373E+01 -.191E+01 0.154E+01   -.726E-02 -.118E-01 0.316E-02
   0.521E+02 -.319E+02 -.410E+02   -.517E+02 0.337E+02 0.429E+02   0.807E+00 0.265E+01 0.876E+00   -.883E-02 0.437E-02 -.558E-02
   0.291E+02 -.229E+02 -.620E+02   -.304E+02 0.211E+02 0.621E+02   -.303E+01 -.213E+01 0.574E+00   0.365E-02 0.137E-02 0.871E-02
   -.655E+01 -.420E+01 -.752E+02   0.772E+01 0.206E+01 0.759E+02   0.345E+01 -.168E+01 0.364E+00   0.132E-01 -.103E-01 -.287E-02
   -.318E+02 0.217E+02 -.913E+02   0.293E+02 -.207E+02 0.932E+02   0.122E+01 -.205E+01 -.142E+01   0.177E-01 0.222E-01 0.122E-01
   -.429E+01 0.273E+02 0.593E+02   0.435E+01 -.319E+02 -.599E+02   0.984E-01 0.403E+01 -.636E+00   0.510E-02 0.279E-01 0.219E-01
   0.417E+02 0.194E+02 -.813E+02   -.392E+02 -.185E+02 0.840E+02   -.132E+01 -.254E+01 -.937E+00   -.253E-01 -.801E-03 -.967E-02
   -.471E+01 -.177E+02 -.204E+02   0.519E+01 0.183E+02 0.189E+02   -.232E+00 0.388E+01 -.800E+00   0.125E-01 -.154E-01 -.249E-02
   0.452E+02 0.350E+02 0.245E+03   -.468E+02 -.358E+02 -.245E+03   -.338E+01 -.139E+01 -.111E+01   0.235E-01 -.774E-03 0.606E-02
   -.128E+02 0.257E+02 0.110E+03   0.144E+02 -.280E+02 -.110E+03   0.353E+01 -.132E+01 -.506E+00   0.180E-01 -.373E-02 0.609E-03
   0.848E+02 -.224E+02 0.835E+02   -.885E+02 0.235E+02 -.848E+02   0.377E+01 -.201E+01 0.813E+00   -.941E-03 -.130E-01 0.657E-02
   0.451E+01 0.973E+02 0.272E+03   -.307E+01 -.999E+02 -.275E+03   -.204E+00 0.392E+01 0.229E+01   -.140E-01 0.550E-02 0.624E-02
   -.835E+02 -.758E+02 -.125E+03   0.875E+02 0.773E+02 0.126E+03   -.371E+01 -.192E+01 -.629E+00   -.212E-01 -.180E-01 -.241E-02
   -.444E+02 -.303E+02 -.178E+03   0.428E+02 0.329E+02 0.180E+03   -.419E+00 0.266E+01 0.880E+00   0.458E-02 0.259E-01 0.427E-02
   0.104E+02 -.602E+01 -.137E+03   -.121E+02 0.393E+01 0.139E+03   -.354E+01 -.159E+01 0.596E+00   -.198E-01 -.390E-02 -.163E-04
   -.321E+02 -.175E+02 -.112E+03   0.340E+02 0.156E+02 0.113E+03   0.295E+01 -.226E+01 0.120E+01   -.687E-03 0.753E-02 0.961E-02
   0.944E+02 -.887E+02 0.176E+03   -.961E+02 0.931E+02 -.176E+03   0.369E+01 -.284E+01 0.421E+00   0.107E-01 -.132E-01 0.504E-02
   -.136E+02 0.560E+02 -.239E+03   0.137E+02 -.601E+02 0.242E+03   -.833E-01 0.431E+01 -.189E+01   -.516E-02 0.574E-02 -.113E-01
   -.109E+03 -.326E+02 -.764E+02   0.112E+03 0.344E+02 0.784E+02   -.413E+01 -.145E+01 -.151E+01   -.543E-02 0.989E-02 0.319E-02
   -.180E+02 0.477E+02 0.214E+03   0.188E+02 -.483E+02 -.219E+03   -.329E+00 0.159E+01 0.330E+01   -.439E-01 -.175E-01 -.622E-02
   -.250E+03 -.413E+02 0.285E+03   0.296E+03 0.658E+02 -.305E+03   -.322E+02 -.166E+02 0.132E+02   -.993E-02 -.235E-01 0.150E-02
   0.202E+03 -.197E+03 -.302E+03   -.246E+03 0.221E+03 0.321E+03   0.314E+02 -.169E+02 -.106E+02   0.357E-01 -.225E-01 -.211E-02
   0.687E+01 0.221E+03 0.503E+03   -.315E+01 -.263E+03 -.538E+03   -.170E+01 0.294E+02 0.224E+02   0.221E-01 -.488E-02 -.375E-02
   -.456E+02 0.180E+03 0.531E+03   0.434E+02 -.218E+03 -.570E+03   0.162E+01 0.282E+02 0.257E+02   0.133E-01 -.157E-01 -.212E-01
   0.250E+03 -.126E+03 -.143E+03   -.293E+03 0.156E+03 0.145E+03   0.304E+02 -.194E+02 -.153E-01   0.402E-01 -.356E-01 0.728E-03
   -.188E+03 -.103E+03 0.321E+03   0.232E+03 0.118E+03 -.352E+03   -.309E+02 -.105E+02 0.198E+02   0.802E-03 -.228E-01 0.110E-01
   -.565E+01 -.259E+01 -.307E+02   0.613E+01 0.223E+01 0.325E+02   -.207E+00 0.185E+00 -.106E+01   -.555E-02 -.862E-02 -.221E-02
   0.204E+02 -.284E+02 -.123E+03   -.204E+02 0.296E+02 0.130E+03   0.274E+00 -.782E+00 -.408E+01   0.665E-02 -.612E-02 0.148E-02
   -.288E+01 -.770E+02 -.384E+03   0.340E+02 0.976E+02 0.422E+03   -.228E+02 -.143E+02 -.241E+02   -.114E-01 0.126E-01 -.541E-02
   0.102E+02 0.856E+02 -.965E+02   -.396E+02 -.809E+02 0.112E+03   0.192E+02 -.409E+01 -.106E+02   -.907E-02 0.376E-01 0.326E-01
   -.205E+02 0.147E+03 0.156E+03   0.248E+02 -.196E+03 -.173E+03   -.222E+01 0.343E+02 0.974E+01   -.107E-02 0.302E-01 0.311E-01
   -.969E+00 0.143E+03 0.175E+03   -.214E+01 -.192E+03 -.191E+03   0.145E+01 0.342E+02 0.981E+01   0.626E-02 0.214E-01 0.291E-01
   0.531E+02 -.753E+02 -.422E+03   -.909E+02 0.966E+02 0.452E+03   0.275E+02 -.147E+02 -.181E+02   0.130E-02 0.309E-01 0.156E-01
   -.202E+01 0.977E+02 -.136E+03   0.288E+02 -.940E+02 0.158E+03   -.177E+02 -.350E+01 -.143E+02   -.268E-01 0.833E-02 0.473E-02
   0.617E+02 0.224E+02 0.958E+02   -.689E+02 -.273E+02 -.961E+02   0.388E+01 0.279E+01 -.288E+00   -.278E-01 -.113E-01 -.122E-01
   0.180E+02 0.502E+02 0.190E+03   -.212E+02 -.525E+02 -.197E+03   0.207E+01 0.165E+01 0.402E+01   0.388E-01 -.105E-01 0.521E-03
   -.246E+03 -.133E+03 -.156E+03   0.290E+03 0.162E+03 0.159E+03   -.305E+02 -.183E+02 -.106E+01   -.211E-01 -.243E-01 -.487E-02
   0.193E+03 -.880E+02 0.249E+03   -.238E+03 0.102E+03 -.276E+03   0.319E+02 -.102E+02 0.167E+02   -.130E-01 -.218E-01 0.188E-01
   0.122E+02 0.208E+03 0.549E+03   -.652E+01 -.248E+03 -.586E+03   -.416E+01 0.293E+02 0.231E+02   -.306E-01 0.919E-02 0.106E-01
   0.296E+01 0.303E+03 0.457E+03   -.579E+01 -.354E+03 -.476E+03   0.598E+00 0.342E+02 0.109E+02   -.217E-02 0.250E-01 0.169E-01
   0.252E+03 -.427E+02 0.173E+03   -.299E+03 0.692E+02 -.183E+03   0.326E+02 -.177E+02 0.664E+01   -.713E-02 -.504E-02 0.273E-02
   -.184E+03 -.202E+03 -.371E+03   0.226E+03 0.227E+03 0.394E+03   -.300E+02 -.166E+02 -.136E+02   -.280E-01 -.238E-01 -.824E-02
   0.999E+00 -.415E+02 -.168E+02   -.879E+00 0.435E+02 0.132E+02   -.166E+00 -.115E+01 0.206E+01   0.840E-02 0.212E-02 0.138E-01
   -.198E+02 -.322E+02 -.241E+03   0.191E+02 0.353E+02 0.250E+03   0.178E+00 -.212E+01 -.549E+01   -.106E-01 0.179E-01 0.414E-02
   -.288E+03 -.839E+02 -.118E+03   0.334E+03 0.110E+03 0.120E+03   -.313E+02 -.184E+02 -.151E+01   -.131E-01 0.176E-01 0.634E-02
   0.227E+03 -.191E+03 0.387E+03   -.274E+03 0.214E+03 -.401E+03   0.310E+02 -.170E+02 0.652E+01   0.368E-01 -.215E-01 0.121E-01
   0.492E-01 0.191E+03 -.489E+03   0.653E+01 -.233E+03 0.524E+03   -.404E+01 0.290E+02 -.229E+02   0.164E-01 0.921E-03 -.161E-01
   -.449E+02 0.148E+03 -.549E+03   0.430E+02 -.185E+03 0.590E+03   0.990E+00 0.277E+02 -.265E+02   -.279E-01 0.739E-02 -.157E-01
   0.241E+03 -.165E+03 0.300E+03   -.278E+03 0.197E+03 -.320E+03   0.248E+02 -.225E+02 0.120E+02   0.158E-01 -.124E-01 0.890E-02
   -.215E+03 -.951E+02 -.235E+03   0.263E+03 0.108E+03 0.258E+03   -.323E+02 -.102E+02 -.142E+02   0.101E-01 -.134E-02 0.132E-02
   -.583E+02 0.260E+02 0.558E+02   0.633E+02 -.302E+02 -.602E+02   -.256E+01 0.215E+01 0.207E+01   0.266E-01 0.225E-01 0.104E-01
   0.591E+02 -.145E+03 -.127E+04   -.611E+02 0.170E+03 0.130E+04   0.153E+01 -.198E+02 -.278E+02   -.171E-01 0.932E-01 0.318E-01
 -----------------------------------------------------------------------------------------------
   0.314E+01 -.460E+01 0.660E+01   0.497E-12 -.568E-13 0.000E+00   -.311E+01 0.460E+01 -.680E+01   -.294E-01 0.149E-01 0.200E+00
 
 
 POSITION                                       TOTAL-FORCE (eV/Angst)
 -----------------------------------------------------------------------------------
     -0.01286      2.13021      5.50139        -0.019127      5.605963     -1.909439
      1.04972      3.96254      5.58774        -6.442735      0.638329     -0.020685
     -1.09641      3.92338      5.51201         6.275553      0.688770      0.688962
      4.94559      0.56870      6.52345         0.130459     -0.795404      1.141195
      2.99973      3.96147      5.32158        -0.495473      1.671065     -0.783091
      1.01987      0.51207      5.78799        -0.238604     -0.704381     -0.355945
     -3.09033      7.14449      6.24233         1.209282      4.426981      2.753902
     -1.91310      8.90550      6.46550        -4.275168     -3.943571      0.653838
     -4.02725      8.98760      6.42582         4.636435     -3.834608      1.135228
      2.06903      5.44096      6.47456        -1.246822     -1.109355      0.465472
      0.03389      8.83017      6.30771         0.164884     -0.587064     -1.223538
     -2.19230      5.43816      6.20066         1.091324     -1.651495      1.804667
      6.00845      2.14110      6.09789         0.270883      4.444149     -2.364840
      6.96934      3.79139      5.15849        -4.975814     -2.150781     -1.154702
      4.91948      3.86593      5.61745         5.172644     -3.637467     -0.874802
     10.87396      0.37189      5.94303         0.050576     -1.000349     -0.445989
      8.89870      3.73334      5.08105         1.220384      1.264981     -1.302473
      7.02408      0.55745      6.60521         0.243267     -0.390557      0.985054
      3.06725      7.05241      6.85311        -2.079609      5.329138      2.673716
      4.06225      8.89509      6.74515        -5.301836     -3.690719      2.729982
      1.94297      8.87650      6.72512         4.859053     -4.148267      1.897479
      7.82066      5.50699      5.42457         2.039564      1.553890     -0.332293
      5.99435      8.91281      6.89717         0.010729      0.224435      1.478838
      4.09518      5.47673      6.31920        -1.489270      0.297424      0.533188
     -0.01234      3.34659      5.48287         0.497897      1.016251     -1.219353
      1.00308      1.59199      5.43028        13.376476      7.906072     -6.415932
      3.99261     -0.03699      6.73583       -13.145254      7.474231      8.132463
      3.99452      3.46113      5.06178         2.042768    -12.541426    -12.392157
      1.95658      3.57178      5.02781        -0.548487    -10.346363    -13.501852
      4.96798      1.69463      6.36166       -13.212635     10.858832      1.982717
     -3.99278      9.91334      5.76187        13.180644      3.939657    -11.072186
      0.01447      0.01839      6.22866         0.260827     -0.183046      0.709939
     -2.98573      8.32938      6.45335         0.306798      0.388735      2.399672
     -2.24567      6.46804      6.67946         8.258190      6.360268     13.328679
      1.04925      4.88530      6.34100       -10.101956      0.649683      4.830487
      1.04163      8.27339      6.31743         2.053558    -15.058171     -6.440977
     -0.97137      8.28663      6.18392        -1.651616    -15.032249     -6.465127
      2.08351      6.43596      7.02836       -10.254573      6.639114     11.596621
     -1.19156      4.84120      6.25800         9.128498      0.201163      7.473096
      8.81492      4.82612      5.62424        -3.259555     -2.115141     -0.593408
      5.97991      3.21117      5.53820        -1.148082     -0.629328     -2.712576
      7.03238      1.67902      6.38857        13.581017     10.429306      1.314757
      3.97745      9.78362      6.03525       -13.764533      3.516035    -10.272943
     -1.94150      3.49934      4.88655         1.528019    -10.923665    -13.530352
      7.92178      3.18453      4.89592        -2.233048    -16.231346     -7.369749
     10.86306      1.45662      5.61319       -13.880279      8.799091     -3.306771
      7.93188     -0.05697      6.95930        12.033400      7.607633      9.502864
      5.98728     -0.04375      6.42819        -0.038092      0.873784     -1.567543
      3.00212      8.26130      6.89117        -0.545346      1.000074      3.285655
      4.07886      6.58287      6.61079        14.545733      8.131764      0.309776
      6.89057      4.95951      5.10513       -15.365158      5.675420     -7.425415
     -4.88897      8.57671      7.07794         2.560497    -12.196698     12.116842
      4.99383      8.50607      7.30204        -0.847608     -9.873471     14.322727
     -3.98103      6.81113      5.60576       -11.598231     10.144249     -7.667005
      5.02278      4.83170      6.24129        15.419977      2.362988      8.240938
      3.03298      4.96405      6.02638         2.492362     -1.958946     -2.326333
     -0.11519      5.91609      7.19555        -0.482789      4.614394      6.558722
 -----------------------------------------------------------------------------------
    total drift:                               -0.002239      0.016142      0.001329


--------------------------------------------------------------------------------------------------------



  FREE ENERGIE OF THE ION-ELECTRON SYSTEM (eV)
  ---------------------------------------------------
  free  energy   TOTEN  =      -372.72087756 eV

  energy  without entropy=     -372.72087756  energy(sigma->0) =     -372.72087756
 


--------------------------------------------------------------------------------------------------------


    POTLOK:  cpu time    0.0781: real time    0.0783


--------------------------------------------------------------------------------------------------------


 stress matrix after NEB project (eV)
    760.74663    -13.69914     20.92516
    -13.69914    682.37565     38.03315
     20.92516     38.03315    152.94727
  FORCES: max atom, RMS    17.984306   11.394532
  FORCE total and by dimension   86.026832   16.231346
  Stress total and by dimension 1035.330343  760.746626
     LOOP+:  cpu time  104.3936: real time  105.1944
    4ORBIT:  cpu time    0.0000: real time    0.0000
 


 total charge     
 
# of ion       s       p       d       tot
------------------------------------------
    1        1.038   2.316   0.000   3.354
    2        1.018   2.290   0.000   3.308
    3        1.023   2.302   0.000   3.324
    4        1.051   2.336   0.000   3.388
    5        1.037   2.327   0.000   3.364
    6        1.058   2.349   0.000   3.407
    7        1.037   2.310   0.000   3.348
    8        1.034   2.303   0.000   3.337
    9        1.043   2.305   0.000   3.347
   10        1.062   2.383   0.000   3.445
   11        1.055   2.341   0.000   3.395
   12        1.070   2.396   0.000   3.466
   13        1.033   2.302   0.000   3.335
   14        1.029   2.302   0.000   3.331
   15        1.027   2.302   0.000   3.328
   16        1.060   2.356   0.000   3.416
   17        1.041   2.339   0.000   3.380
   18        1.047   2.333   0.000   3.380
   19        1.035   2.305   0.000   3.340
   20        1.038   2.299   0.000   3.337
   21        1.029   2.292   0.000   3.321
   22        1.047   2.336   0.000   3.383
   23        1.047   2.322   0.000   3.369
   24        1.055   2.357   0.000   3.412
   25        1.336   3.202   0.000   4.538
   26        1.369   3.088   0.000   4.457
   27        1.366   3.080   0.000   4.446
   28        1.364   3.046   0.000   4.410
   29        1.368   3.073   0.000   4.442
   30        1.363   3.075   0.000   4.438
   31        1.376   3.075   0.000   4.452
   32        1.363   3.245   0.000   4.608
   33        1.352   3.220   0.000   4.572
   34        1.364   3.093   0.000   4.458
   35        1.344   3.114   0.000   4.458
   36        1.360   3.071   0.000   4.431
   37        1.359   3.070   0.000   4.429
   38        1.360   3.082   0.000   4.442
   39        1.346   3.120   0.000   4.466
   40        1.364   3.262   0.000   4.626
   41        1.345   3.200   0.000   4.545
   42        1.359   3.062   0.000   4.421
   43        1.375   3.083   0.000   4.458
   44        1.368   3.072   0.000   4.440
   45        1.365   3.046   0.000   4.411
   46        1.370   3.094   0.000   4.464
   47        1.365   3.069   0.000   4.434
   48        1.359   3.249   0.000   4.608
   49        1.340   3.184   0.000   4.524
   50        1.372   3.084   0.000   4.455
   51        1.366   3.069   0.000   4.435
   52        1.360   3.057   0.000   4.417
   53        1.363   3.062   0.000   4.425
   54        1.359   3.067   0.000   4.426
   55        1.374   3.067   0.000   4.442
   56        1.362   3.253   0.000   4.614
   57        1.297   1.154  10.234  12.685
--------------------------------------------------
tot         69.868 156.590  10.234 236.692
 


 magnetization (x)
 
# of ion       s       p       d       tot
------------------------------------------
    1       -0.000  -0.000   0.000  -0.000
    2       -0.000   0.000   0.000   0.000
    3       -0.000  -0.000   0.000  -0.000
    4        0.000  -0.000   0.000   0.000
    5        0.000   0.000   0.000   0.000
    6        0.000   0.000   0.000   0.000
    7       -0.000  -0.000   0.000  -0.000
    8        0.000   0.000   0.000   0.000
    9        0.000   0.000   0.000   0.000
   10       -0.000  -0.000   0.000  -0.000
   11        0.000   0.000   0.000   0.000
   12       -0.000  -0.000   0.000  -0.000
   13       -0.000  -0.000   0.000  -0.000
   14       -0.000  -0.000   0.000  -0.000
   15        0.000   0.000   0.000   0.000
   16        0.000   0.000   0.000   0.000
   17        0.000  -0.000   0.000  -0.000
   18        0.000   0.000   0.000   0.000
   19        0.000   0.000   0.000   0.000
   20        0.000   0.000   0.000   0.000
   21        0.000   0.000   0.000   0.000
   22       -0.000   0.000   0.000   0.000
   23        0.000   0.000   0.000   0.000
   24       -0.000  -0.000   0.000  -0.000
   25       -0.000  -0.000   0.000  -0.000
   26        0.000  -0.000   0.000  -0.000
   27        0.000  -0.000   0.000  -0.000
   28       -0.000  -0.000   0.000  -0.000
   29        0.000  -0.000   0.000  -0.000
   30        0.000   0.000   0.000   0.000
   31       -0.000  -0.000   0.000  -0.000
   32       -0.000  -0.000   0.000  -0.000
   33        0.000  -0.000   0.000  -0.000
   34        0.000   0.000   0.000   0.000
   35       -0.000  -0.000   0.000  -0.000
   36        0.000   0.000   0.000   0.000
   37       -0.000   0.000   0.000   0.000
   38       -0.000   0.000   0.000   0.000
   39        0.000   0.000   0.000   0.000
   40       -0.000  -0.000   0.000  -0.000
   41        0.000  -0.000   0.000  -0.000
   42        0.000   0.000   0.000   0.000
   43        0.000  -0.000   0.000  -0.000
   44        0.000  -0.000   0.000  -0.000
   45        0.000   0.000   0.000   0.000
   46       -0.000   0.000   0.000   0.000
   47        0.000  -0.000   0.000  -0.000
   48        0.000  -0.000   0.000  -0.000
   49        0.000  -0.000   0.000  -0.000
   50        0.000  -0.000   0.000  -0.000
   51        0.000   0.000   0.000   0.000
   52        0.000   0.000   0.000   0.000
   53        0.000  -0.000   0.000  -0.000
   54        0.000   0.000   0.000   0.000
   55       -0.000   0.000   0.000   0.000
   56       -0.000  -0.000   0.000  -0.000
   57       -0.000   0.000  -0.000  -0.000
--------------------------------------------------
tot          0.000  -0.000  -0.000  -0.000
 
 BZINTS: Fermi energy: -0.035259;270.000000 electrons
         Band energy:***********;  BLOECHL correction:  0.000000

 total amount of memory used by VASP MPI-rank0    65682. kBytes
=======================================================================

   base      :      30000. kBytes
   nonl-proj :       8220. kBytes
   fftplans  :       2461. kBytes
   grid      :       6514. kBytes
   one-center:        155. kBytes
   wavefun   :      18332. kBytes
 
  
  
 General timing and accounting informations for this job:
 ========================================================
  
                  Total CPU time used (sec):      116.643
                            User time (sec):      112.778
                          System time (sec):        3.865
                         Elapsed time (sec):      125.615
  
                   Maximum memory used (kb):      437964.
                   Average memory used (kb):           0.
  
                          Minor page faults:       194320
                          Major page faults:            0
                 Voluntary context switches:         7427
