 vasp.5.4.4.18Apr17-6-g9f103f2a35 (build Jan 14 2022 15:04:31) complex          
  
 executed on             LinuxIFC date 2023.01.23  17:52:24
 running on   48 total cores
 distrk:  each k-point on   48 cores,    1 groups
 distr:  one band on NCORES_PER_BAND=  12 cores,    4 groups


--------------------------------------------------------------------------------------------------------


 INCAR:
 POTCAR:    PAW_PBE C 08Apr2002                   
 POTCAR:    PAW_PBE N 08Apr2002                   
 POTCAR:    PAW_PBE C 08Apr2002                   
 POTCAR:    PAW_PBE Cr_pv 02Aug2007               
 POTCAR:    PAW_PBE C 08Apr2002                   
   SHA256 =  253f7b50bb8d59471dbedb8285d89021f4a42ed1a2c5d38a03a736e69125dd95 C/
   COPYR  = (c) Copyright 08Apr2002 Georg Kresse                                
   COPYR  = This file is part of the software VASP. Any use, copying, and all ot
   COPYR  = If you do not have a valid VASP license, you may not use, copy or di
   VRHFIN =C: s2p2                                                              
   LEXCH  = PE                                                                  
   EATOM  =   147.1560 eV,   10.8157 Ry                                         
                                                                                
   TITEL  = PAW_PBE C 08Apr2002                                                 
   LULTRA =        F    use ultrasoft PP ?                                      
   IUNSCR =        1    unscreen: 0-lin 1-nonlin 2-no                           
   RPACOR =    1.200    partial core radius                                     
   POMASS =   12.011; ZVAL   =    4.000    mass and valenz                      
   RCORE  =    1.500    outmost cutoff radius                                   
   RWIGS  =    1.630; RWIGS  =    0.863    wigner-seitz radius (au A)           
   ENMAX  =  400.000; ENMIN  =  300.000 eV                                      
   ICORE  =        2    local potential                                         
   LCOR   =        T    correct aug charges                                     
   LPAW   =        T    paw PP                                                  
   EAUG   =  644.873                                                            
   DEXC   =    0.000                                                            
   RMAX   =    1.529    core radius for proj-oper                               
   RAUG   =    1.300    factor for augmentation sphere                          
   RDEP   =    1.501    radius for radial grids                                 
   RDEPT  =    1.300    core radius for aug-charge                              
                                                                                
   Atomic configuration                                                         
    4 entries                                                                   
     n  l   j            E        occ.                                          
     1  0  0.50      -273.3789   2.0000                                         
     2  0  0.50       -13.7508   2.0000                                         
     2  1  0.50        -5.2854   2.0000                                         
     3  2  1.50        -5.4423   0.0000                                         
   Description                                                                  
     l       E           TYP  RCUT    TYP  RCUT                                 
     0    -13.7508458     23  1.200                                             
     0     -8.2022199     23  1.200                                             
     1     -5.2854383     23  1.500                                             
     1     34.0145650     23  1.500                                             
     2     -5.4423304      7  1.500                                             
  local pseudopotential read in
  partial core-charges read in
  partial kinetic energy density read in
  atomic valenz-charges read in
  non local Contribution for L=           0  read in
    real space projection operators read in
  non local Contribution for L=           0  read in
    real space projection operators read in
  non local Contribution for L=           1  read in
    real space projection operators read in
  non local Contribution for L=           1  read in
    real space projection operators read in
    PAW grid and wavefunctions read in
 
   number of l-projection  operators is LMAX  =           4
   number of lm-projection operators is LMMAX =           8
 
 POTCAR:    PAW_PBE N 08Apr2002                   
   SHA256 =  e053789ff3a61a86a1b75d8a110fcc91f86041011e7b0817c7c99e4e8a6349d7 N/
   COPYR  = (c) Copyright 08Apr2002 Georg Kresse                                
   COPYR  = This file is part of the software VASP. Any use, copying, and all ot
   COPYR  = If you do not have a valid VASP license, you may not use, copy or di
   VRHFIN =N: s2p3                                                              
   LEXCH  = PE                                                                  
   EATOM  =   264.5486 eV,   19.4438 Ry                                         
                                                                                
   TITEL  = PAW_PBE N 08Apr2002                                                 
   LULTRA =        F    use ultrasoft PP ?                                      
   IUNSCR =        1    unscreen: 0-lin 1-nonlin 2-no                           
   RPACOR =    1.200    partial core radius                                     
   POMASS =   14.001; ZVAL   =    5.000    mass and valenz                      
   RCORE  =    1.500    outmost cutoff radius                                   
   RWIGS  =    1.400; RWIGS  =    0.741    wigner-seitz radius (au A)           
   ENMAX  =  400.000; ENMIN  =  300.000 eV                                      
   ICORE  =        2    local potential                                         
   LCOR   =        T    correct aug charges                                     
   LPAW   =        T    paw PP                                                  
   EAUG   =  627.112                                                            
   DEXC   =    0.000                                                            
   RMAX   =    1.529    core radius for proj-oper                               
   RAUG   =    1.300    factor for augmentation sphere                          
   RDEP   =    1.514    radius for radial grids                                 
   RDEPT  =    1.338    core radius for aug-charge                              
                                                                                
   Atomic configuration                                                         
    4 entries                                                                   
     n  l   j            E        occ.                                          
     1  0  0.50      -384.7179   2.0000                                         
     2  0  0.50       -18.5828   2.0000                                         
     2  1  0.50        -7.0898   3.0000                                         
     3  2  1.50        -6.8029   0.0000                                         
   Description                                                                  
     l       E           TYP  RCUT    TYP  RCUT                                 
     0    -18.5828119     23  1.200                                             
     0    -13.5018863     23  1.200                                             
     1     -7.0897853     23  1.500                                             
     1      9.5240782     23  1.500                                             
     2     -6.8029130      7  1.500                                             
  local pseudopotential read in
  partial core-charges read in
  partial kinetic energy density read in
  atomic valenz-charges read in
  non local Contribution for L=           0  read in
    real space projection operators read in
  non local Contribution for L=           0  read in
    real space projection operators read in
  non local Contribution for L=           1  read in
    real space projection operators read in
  non local Contribution for L=           1  read in
    real space projection operators read in
    PAW grid and wavefunctions read in
 
   number of l-projection  operators is LMAX  =           4
   number of lm-projection operators is LMMAX =           8
 
 POTCAR:    PAW_PBE C 08Apr2002                   
   SHA256 =  253f7b50bb8d59471dbedb8285d89021f4a42ed1a2c5d38a03a736e69125dd95 C/
   COPYR  = (c) Copyright 08Apr2002 Georg Kresse                                
   COPYR  = This file is part of the software VASP. Any use, copying, and all ot
   COPYR  = If you do not have a valid VASP license, you may not use, copy or di
   VRHFIN =C: s2p2                                                              
   LEXCH  = PE                                                                  
   EATOM  =   147.1560 eV,   10.8157 Ry                                         
                                                                                
   TITEL  = PAW_PBE C 08Apr2002                                                 
   LULTRA =        F    use ultrasoft PP ?                                      
   IUNSCR =        1    unscreen: 0-lin 1-nonlin 2-no                           
   RPACOR =    1.200    partial core radius                                     
   POMASS =   12.011; ZVAL   =    4.000    mass and valenz                      
   RCORE  =    1.500    outmost cutoff radius                                   
   RWIGS  =    1.630; RWIGS  =    0.863    wigner-seitz radius (au A)           
   ENMAX  =  400.000; ENMIN  =  300.000 eV                                      
   ICORE  =        2    local potential                                         
   LCOR   =        T    correct aug charges                                     
   LPAW   =        T    paw PP                                                  
   EAUG   =  644.873                                                            
   DEXC   =    0.000                                                            
   RMAX   =    1.529    core radius for proj-oper                               
   RAUG   =    1.300    factor for augmentation sphere                          
   RDEP   =    1.501    radius for radial grids                                 
   RDEPT  =    1.300    core radius for aug-charge                              
                                                                                
   Atomic configuration                                                         
    4 entries                                                                   
     n  l   j            E        occ.                                          
     1  0  0.50      -273.3789   2.0000                                         
     2  0  0.50       -13.7508   2.0000                                         
     2  1  0.50        -5.2854   2.0000                                         
     3  2  1.50        -5.4423   0.0000                                         
   Description                                                                  
     l       E           TYP  RCUT    TYP  RCUT                                 
     0    -13.7508458     23  1.200                                             
     0     -8.2022199     23  1.200                                             
     1     -5.2854383     23  1.500                                             
     1     34.0145650     23  1.500                                             
     2     -5.4423304      7  1.500                                             
  local pseudopotential read in
  partial core-charges read in
  partial kinetic energy density read in
  atomic valenz-charges read in
  non local Contribution for L=           0  read in
    real space projection operators read in
  non local Contribution for L=           0  read in
    real space projection operators read in
  non local Contribution for L=           1  read in
    real space projection operators read in
  non local Contribution for L=           1  read in
    real space projection operators read in
    PAW grid and wavefunctions read in
 
   number of l-projection  operators is LMAX  =           4
   number of lm-projection operators is LMMAX =           8
 
 POTCAR:    PAW_PBE Cr_pv 02Aug2007               
   SHA256 =  c9a7df34d3cdbacf1090e328ef39c0b420964e11c23f63548d1ac9dd218cdba0 Cr
   COPYR  = (c) Copyright 02Aug2007 Georg Kresse                                
   COPYR  = This file is part of the software VASP. Any use, copying, and all ot
   COPYR  = If you do not have a valid VASP license, you may not use, copy or di
   VRHFIN =Cr : p6d5s1                                                          
   LEXCH  = PE                                                                  
   EATOM  =  1647.9177 eV,  121.1185 Ry                                         
                                                                                
   TITEL  = PAW_PBE Cr_pv 02Aug2007                                             
   LULTRA =        F    use ultrasoft PP ?                                      
   IUNSCR =        1    unscreen: 0-lin 1-nonlin 2-no                           
   RPACOR =    2.080    partial core radius                                     
   POMASS =   51.996; ZVAL   =   12.000    mass and valenz                      
   RCORE  =    2.300    outmost cutoff radius                                   
   RWIGS  =    2.500; RWIGS  =    1.323    wigner-seitz radius (au A)           
   ENMAX  =  265.681; ENMIN  =  199.261 eV                                      
   ICORE  =        3    local potential                                         
   LCOR   =        T    correct aug charges                                     
   LPAW   =        T    paw PP                                                  
   EAUG   =  519.424                                                            
   DEXC   =    0.000                                                            
   RMAX   =    2.356    core radius for proj-oper                               
   RAUG   =    1.300    factor for augmentation sphere                          
   RDEP   =    2.447    radius for radial grids                                 
   RDEPT  =    1.882    core radius for aug-charge                              
                                                                                
   Atomic configuration                                                         
    8 entries                                                                   
     n  l   j            E        occ.                                          
     1  0  0.50     -5880.4963   2.0000                                         
     2  0  0.50      -667.0865   2.0000                                         
     2  1  1.50      -560.6250   6.0000                                         
     3  0  0.50       -73.9860   2.0000                                         
     3  1  1.50       -45.4378   6.0000                                         
     3  2  2.50        -2.9137   5.0000                                         
     4  0  0.50        -4.0071   1.0000                                         
     4  3  2.50        -1.3606   0.0000                                         
   Description                                                                  
     l       E           TYP  RCUT    TYP  RCUT                                 
     1    -45.4377911     23  2.000                                             
     1      1.3605826     23  2.000                                             
     2     -2.9136672     23  2.300                                             
     2     -4.2742498     23  2.300                                             
     0     -4.0071320     23  2.300                                             
     0      9.4498803     23  2.300                                             
     3      2.7211652     23  2.300                                             
  local pseudopotential read in
  partial core-charges read in
  partial kinetic energy density read in
  atomic valenz-charges read in
  non local Contribution for L=           1  read in
    real space projection operators read in
  non local Contribution for L=           1  read in
    real space projection operators read in
  non local Contribution for L=           2  read in
    real space projection operators read in
  non local Contribution for L=           2  read in
    real space projection operators read in
  non local Contribution for L=           0  read in
    real space projection operators read in
  non local Contribution for L=           0  read in
    real space projection operators read in
    PAW grid and wavefunctions read in
 
   number of l-projection  operators is LMAX  =           6
   number of lm-projection operators is LMMAX =          18
 
 Optimization of the real space projectors (new method)

 maximal supplied QI-value         = 25.13
 optimisation between [QCUT,QGAM] = [ 10.56, 21.36] = [ 31.20,127.80] Ry 
 Optimized for a Real-space Cutoff    1.32 Angstroem

   l    n(q)    QCUT    max X(q) W(low)/X(q) W(high)/X(q)  e(spline) 
   0      8    10.556   115.676    0.17E-03    0.39E-03    0.26E-06
   0      8    10.556    87.132    0.17E-03    0.39E-03    0.26E-06
   1      8    10.556     4.429    0.24E-03    0.31E-03    0.16E-06
   1      8    10.556     2.733    0.17E-03    0.22E-03    0.19E-06
 Optimization of the real space projectors (new method)

 maximal supplied QI-value         = 25.13
 optimisation between [QCUT,QGAM] = [ 10.56, 21.36] = [ 31.20,127.80] Ry 
 Optimized for a Real-space Cutoff    1.40 Angstroem

   l    n(q)    QCUT    max X(q) W(low)/X(q) W(high)/X(q)  e(spline) 
   0      9    10.556    79.467    0.20E-03    0.22E-03    0.30E-06
   0      9    10.556    66.151    0.20E-03    0.22E-03    0.30E-06
   1      8    10.556    12.181    0.10E-03    0.78E-03    0.19E-05
   1      8    10.556     8.434    0.11E-03    0.81E-03    0.19E-05
 Optimization of the real space projectors (new method)

 maximal supplied QI-value         = 25.13
 optimisation between [QCUT,QGAM] = [ 10.56, 21.36] = [ 31.20,127.80] Ry 
 Optimized for a Real-space Cutoff    1.32 Angstroem

   l    n(q)    QCUT    max X(q) W(low)/X(q) W(high)/X(q)  e(spline) 
   0      8    10.556   115.676    0.17E-03    0.39E-03    0.26E-06
   0      8    10.556    87.132    0.17E-03    0.39E-03    0.26E-06
   1      8    10.556     4.429    0.24E-03    0.31E-03    0.16E-06
   1      8    10.556     2.733    0.17E-03    0.22E-03    0.19E-06
 Optimization of the real space projectors (new method)

 maximal supplied QI-value         = 16.25
 optimisation between [QCUT,QGAM] = [ 10.73, 21.45] = [ 32.22,128.87] Ry 
 Optimized for a Real-space Cutoff    1.53 Angstroem

   l    n(q)    QCUT    max X(q) W(low)/X(q) W(high)/X(q)  e(spline) 
   1      9    10.726     3.262    0.64E-04    0.35E-04    0.11E-06
   1      9    10.726     5.741    0.13E-03    0.48E-04    0.19E-06
   2      9    10.726    60.438    0.12E-03    0.29E-04    0.13E-06
   2      9    10.726    55.380    0.12E-03    0.29E-04    0.13E-06
   0     10    10.726    80.273    0.43E-04    0.74E-05    0.81E-07
   0     10    10.726    36.654    0.34E-04    0.61E-05    0.73E-07
  PAW_PBE C 08Apr2002                   :
 energy of atom  1       EATOM= -147.1560
 kinetic energy error for atom=    0.0132 (will be added to EATOM!!)
  PAW_PBE N 08Apr2002                   :
 energy of atom  2       EATOM= -264.5486
 kinetic energy error for atom=    0.0298 (will be added to EATOM!!)
  PAW_PBE C 08Apr2002                   :
 energy of atom  3       EATOM= -147.1560
 kinetic energy error for atom=    0.0132 (will be added to EATOM!!)
  PAW_PBE Cr_pv 02Aug2007               :
 energy of atom  4       EATOM=-1647.9177
 kinetic energy error for atom=    0.0134 (will be added to EATOM!!)
 
 
 POSCAR: POSCAR-clean                            
  positions in direct lattice
  velocities in cartesian coordinates
 exchange correlation table for  LEXCH =        8
   RHO(1)=    0.500       N(1)  =     2000
   RHO(2)=  100.500       N(2)  =     4000

 VTST: version 3.2, (02/03/18)

 CHAIN: initializing optimizer
 
 OPT: Using VASP Conjugate-Gradient optimizer
 CHAIN: Read ICHAIN            0
 
 POSCAR: POSCAR-clean                            
  positions in direct lattice
  velocities in cartesian coordinates
 


--------------------------------------------------------------------------------------------------------


 ion  position               nearest neighbor table
   1  1.000  1.000  0.498-   2 1.42  60 1.43  70 1.44
   2  0.056  0.111  0.498-   1 1.42  13 1.42  15 1.43
   3  0.168  0.002  0.498-   4 1.42  62 1.43  60 1.43
   4  0.224  0.113  0.498-   3 1.42  15 1.42  17 1.43
   5  0.335  0.002  0.498-   6 1.42  62 1.43  64 1.43
   6  0.390  0.113  0.498-   5 1.42  19 1.42  17 1.44
   7  0.501  0.999  0.498-  66 1.42   8 1.42  64 1.42
   8  0.556  0.111  0.498-   7 1.42  21 1.42  19 1.44
   9  0.665  0.997  0.498-  66 1.41  10 1.42  68 1.43
  10  0.721  0.108  0.498-   9 1.42  21 1.43  23 1.43
  11  0.832  0.998  0.498-  12 1.42  70 1.43  68 1.44
  12  0.888  0.109  0.498-  11 1.42  23 1.42  13 1.43
  13  0.999  0.165  0.498-  14 1.42   2 1.42  12 1.43
  14  0.054  0.277  0.498-  13 1.42  25 1.42  27 1.43
  15  0.167  0.168  0.498-   4 1.42  16 1.42   2 1.43
  16  0.223  0.280  0.500-  27 1.42  15 1.42  29 1.44
  17  0.335  0.170  0.499-  18 1.42   4 1.43   6 1.44
  18  0.391  0.281  0.502-  17 1.42  31 1.44  29 1.44
  19  0.501  0.167  0.498-   6 1.42  20 1.43   8 1.44
  20  0.557  0.279  0.500-  33 1.42  19 1.43  31 1.44
  21  0.667  0.166  0.498-  22 1.41   8 1.42  10 1.43
  22  0.722  0.277  0.498-  21 1.41  35 1.42  33 1.43
  23  0.832  0.164  0.498-  12 1.42  24 1.42  10 1.43
  24  0.888  0.276  0.498-  35 1.42  23 1.42  25 1.43
  25  0.999  0.332  0.498-  14 1.42  24 1.43  26 1.43
  26  0.055  0.444  0.499-  39 1.42  37 1.42  25 1.43
  27  0.165  0.333  0.500-  28 1.42  16 1.42  14 1.43
  28  0.219  0.444  0.502-  41 1.41  27 1.42  39 1.42
  29  0.335  0.338  0.503-  30 1.42  18 1.44  16 1.44
  30  0.388  0.449  0.509-  41 1.41  29 1.42  71 2.00
  31  0.503  0.338  0.504-  32 1.42  18 1.44  20 1.44
  32  0.561  0.448  0.510-  43 1.41  31 1.42  71 2.00
  33  0.668  0.333  0.500-  34 1.42  20 1.42  22 1.43
  34  0.725  0.444  0.501-  43 1.41  33 1.42  45 1.42
  35  0.833  0.332  0.498-  24 1.42  36 1.42  22 1.42
  36  0.889  0.444  0.498-  45 1.41  37 1.42  35 1.42
  37  0.000  0.500  0.498-  26 1.42  36 1.42  38 1.42
  38  0.056  0.611  0.498-  49 1.42  47 1.42  37 1.42
  39  0.165  0.500  0.500-  26 1.42  28 1.42  40 1.42
  40  0.221  0.612  0.500-  49 1.41  39 1.42  51 1.42
  41  0.329  0.500  0.505-  30 1.41  28 1.41  42 1.44
  42  0.385  0.612  0.505-  53 1.41  51 1.41  41 1.44
  43  0.670  0.499  0.505-  32 1.41  34 1.41  44 1.44
  44  0.727  0.612  0.505-  55 1.41  57 1.41  43 1.44
  45  0.835  0.500  0.500-  36 1.41  34 1.42  46 1.42
  46  0.891  0.611  0.500-  47 1.42  57 1.42  45 1.42
  47  0.001  0.667  0.498-  46 1.42  38 1.42  48 1.42
  48  0.057  0.779  0.498-  59 1.42  47 1.42  61 1.42
  49  0.166  0.667  0.499-  40 1.41  38 1.42  50 1.43
  50  0.223  0.779  0.498-  63 1.42  61 1.42  49 1.43
  51  0.332  0.668  0.502-  42 1.41  52 1.42  40 1.42
  52  0.389  0.779  0.500-  65 1.42  63 1.42  51 1.42
  53  0.495  0.664  0.510-  42 1.41  54 1.42  71 2.00
  54  0.553  0.774  0.504-  53 1.42  65 1.44  67 1.44
  55  0.668  0.662  0.510-  44 1.41  56 1.42  71 1.99
  56  0.720  0.773  0.503-  55 1.42  67 1.43  69 1.45
  57  0.837  0.667  0.501-  44 1.41  58 1.42  46 1.42
  58  0.890  0.778  0.500-  57 1.42  69 1.42  59 1.43
  59  0.001  0.835  0.498-  60 1.42  48 1.42  58 1.43
  60  0.057  0.946  0.498-  59 1.42   1 1.43   3 1.43
  61  0.168  0.835  0.498-  62 1.42  50 1.42  48 1.42
  62  0.224  0.946  0.498-  61 1.42   3 1.43   5 1.43
  63  0.333  0.834  0.498-  64 1.42  50 1.42  52 1.42
  64  0.390  0.945  0.498-  63 1.42   7 1.42   5 1.43
  65  0.499  0.833  0.500-  66 1.41  52 1.42  54 1.44
  66  0.555  0.943  0.498-  65 1.41   9 1.41   7 1.42
  67  0.665  0.830  0.502-  68 1.42  56 1.43  54 1.44
  68  0.720  0.941  0.499-  67 1.42   9 1.43  11 1.44
  69  0.833  0.832  0.500-  70 1.42  58 1.42  56 1.45
  70  0.888  0.943  0.498-  69 1.42  11 1.43   1 1.44
  71  0.528  0.556  0.555-  55 1.99  30 2.00  32 2.00  53 2.00
 

IMPORTANT INFORMATION: All symmetrisations will be switched off!
NOSYMM: (Re-)initialisation of all symmetry stuff for point group C_1.

 
 
 KPOINTS: K-Points                                

Automatic generation of k-mesh.
Space group operators:
 irot       det(A)        alpha          n_x          n_y          n_z        tau_x        tau_y        tau_z
    1     1.000000     0.000000     1.000000     0.000000     0.000000     0.000000     0.000000     0.000000
 
 Subroutine IBZKPT returns following result:
 ===========================================
 
 Found      4 irreducible k-points:
 
 Following reciprocal coordinates:
            Coordinates               Weight
  0.000000  0.000000  0.000000      1.000000
  0.500000 -0.000000  0.000000      1.000000
  0.000000  0.500000  0.000000      1.000000
  0.500000  0.500000  0.000000      1.000000
 
 Following cartesian coordinates:
            Coordinates               Weight
  0.000000  0.000000  0.000000      1.000000
  0.033649  0.019598  0.000000      1.000000
 -0.000002  0.039197  0.000000      1.000000
  0.033647  0.058795  0.000000      1.000000
 


--------------------------------------------------------------------------------------------------------




 Dimension of arrays:
   k-points           NKPTS =      4   k-points in BZ     NKDIM =      4   number of bands    NBANDS=    184
   number of dos      NEDOS =    301   number of ions     NIONS =     71
   non local maximal  LDIM  =      6   non local SUM 2l+1 LMDIM =     18
   total plane-waves  NPLWV = ******
   max r-space proj   IRMAX =   6644   max aug-charges    IRDMAX=  15615
   dimension x,y,z NGX =   108 NGY =  108 NGZ =  108
   dimension x,y,z NGXF=   216 NGYF=  216 NGZF=  216
   support grid    NGXF=   216 NGYF=  216 NGZF=  216
   ions per type =              65   1   4   1
   NGX,Y,Z   is equivalent  to a cutoff of  12.08, 12.16, 11.97 a.u.
   NGXF,Y,Z  is equivalent  to a cutoff of  24.17, 24.33, 23.94 a.u.

 SYSTEM =  unknown system                          
 POSCAR =  POSCAR-clean                            

 Startparameter for this run:
   NWRITE =      2    write-flag & timer
   PREC   = accura    normal or accurate (medium, high low for compatibility)
   ISTART =      0    job   : 0-new  1-cont  2-samecut
   ICHARG =      2    charge: 1-file 2-atom 10-const
   ISPIN  =      2    spin polarized calculation?
   LNONCOLLINEAR =      F non collinear calculations
   LSORBIT =      F    spin-orbit coupling
   INIWAV =      1    electr: 0-lowe 1-rand  2-diag
   LASPH  =      F    aspherical Exc in radial PAW
   METAGGA=      F    non-selfconsistent MetaGGA calc.

 Electronic Relaxation 1
   ENCUT  =  440.0 eV  32.34 Ry    5.69 a.u.  25.41 25.25 25.66*2*pi/ulx,y,z
   ENINI  =  440.0     initial cutoff
   ENAUG  =  644.9 eV  augmentation charge cutoff
   NELM   =     50;   NELMIN=  2; NELMDL= -5     # of ELM steps 
   EDIFF  = 0.1E-04   stopping-criterion for ELM
   LREAL  =      T    real-space projection
   NLSPLINE    = F    spline interpolate recip. space projectors
   LCOMPAT=      F    compatible to vasp.4.4
   GGA_COMPAT  = T    GGA compatible to vasp.4.4-vasp.4.6
   LMAXPAW     = -100 max onsite density
   LMAXMIX     =    2 max onsite mixed and CHGCAR
   VOSKOWN=      0    Vosko Wilk Nusair interpolation
   ROPT   =   -0.00025  -0.00025  -0.00025  -0.00025
 Ionic relaxation
   EDIFFG = -.5E-01   stopping-criterion for IOM
   NSW    =    400    number of steps for IOM
   NBLOCK =      1;   KBLOCK =    400    inner block; outer block 
   IBRION =      2    ionic relax: 0-MD 1-quasi-New 2-CG
   NFREE  =      1    steps in history (QN), initial steepest desc. (CG)
   ISIF   =      2    stress and relaxation
   IWAVPR =     11    prediction:  0-non 1-charg 2-wave 3-comb
   ISYM   =      0    0-nonsym 1-usesym 2-fastsym
   LCORR  =      T    Harris-Foulkes like correction to forces

   POTIM  = 0.3000    time-step for ionic-motion
   TEIN   =    0.0    initial temperature
   TEBEG  =    0.0;   TEEND  =   0.0 temperature during run
   SMASS  =  -3.00    Nose mass-parameter (am)
   estimated Nose-frequenzy (Omega)   =  0.10E-29 period in steps =****** mass=  -0.505E-26a.u.
   SCALEE = 1.0000    scale energy and forces
   NPACO  =    256;   APACO  = 16.0  distance and # of slots for P.C.
   PSTRESS=    0.0 pullay stress

  Mass of Ions in am
   POMASS =  12.01 14.00 12.01 52.00
  Ionic Valenz
   ZVAL   =   4.00  5.00  4.00 12.00
  Atomic Wigner-Seitz radii
   RWIGS  =  -1.00 -1.00 -1.00 -1.00
  virtual crystal weights 
   VCA    =   1.00  1.00  1.00  1.00
   NELECT =     293.0000    total number of electrons
   NUPDOWN=      -1.0000    fix difference up-down

 DOS related values:
   EMIN   =  10.00;   EMAX   =-10.00  energy-range for DOS
   EFERMI =   0.00
   ISMEAR =     0;   SIGMA  =   0.10  broadening in eV -4-tet -1-fermi 0-gaus

 Electronic relaxation 2 (details)
   IALGO  =     68    algorithm
   LDIAG  =      T    sub-space diagonalisation (order eigenvalues)
   LSUBROT=      F    optimize rotation matrix (better conditioning)
   TURBO    =      0    0=normal 1=particle mesh
   IRESTART =      0    0=no restart 2=restart with 2 vectors
   NREBOOT  =      0    no. of reboots
   NMIN     =      0    reboot dimension
   EREF     =   0.00    reference energy to select bands
   IMIX   =      4    mixing-type and parameters
     AMIX     =   0.40;   BMIX     =  1.00
     AMIX_MAG =   1.60;   BMIX_MAG =  1.00
     AMIN     =   0.10
     WC   =   100.;   INIMIX=   1;  MIXPRE=   1;  MAXMIX= -45

 Intra band minimization:
   WEIMIN = 0.0010     energy-eigenvalue tresh-hold
   EBREAK =  0.14E-07  absolut break condition
   DEPER  =   0.30     relativ break condition  

   TIME   =   0.40     timestep for ELM

  volume/ion in A,a.u.               =      40.04       270.23
  Fermi-wavevector in a.u.,A,eV,Ry     =   0.767535  1.450430  8.015318  0.589109
  Thomas-Fermi vector in A             =   1.868112
 
 Write flags
   LWAVE        =      F    write WAVECAR
   LDOWNSAMPLE  =      F    k-point downsampling of WAVECAR
   LCHARG       =      F    write CHGCAR
   LVTOT        =      F    write LOCPOT, total local potential
   LVHAR        =      F    write LOCPOT, Hartree potential only
   LELF         =      F    write electronic localiz. function (ELF)
   LORBIT       =      0    0 simple, 1 ext, 2 COOP (PROOUT), +10 PAW based schemes


 Dipole corrections
   LMONO  =      F    monopole corrections only (constant potential shift)
   LDIPOL =      F    correct potential (dipole corrections)
   IDIPOL =      0    1-x, 2-y, 3-z, 4-all directions 
   EPSILON=  1.0000000 bulk dielectric constant

 Exchange correlation treatment:
   GGA     =    --    GGA type
   LEXCH   =     8    internal setting for exchange type
   VOSKOWN=      0    Vosko Wilk Nusair interpolation
   LHFCALC =     F    Hartree Fock is set to
   LHFONE  =     F    Hartree Fock one center treatment
   AEXX    =    0.0000 exact exchange contribution

 Linear response parameters
   LEPSILON=     F    determine dielectric tensor
   LRPA    =     F    only Hartree local field effects (RPA)
   LNABLA  =     F    use nabla operator in PAW spheres
   LVEL    =     F    velocity operator in full k-point grid
   LINTERFAST=   F  fast interpolation
   KINTER  =     0    interpolate to denser k-point grid
   CSHIFT  =0.1000    complex shift for real part using Kramers Kronig
   OMEGAMAX=  -1.0    maximum frequency
   DEG_THRESHOLD= 0.2000000E-02 threshold for treating states as degnerate
   RTIME   =   -0.100 relaxation time in fs
  (WPLASMAI=    0.000 imaginary part of plasma frequency in eV, 0.658/RTIME)
   DFIELD  = 0.0000000 0.0000000 0.0000000 field for delta impulse in time
 
 Orbital magnetization related:
   ORBITALMAG=     F  switch on orbital magnetization
   LCHIMAG   =     F  perturbation theory with respect to B field
   DQ        =  0.001000  dq finite difference perturbation B field
   LLRAUG    =     F  two centre corrections for induced B field



--------------------------------------------------------------------------------------------------------


 conjugate gradient relaxation of ions
 charge density and potential will be updated during run
 spin polarized calculation
 RMM-DIIS sequential band-by-band and
  variant of blocked Davidson during initial phase
 perform sub-space diagonalisation
    before iterative eigenvector-optimisation
 modified Broyden-mixing scheme, WC =      100.0
 initial mixing is a Kerker type mixing with AMIX =  0.4000 and BMIX =      1.0000
 Hartree-type preconditioning will be used
 using additional bands           37
 real space projection scheme for non local part
 use partial core corrections
 calculate Harris-corrections to forces 
   (improved forces if not selfconsistent)
 use gradient corrections 
 use of overlap-Matrix (Vanderbilt PP)
 Gauss-broadening in eV      SIGMA  =   0.10


--------------------------------------------------------------------------------------------------------


  energy-cutoff  :      440.00
  volume of cell :     2843.14
      direct lattice vectors                 reciprocal lattice vectors
    14.858866394  0.000814954  0.000000000     0.067297735  0.039196617  0.000000000
    -7.429433197 12.755795406  0.000000000    -0.000004300  0.078393234  0.000000000
     0.000000000  0.000000000 15.000000000     0.000000000  0.000000000  0.066666667

  length of vectors
    14.858866416 14.761666372 15.000000000     0.077880421  0.078393234  0.066666667


 
 k-points in units of 2pi/SCALE and weight: K-Points                                
   0.00000000  0.00000000  0.00000000       0.250
   0.03364887  0.01959831  0.00000000       0.250
  -0.00000215  0.03919662  0.00000000       0.250
   0.03364672  0.05879493  0.00000000       0.250
 
 k-points in reciprocal lattice and weights: K-Points                                
   0.00000000  0.00000000  0.00000000       0.250
   0.50000000 -0.00000000  0.00000000       0.250
   0.00000000  0.50000000  0.00000000       0.250
   0.50000000  0.50000000  0.00000000       0.250
 
 position of ions in fractional coordinates (direct lattice) 
   0.99990123  0.99987037  0.49764653
   0.05569763  0.11134707  0.49771847
   0.16817022  0.00199088  0.49754080
   0.22361100  0.11338575  0.49825248
   0.33502510  0.00208604  0.49773882
   0.39022567  0.11322198  0.49838840
   0.50054998  0.99930627  0.49779008
   0.55609076  0.11060492  0.49769547
   0.66471007  0.99731936  0.49824671
   0.72052231  0.10840460  0.49755001
   0.83165624  0.99790551  0.49836402
   0.88761709  0.10912171  0.49774244
   0.99900580  0.16549014  0.49781875
   0.05431910  0.27670383  0.49848753
   0.16742817  0.16810520  0.49835219
   0.22308151  0.27975275  0.50008366
   0.33530797  0.17016527  0.49939777
   0.39082204  0.28131369  0.50249419
   0.50082563  0.16731194  0.49841844
   0.55684840  0.27921797  0.50002965
   0.66674849  0.16565255  0.49753541
   0.72245782  0.27651935  0.49801654
   0.83200427  0.16419285  0.49762181
   0.88788149  0.27589362  0.49776109
   0.99893119  0.33204231  0.49831584
   0.05452404  0.44385427  0.49876034
   0.16549610  0.33296837  0.50003388
   0.21937098  0.44403829  0.50180616
   0.33540376  0.33791307  0.50338773
   0.38776309  0.44875701  0.50919768
   0.50278006  0.33757836  0.50352867
   0.56122943  0.44836748  0.50975729
   0.66755867  0.33272446  0.49966194
   0.72477397  0.44378083  0.50132104
   0.83336069  0.33209853  0.49790629
   0.88948434  0.44369704  0.49824132
   0.00013442  0.49983708  0.49825512
   0.05585555  0.61129060  0.49826756
   0.16483529  0.50008381  0.50035884
   0.22069753  0.61166660  0.50031871
   0.32921246  0.49954410  0.50526957
   0.38541119  0.61224545  0.50522623
   0.67044113  0.49920291  0.50532016
   0.72672390  0.61189934  0.50523337
   0.83544043  0.49976693  0.49958097
   0.89116638  0.61130362  0.49957443
   0.00137415  0.66737952  0.49826144
   0.05679818  0.77903623  0.49790931
   0.16641376  0.66730515  0.49877416
   0.22268261  0.77903512  0.49830378
   0.33164399  0.66786799  0.50162614
   0.38881802  0.77928134  0.49995232
   0.49462970  0.66362429  0.50974934
   0.55318928  0.77447095  0.50358133
   0.66793643  0.66238738  0.50954923
   0.72025004  0.77341411  0.50348300
   0.83650520  0.66730022  0.50124280
   0.89037572  0.77839748  0.49964233
   0.00144648  0.83453437  0.49802399
   0.05672633  0.94571870  0.49752580
   0.16774219  0.83501550  0.49774162
   0.22369472  0.94632059  0.49761031
   0.33312939  0.83429120  0.49845887
   0.38998016  0.94539173  0.49783365
   0.49948055  0.83262669  0.50012838
   0.55488475  0.94316282  0.49838097
   0.66516262  0.82974598  0.50247690
   0.71960220  0.94070166  0.49934510
   0.83274749  0.83165368  0.50003638
   0.88798665  0.94312749  0.49842527
   0.52791695  0.55588566  0.55458314
 
 position of ions in cartesian coordinates  (Angst):
   7.42892866 12.75495671  7.46469800
   0.00035803  1.42036582  7.46577705
   2.48402763  0.02553237  7.46311194
   2.48021412  1.44650767  7.47378727
   4.96259511  0.02688210  7.46608233
   4.95713599  1.44455440  7.47582599
   0.01332607 12.74735429  7.46685120
   7.44114643  1.41130689  7.46543207
   2.46732056 12.72214345  7.47370071
   9.90076006  1.38337408  7.46325018
   4.94359671 12.72975626  7.47546033
  12.37827128  1.39265761  7.46613661
  13.61459577  2.11177246  7.46728122
  -1.24863235  3.52962173  7.47731300
   1.23886649  2.14445198  7.47528285
   1.23633398  3.56865062  7.50125496
   3.71806484  2.17086660  7.49096650
   3.71717117  3.58869836  7.53741284
   6.19866826  2.13460499  7.47627657
   6.19970473  3.56210111  7.50044475
   8.67642223  2.11357339  7.46303120
   8.68052220  3.52781304  7.47024813
  11.14278045  2.09508840  7.46432722
  11.14317919  3.51996614  7.46641629
  12.37609896  4.23627790  7.47473765
  -2.48742024  5.66175868  7.48140507
  -0.01468178  4.24741129  7.50050824
  -0.03934867  5.66424038  7.52709244
   2.47321716  4.31062330  7.55081591
   2.42770975  5.72456859  7.63796513
   4.96272594  4.30649022  7.55293010
   5.00811694  5.71974118  7.64635938
   7.44721092  4.24470920  7.49492911
   7.47227954  5.66136816  7.51981567
   9.91549139  4.23686001  7.46859429
   9.92031148  5.66043361  7.47361986
  -3.71150878  6.37581961  7.47382676
  -3.71159252  7.79754334  7.47401343
  -1.26607378  6.37910115  7.50538258
  -1.26502104  7.80247391  7.50478064
   1.18039439  6.37235064  7.57904352
   1.17813673  7.80999175  7.57839348
   6.25320042  6.36827661  7.57980243
   6.25222807  7.80585508  7.57850049
   8.70071265  6.37560556  7.49371452
   8.70008273  7.79839023  7.49361644
  -4.93783332  8.51295774  7.47392161
  -4.94384109  9.93727300  7.46863958
  -2.48497924  8.51214355  7.48161242
  -2.47897825  9.93739405  7.47455668
  -0.03402687  8.51945776  7.52439213
  -0.01222372  9.94067026  7.49928487
   2.41928420  8.46545880  7.64624009
   2.46588548  9.87944375  7.55371999
   5.00361542  8.44982221  7.64323841
   4.95607067  9.86609909  7.55224497
   7.47185658  8.51262674  7.51864204
   7.44692184  9.92980458  7.49463497
  -6.17862436 10.64515085  7.47035982
  -6.18326488 12.06344042  7.46288693
  -3.71123300 10.65142354  7.46612436
  -3.70677564 12.07125419  7.46415466
  -1.24838563 10.64231928  7.47688301
  -1.22906163 12.05954129  7.46750476
   1.23577030 10.62122279  7.50192566
   1.23779325 12.03124413  7.47571459
   3.71902019 10.58461204  7.53715350
   3.70359286 11.99998430  7.49017645
   6.19496829 10.60908280  7.50054571
   6.18757225 12.03106498  7.47637907
   3.71433209  7.09119403  8.31874706
 


--------------------------------------------------------------------------------------------------------


 k-point  1 :   0.0000 0.0000 0.0000  plane waves:   59589
 k-point  2 :   0.5000-0.0000 0.0000  plane waves:   59558
 k-point  3 :   0.0000 0.5000 0.0000  plane waves:   59634
 k-point  4 :   0.5000 0.5000 0.0000  plane waves:   59558

 maximum and minimum number of plane-waves per node :      4987     4940

 maximum number of plane-waves:     59634
 maximum index in each direction: 
   IXMAX=   25   IYMAX=   25   IZMAX=   25
   IXMIN=  -25   IYMIN=  -25   IZMIN=  -25


 real space projection operators:
  total allocation   :      18897.44 KBytes
  max/ min on nodes  :       1623.22       1539.89


 parallel 3D FFT for wavefunctions:
    minimum data exchange during FFTs selected (reduces bandwidth)
 parallel 3D FFT for charge:
    minimum data exchange during FFTs selected (reduces bandwidth)


 total amount of memory used by VASP MPI-rank0   111600. kBytes
=======================================================================

   base      :      30000. kBytes
   nonlr-proj:       9915. kBytes
   fftplans  :      10852. kBytes
   grid      :      30996. kBytes
   one-center:        186. kBytes
   wavefun   :      29651. kBytes
 
     INWAV:  cpu time    0.0000: real time    0.0001
 Broyden mixing: mesh for mixing (old mesh)
   NGX = 51   NGY = 51   NGZ = 51
  (NGX  =216   NGY  =216   NGZ  =216)
  gives a total of 132651 points

 initial charge density was supplied:
 charge density of overlapping atoms calculated
 number of electron     293.0000000 magnetization       1.0000000
 keeping initial charge density in first step


--------------------------------------------------------------------------------------------------------


 Maximum index for non-local projection operator          550
 Maximum index for augmentation-charges          325 (set IRDMAX)


--------------------------------------------------------------------------------------------------------


 First call to EWALD:  gamma=   0.125
 Maximum number of real-space cells 3x 3x 3
 Maximum number of reciprocal cells 3x 3x 3

    FEWALD:  cpu time    0.0049: real time    0.0054


--------------------------------------- Iteration      1(   1)  ---------------------------------------


    POTLOK:  cpu time    0.4440: real time    0.4874
    SETDIJ:  cpu time    0.0134: real time    0.0135
     EDDAV:  cpu time   11.4136: real time   11.5380
       DOS:  cpu time    0.0013: real time    0.0013
    --------------------------------------------
      LOOP:  cpu time   11.8723: real time   12.0403

 eigenvalue-minimisations  :  3352
 total energy-change (2. order) : 0.2481281E+04  (-0.1077714E+05)
 number of electron     293.0000000 magnetization       1.0000000
 augmentation part      293.0000000 magnetization       1.0000000

 Free energy of the ion-electron system (eV)
  ---------------------------------------------------
  alpha Z        PSCENC =       157.23023458
  Ewald energy   TEWEN  =     30444.73879575
  -Hartree energ DENC   =    -39606.90708131
  -exchange      EXHF   =         0.00000000
  -V(xc)+E(xc)   XCENC  =       982.92403304
  PAW double counting   =      9000.30529238    -9089.18527416
  entropy T*S    EENTRO =        -0.10166240
  eigenvalues    EBANDS =     -1473.00053702
  atomic energy  EATOM  =     12065.27733323
  Solvation  Ediel_sol  =         0.00000000
  ---------------------------------------------------
  free energy    TOTEN  =      2481.28113409 eV

  energy without entropy =     2481.38279649  energy(sigma->0) =     2481.33196529


--------------------------------------------------------------------------------------------------------




--------------------------------------- Iteration      1(   2)  ---------------------------------------


     EDDAV:  cpu time   14.7419: real time   14.9163
       DOS:  cpu time    0.0009: real time    0.0009
    --------------------------------------------
      LOOP:  cpu time   14.7428: real time   14.9173

 eigenvalue-minimisations  :  4216
 total energy-change (2. order) :-0.2708163E+04  (-0.2590503E+04)
 number of electron     293.0000000 magnetization       1.0000000
 augmentation part      293.0000000 magnetization       1.0000000

 Free energy of the ion-electron system (eV)
  ---------------------------------------------------
  alpha Z        PSCENC =       157.23023458
  Ewald energy   TEWEN  =     30444.73879575
  -Hartree energ DENC   =    -39606.90708131
  -exchange      EXHF   =         0.00000000
  -V(xc)+E(xc)   XCENC  =       982.92403304
  PAW double counting   =      9000.30529238    -9089.18527416
  entropy T*S    EENTRO =        -0.01651268
  eigenvalues    EBANDS =     -4181.24886610
  atomic energy  EATOM  =     12065.27733323
  Solvation  Ediel_sol  =         0.00000000
  ---------------------------------------------------
  free energy    TOTEN  =      -226.88204527 eV

  energy without entropy =     -226.86553259  energy(sigma->0) =     -226.87378893


--------------------------------------------------------------------------------------------------------




--------------------------------------- Iteration      1(   3)  ---------------------------------------


     EDDAV:  cpu time   12.9016: real time   13.0919
       DOS:  cpu time    0.0010: real time    0.0010
    --------------------------------------------
      LOOP:  cpu time   12.9026: real time   13.0928

 eigenvalue-minimisations  :  3568
 total energy-change (2. order) :-0.4602689E+03  (-0.4574373E+03)
 number of electron     293.0000000 magnetization       1.0000000
 augmentation part      293.0000000 magnetization       1.0000000

 Free energy of the ion-electron system (eV)
  ---------------------------------------------------
  alpha Z        PSCENC =       157.23023458
  Ewald energy   TEWEN  =     30444.73879575
  -Hartree energ DENC   =    -39606.90708131
  -exchange      EXHF   =         0.00000000
  -V(xc)+E(xc)   XCENC  =       982.92403304
  PAW double counting   =      9000.30529238    -9089.18527416
  entropy T*S    EENTRO =        -0.03727067
  eigenvalues    EBANDS =     -4641.49696631
  atomic energy  EATOM  =     12065.27733323
  Solvation  Ediel_sol  =         0.00000000
  ---------------------------------------------------
  free energy    TOTEN  =      -687.15090348 eV

  energy without entropy =     -687.11363280  energy(sigma->0) =     -687.13226814


--------------------------------------------------------------------------------------------------------




--------------------------------------- Iteration      1(   4)  ---------------------------------------


     EDDAV:  cpu time   12.8906: real time   13.0450
       DOS:  cpu time    0.0012: real time    0.0012
    --------------------------------------------
      LOOP:  cpu time   12.8917: real time   13.0461

 eigenvalue-minimisations  :  3552
 total energy-change (2. order) :-0.1689062E+02  (-0.1674751E+02)
 number of electron     293.0000000 magnetization       1.0000000
 augmentation part      293.0000000 magnetization       1.0000000

 Free energy of the ion-electron system (eV)
  ---------------------------------------------------
  alpha Z        PSCENC =       157.23023458
  Ewald energy   TEWEN  =     30444.73879575
  -Hartree energ DENC   =    -39606.90708131
  -exchange      EXHF   =         0.00000000
  -V(xc)+E(xc)   XCENC  =       982.92403304
  PAW double counting   =      9000.30529238    -9089.18527416
  entropy T*S    EENTRO =        -0.03797045
  eigenvalues    EBANDS =     -4658.38688723
  atomic energy  EATOM  =     12065.27733323
  Solvation  Ediel_sol  =         0.00000000
  ---------------------------------------------------
  free energy    TOTEN  =      -704.04152417 eV

  energy without entropy =     -704.00355372  energy(sigma->0) =     -704.02253894


--------------------------------------------------------------------------------------------------------




--------------------------------------- Iteration      1(   5)  ---------------------------------------


     EDDAV:  cpu time   13.7422: real time   13.9943
       DOS:  cpu time    0.0009: real time    0.0009
    CHARGE:  cpu time    0.4772: real time    0.4861
    MIXING:  cpu time    0.0068: real time    0.0082
    --------------------------------------------
      LOOP:  cpu time   14.2271: real time   14.4895

 eigenvalue-minimisations  :  4024
 total energy-change (2. order) :-0.5518433E+00  (-0.5499592E+00)
 number of electron     292.9999983 magnetization       0.7749175
 augmentation part       11.6611169 magnetization       0.7591851

 Broyden mixing:
  rms(total) = 0.46861E+01    rms(broyden)= 0.46856E+01
  rms(prec ) = 0.54455E+01
  weight for this iteration     100.00

 Free energy of the ion-electron system (eV)
  ---------------------------------------------------
  alpha Z        PSCENC =       157.23023458
  Ewald energy   TEWEN  =     30444.73879575
  -Hartree energ DENC   =    -39606.90708131
  -exchange      EXHF   =         0.00000000
  -V(xc)+E(xc)   XCENC  =       982.92403304
  PAW double counting   =      9000.30529238    -9089.18527416
  entropy T*S    EENTRO =        -0.03815127
  eigenvalues    EBANDS =     -4658.93854966
  atomic energy  EATOM  =     12065.27733323
  Solvation  Ediel_sol  =         0.00000000
  ---------------------------------------------------
  free energy    TOTEN  =      -704.59336742 eV

  energy without entropy =     -704.55521615  energy(sigma->0) =     -704.57429179


--------------------------------------------------------------------------------------------------------




--------------------------------------- Iteration      1(   6)  ---------------------------------------


    POTLOK:  cpu time    0.3874: real time    0.3980
    SETDIJ:  cpu time    0.0123: real time    0.0140
    EDDIAG:  cpu time    2.1375: real time    2.1685
  RMM-DIIS:  cpu time   11.5171: real time   11.6111
    ORTHCH:  cpu time    0.2059: real time    0.2067
       DOS:  cpu time    0.0009: real time    0.0009
    CHARGE:  cpu time    0.4593: real time    0.4702
    MIXING:  cpu time    0.0069: real time    0.0077
    --------------------------------------------
      LOOP:  cpu time   14.7274: real time   14.8773

 eigenvalue-minimisations  :  4078
 total energy-change (2. order) :-0.2673785E+02  (-0.5212273E+02)
 number of electron     292.9999981 magnetization       0.7167745
 augmentation part       17.3130661 magnetization       1.0261110

 Broyden mixing:
  rms(total) = 0.84131E+01    rms(broyden)= 0.84127E+01
  rms(prec ) = 0.92845E+01
  weight for this iteration     100.00

 eigenvalues of (default mixing * dielectric matrix)
  average eigenvalue GAMMA=   0.2148
  0.2148

 Free energy of the ion-electron system (eV)
  ---------------------------------------------------
  alpha Z        PSCENC =       157.23023458
  Ewald energy   TEWEN  =     30444.73879575
  -Hartree energ DENC   =    -39900.22809403
  -exchange      EXHF   =         0.00000000
  -V(xc)+E(xc)   XCENC  =       996.74699221
  PAW double counting   =     15331.72903754   -15420.35861442
  entropy T*S    EENTRO =        -0.04765320
  eigenvalues    EBANDS =     -4406.41925313
  atomic energy  EATOM  =     12065.27733323
  Solvation  Ediel_sol  =         0.00000000
  ---------------------------------------------------
  free energy    TOTEN  =      -731.33122147 eV

  energy without entropy =     -731.28356826  energy(sigma->0) =     -731.30739487


--------------------------------------------------------------------------------------------------------




--------------------------------------- Iteration      1(   7)  ---------------------------------------


    POTLOK:  cpu time    0.3897: real time    0.3942
    SETDIJ:  cpu time    0.0124: real time    0.0125
    EDDIAG:  cpu time    2.0139: real time    2.0353
  RMM-DIIS:  cpu time    8.6411: real time    8.7168
    ORTHCH:  cpu time    0.9568: real time    0.9588
       DOS:  cpu time    0.0009: real time    0.0009
    CHARGE:  cpu time    0.4522: real time    0.4604
    MIXING:  cpu time    0.0093: real time    0.0093
    --------------------------------------------
      LOOP:  cpu time   12.4763: real time   12.5882

 eigenvalue-minimisations  :  3047
 total energy-change (2. order) : 0.6854866E+02  (-0.5999830E+01)
 number of electron     292.9999981 magnetization       0.6178861
 augmentation part       15.2994282 magnetization       0.6246560

 Broyden mixing:
  rms(total) = 0.32563E+01    rms(broyden)= 0.32560E+01
  rms(prec ) = 0.39088E+01
  weight for this iteration     100.00

 eigenvalues of (default mixing * dielectric matrix)
  average eigenvalue GAMMA=   0.4620
  0.4620  0.4620

 Free energy of the ion-electron system (eV)
  ---------------------------------------------------
  alpha Z        PSCENC =       157.23023458
  Ewald energy   TEWEN  =     30444.73879575
  -Hartree energ DENC   =    -40021.66672302
  -exchange      EXHF   =         0.00000000
  -V(xc)+E(xc)   XCENC  =      1001.33097934
  PAW double counting   =     16954.58849176   -17049.97845802
  entropy T*S    EENTRO =        -0.00020961
  eigenvalues    EBANDS =     -4214.30300875
  atomic energy  EATOM  =     12065.27733323
  Solvation  Ediel_sol  =         0.00000000
  ---------------------------------------------------
  free energy    TOTEN  =      -662.78256473 eV

  energy without entropy =     -662.78235512  energy(sigma->0) =     -662.78245993


--------------------------------------------------------------------------------------------------------




--------------------------------------- Iteration      1(   8)  ---------------------------------------


    POTLOK:  cpu time    0.4326: real time    0.4412
    SETDIJ:  cpu time    0.0164: real time    0.0165
    EDDIAG:  cpu time    2.0900: real time    2.1056
  RMM-DIIS:  cpu time    8.9156: real time    8.9803
    ORTHCH:  cpu time    0.3246: real time    0.3259
       DOS:  cpu time    0.0010: real time    0.0010
    CHARGE:  cpu time    0.4614: real time    0.4676
    MIXING:  cpu time    0.0089: real time    0.0090
    --------------------------------------------
      LOOP:  cpu time   12.2506: real time   12.3473

 eigenvalue-minimisations  :  3131
 total energy-change (2. order) : 0.6888395E-01  (-0.2343047E+01)
 number of electron     292.9999983 magnetization       0.3421537
 augmentation part       11.2239218 magnetization       0.3091965

 Broyden mixing:
  rms(total) = 0.28634E+01    rms(broyden)= 0.28625E+01
  rms(prec ) = 0.35028E+01
  weight for this iteration     100.00

 eigenvalues of (default mixing * dielectric matrix)
  average eigenvalue GAMMA=   0.8466
  1.8642  0.3378  0.3378

 Free energy of the ion-electron system (eV)
  ---------------------------------------------------
  alpha Z        PSCENC =       157.23023458
  Ewald energy   TEWEN  =     30444.73879575
  -Hartree energ DENC   =    -40201.96518014
  -exchange      EXHF   =         0.00000000
  -V(xc)+E(xc)   XCENC  =      1008.01174422
  PAW double counting   =     19919.26939116   -20018.70771952
  entropy T*S    EENTRO =        -0.02702754
  eigenvalues    EBANDS =     -4036.54125252
  atomic energy  EATOM  =     12065.27733323
  Solvation  Ediel_sol  =         0.00000000
  ---------------------------------------------------
  free energy    TOTEN  =      -662.71368078 eV

  energy without entropy =     -662.68665324  energy(sigma->0) =     -662.70016701


--------------------------------------------------------------------------------------------------------




--------------------------------------- Iteration      1(   9)  ---------------------------------------


    POTLOK:  cpu time    0.3873: real time    0.3917
    SETDIJ:  cpu time    0.0123: real time    0.0123
    EDDIAG:  cpu time    2.0847: real time    2.1068
  RMM-DIIS:  cpu time    8.4401: real time    8.5007
    ORTHCH:  cpu time    0.4408: real time    0.4418
       DOS:  cpu time    0.0010: real time    0.0010
    CHARGE:  cpu time    0.4989: real time    0.5057
    MIXING:  cpu time    0.0097: real time    0.0098
    --------------------------------------------
      LOOP:  cpu time   11.8748: real time   11.9698

 eigenvalue-minimisations  :  2971
 total energy-change (2. order) : 0.1532118E+02  (-0.2028875E+01)
 number of electron     292.9999984 magnetization       0.2529082
 augmentation part       12.1377626 magnetization       0.2734941

 Broyden mixing:
  rms(total) = 0.12016E+01    rms(broyden)= 0.12010E+01
  rms(prec ) = 0.13654E+01
  weight for this iteration     100.00

 eigenvalues of (default mixing * dielectric matrix)
  average eigenvalue GAMMA=   0.9108
  2.2279  0.7137  0.3508  0.3508

 Free energy of the ion-electron system (eV)
  ---------------------------------------------------
  alpha Z        PSCENC =       157.23023458
  Ewald energy   TEWEN  =     30444.73879575
  -Hartree energ DENC   =    -40511.44251169
  -exchange      EXHF   =         0.00000000
  -V(xc)+E(xc)   XCENC  =      1020.98324144
  PAW double counting   =     28463.99781767   -28566.21314268
  entropy T*S    EENTRO =        -0.00258344
  eigenvalues    EBANDS =     -3721.96168385
  atomic energy  EATOM  =     12065.27733323
  Solvation  Ediel_sol  =         0.00000000
  ---------------------------------------------------
  free energy    TOTEN  =      -647.39249898 eV

  energy without entropy =     -647.38991554  energy(sigma->0) =     -647.39120726


--------------------------------------------------------------------------------------------------------




--------------------------------------- Iteration      1(  10)  ---------------------------------------


    POTLOK:  cpu time    0.3917: real time    0.4005
    SETDIJ:  cpu time    0.0119: real time    0.0120
    EDDIAG:  cpu time    2.0562: real time    2.0713
  RMM-DIIS:  cpu time    8.5562: real time    8.6154
    ORTHCH:  cpu time    0.2650: real time    0.2656
       DOS:  cpu time    0.0010: real time    0.0010
    CHARGE:  cpu time    0.4500: real time    0.4574
    MIXING:  cpu time    0.0100: real time    0.0101
    --------------------------------------------
      LOOP:  cpu time   11.7420: real time   11.8333

 eigenvalue-minimisations  :  2996
 total energy-change (2. order) :-0.4201081E+00  (-0.3439683E+00)
 number of electron     292.9999982 magnetization       0.1976728
 augmentation part       13.7860790 magnetization       0.2283400

 Broyden mixing:
  rms(total) = 0.14704E+01    rms(broyden)= 0.14685E+01
  rms(prec ) = 0.18273E+01
  weight for this iteration     100.00

 eigenvalues of (default mixing * dielectric matrix)
  average eigenvalue GAMMA=   0.9249
  2.3471  1.1118  0.3466  0.3466  0.4727

 Free energy of the ion-electron system (eV)
  ---------------------------------------------------
  alpha Z        PSCENC =       157.23023458
  Ewald energy   TEWEN  =     30444.73879575
  -Hartree energ DENC   =    -40554.92467298
  -exchange      EXHF   =         0.00000000
  -V(xc)+E(xc)   XCENC  =      1021.92755368
  PAW double counting   =     30032.93927487   -30134.00072485
  entropy T*S    EENTRO =        -0.00154048
  eigenvalues    EBANDS =     -3680.99886091
  atomic energy  EATOM  =     12065.27733323
  Solvation  Ediel_sol  =         0.00000000
  ---------------------------------------------------
  free energy    TOTEN  =      -647.81260711 eV

  energy without entropy =     -647.81106663  energy(sigma->0) =     -647.81183687


--------------------------------------------------------------------------------------------------------




--------------------------------------- Iteration      1(  11)  ---------------------------------------


    POTLOK:  cpu time    0.4235: real time    0.4274
    SETDIJ:  cpu time    0.0125: real time    0.0126
    EDDIAG:  cpu time    2.0613: real time    2.0795
  RMM-DIIS:  cpu time    8.8919: real time    8.9573
    ORTHCH:  cpu time    0.2613: real time    0.2627
       DOS:  cpu time    0.0010: real time    0.0010
    CHARGE:  cpu time    0.4583: real time    0.4645
    MIXING:  cpu time    0.0092: real time    0.0092
    --------------------------------------------
      LOOP:  cpu time   12.1190: real time   12.2143

 eigenvalue-minimisations  :  3131
 total energy-change (2. order) : 0.1123787E+01  (-0.4140317E-01)
 number of electron     292.9999983 magnetization       0.1460330
 augmentation part       12.5857000 magnetization       0.1112185

 Broyden mixing:
  rms(total) = 0.75848E+00    rms(broyden)= 0.75599E+00
  rms(prec ) = 0.79665E+00
  weight for this iteration     100.00

 eigenvalues of (default mixing * dielectric matrix)
  average eigenvalue GAMMA=   0.9594
  2.0924  2.0057  0.5981  0.3451  0.3451  0.3702

 Free energy of the ion-electron system (eV)
  ---------------------------------------------------
  alpha Z        PSCENC =       157.23023458
  Ewald energy   TEWEN  =     30444.73879575
  -Hartree energ DENC   =    -40587.48034654
  -exchange      EXHF   =         0.00000000
  -V(xc)+E(xc)   XCENC  =      1022.31646114
  PAW double counting   =     30698.01880158   -30798.36675611
  entropy T*S    EENTRO =        -0.03957407
  eigenvalues    EBANDS =     -3648.38376933
  atomic energy  EATOM  =     12065.27733323
  Solvation  Ediel_sol  =         0.00000000
  ---------------------------------------------------
  free energy    TOTEN  =      -646.68881977 eV

  energy without entropy =     -646.64924570  energy(sigma->0) =     -646.66903273


--------------------------------------------------------------------------------------------------------




--------------------------------------- Iteration      1(  12)  ---------------------------------------


    POTLOK:  cpu time    0.4183: real time    0.4226
    SETDIJ:  cpu time    0.0121: real time    0.0121
    EDDIAG:  cpu time    2.0517: real time    2.0727
  RMM-DIIS:  cpu time    8.3568: real time    8.4167
    ORTHCH:  cpu time    0.2541: real time    0.2549
       DOS:  cpu time    0.0010: real time    0.0010
    CHARGE:  cpu time    0.4528: real time    0.4610
    MIXING:  cpu time    0.0092: real time    0.0094
    --------------------------------------------
      LOOP:  cpu time   11.5560: real time   11.6503

 eigenvalue-minimisations  :  2946
 total energy-change (2. order) : 0.4604502E-01  (-0.1632042E-01)
 number of electron     292.9999983 magnetization       0.1646923
 augmentation part       12.9614551 magnetization      -0.2473187

 Broyden mixing:
  rms(total) = 0.71986E+00    rms(broyden)= 0.71852E+00
  rms(prec ) = 0.75248E+00
  weight for this iteration     100.00

 eigenvalues of (default mixing * dielectric matrix)
  average eigenvalue GAMMA=   0.8418
  2.0858  2.0858  0.3461  0.3461  0.5268  0.3748  0.1275

 Free energy of the ion-electron system (eV)
  ---------------------------------------------------
  alpha Z        PSCENC =       157.23023458
  Ewald energy   TEWEN  =     30444.73879575
  -Hartree energ DENC   =    -40611.31244247
  -exchange      EXHF   =         0.00000000
  -V(xc)+E(xc)   XCENC  =      1021.87690487
  PAW double counting   =     31105.71355587   -31204.60351036
  entropy T*S    EENTRO =        -0.03931877
  eigenvalues    EBANDS =     -3625.52432745
  atomic energy  EATOM  =     12065.27733323
  Solvation  Ediel_sol  =         0.00000000
  ---------------------------------------------------
  free energy    TOTEN  =      -646.64277475 eV

  energy without entropy =     -646.60345598  energy(sigma->0) =     -646.62311537


--------------------------------------------------------------------------------------------------------




--------------------------------------- Iteration      1(  13)  ---------------------------------------


    POTLOK:  cpu time    0.4312: real time    0.4355
    SETDIJ:  cpu time    0.0122: real time    0.0123
    EDDIAG:  cpu time    2.0490: real time    2.0644
  RMM-DIIS:  cpu time    8.4296: real time    8.4966
    ORTHCH:  cpu time    0.1620: real time    0.1625
       DOS:  cpu time    0.0010: real time    0.0010
    CHARGE:  cpu time    0.4555: real time    0.4641
    MIXING:  cpu time    0.0089: real time    0.0089
    --------------------------------------------
      LOOP:  cpu time   11.5495: real time   11.6453

 eigenvalue-minimisations  :  2978
 total energy-change (2. order) :-0.8191909E-01  (-0.3002311E-02)
 number of electron     292.9999983 magnetization       0.0448473
 augmentation part       12.9782363 magnetization      -0.4259052

 Broyden mixing:
  rms(total) = 0.73311E+00    rms(broyden)= 0.73298E+00
  rms(prec ) = 0.76832E+00
  weight for this iteration     100.00

 eigenvalues of (default mixing * dielectric matrix)
  average eigenvalue GAMMA=   0.8298
  2.1157  2.1157  0.3789  0.3466  0.3466  0.5728  0.4580  0.3041

 Free energy of the ion-electron system (eV)
  ---------------------------------------------------
  alpha Z        PSCENC =       157.23023458
  Ewald energy   TEWEN  =     30444.73879575
  -Hartree energ DENC   =    -40613.08908580
  -exchange      EXHF   =         0.00000000
  -V(xc)+E(xc)   XCENC  =      1021.89885503
  PAW double counting   =     31110.10722012   -31208.91104504
  entropy T*S    EENTRO =        -0.02828320
  eigenvalues    EBANDS =     -3623.94871851
  atomic energy  EATOM  =     12065.27733323
  Solvation  Ediel_sol  =         0.00000000
  ---------------------------------------------------
  free energy    TOTEN  =      -646.72469384 eV

  energy without entropy =     -646.69641064  energy(sigma->0) =     -646.71055224


--------------------------------------------------------------------------------------------------------




--------------------------------------- Iteration      1(  14)  ---------------------------------------


    POTLOK:  cpu time    0.4006: real time    0.4044
    SETDIJ:  cpu time    0.0123: real time    0.0124
    EDDIAG:  cpu time    2.0538: real time    2.0678
  RMM-DIIS:  cpu time    8.4957: real time    8.5662
    ORTHCH:  cpu time    0.2895: real time    0.2924
       DOS:  cpu time    0.0010: real time    0.0010
    CHARGE:  cpu time    0.4901: real time    0.4988
    MIXING:  cpu time    0.0083: real time    0.0084
    --------------------------------------------
      LOOP:  cpu time   11.7513: real time   11.8514

 eigenvalue-minimisations  :  2972
 total energy-change (2. order) : 0.2512593E+00  (-0.3358221E-02)
 number of electron     292.9999983 magnetization       0.1413024
 augmentation part       12.9782787 magnetization      -0.2254841

 Broyden mixing:
  rms(total) = 0.73097E+00    rms(broyden)= 0.73092E+00
  rms(prec ) = 0.76508E+00
  weight for this iteration     100.00

 eigenvalues of (default mixing * dielectric matrix)
  average eigenvalue GAMMA=   0.8577
  2.2031  2.2031  0.5900  0.5900  0.6456  0.3455  0.3455  0.4719  0.3245

 Free energy of the ion-electron system (eV)
  ---------------------------------------------------
  alpha Z        PSCENC =       157.23023458
  Ewald energy   TEWEN  =     30444.73879575
  -Hartree energ DENC   =    -40612.88815050
  -exchange      EXHF   =         0.00000000
  -V(xc)+E(xc)   XCENC  =      1021.87072944
  PAW double counting   =     31199.41398417   -31298.08868165
  entropy T*S    EENTRO =        -0.04641429
  eigenvalues    EBANDS =     -3623.98126527
  atomic energy  EATOM  =     12065.27733323
  Solvation  Ediel_sol  =         0.00000000
  ---------------------------------------------------
  free energy    TOTEN  =      -646.47343454 eV

  energy without entropy =     -646.42702025  energy(sigma->0) =     -646.45022739


--------------------------------------------------------------------------------------------------------




--------------------------------------- Iteration      1(  15)  ---------------------------------------


    POTLOK:  cpu time    0.3788: real time    0.3830
    SETDIJ:  cpu time    0.0123: real time    0.0124
    EDDIAG:  cpu time    2.0128: real time    2.0269
  RMM-DIIS:  cpu time    8.5836: real time    8.6506
    ORTHCH:  cpu time    0.2652: real time    0.2664
       DOS:  cpu time    0.0010: real time    0.0010
    CHARGE:  cpu time    0.4553: real time    0.4632
    MIXING:  cpu time    0.0078: real time    0.0080
    --------------------------------------------
      LOOP:  cpu time   11.7169: real time   11.8116

 eigenvalue-minimisations  :  2995
 total energy-change (2. order) :-0.9749332E-01  (-0.1148445E-02)
 number of electron     292.9999983 magnetization      -0.0679076
 augmentation part       12.9473587 magnetization      -0.5249802

 Broyden mixing:
  rms(total) = 0.76585E+00    rms(broyden)= 0.76581E+00
  rms(prec ) = 0.79083E+00
  weight for this iteration     100.00

 eigenvalues of (default mixing * dielectric matrix)
  average eigenvalue GAMMA=   0.8207
  2.2003  2.2003  0.5569  0.5569  0.6547  0.3453  0.3453  0.4784  0.3279  0.5413

 Free energy of the ion-electron system (eV)
  ---------------------------------------------------
  alpha Z        PSCENC =       157.23023458
  Ewald energy   TEWEN  =     30444.73879575
  -Hartree energ DENC   =    -40614.09247304
  -exchange      EXHF   =         0.00000000
  -V(xc)+E(xc)   XCENC  =      1021.83404304
  PAW double counting   =     31207.05343807   -31305.68681084
  entropy T*S    EENTRO =        -0.03396424
  eigenvalues    EBANDS =     -3622.89152441
  atomic energy  EATOM  =     12065.27733323
  Solvation  Ediel_sol  =         0.00000000
  ---------------------------------------------------
  free energy    TOTEN  =      -646.57092786 eV

  energy without entropy =     -646.53696361  energy(sigma->0) =     -646.55394574


--------------------------------------------------------------------------------------------------------




--------------------------------------- Iteration      1(  16)  ---------------------------------------


    POTLOK:  cpu time    0.4030: real time    0.4076
    SETDIJ:  cpu time    0.0126: real time    0.0126
    EDDIAG:  cpu time    2.0866: real time    2.1042
  RMM-DIIS:  cpu time    8.3764: real time    8.4433
    ORTHCH:  cpu time    0.1722: real time    0.1729
       DOS:  cpu time    0.0009: real time    0.0009
    CHARGE:  cpu time    0.4861: real time    0.4931
    MIXING:  cpu time    0.0096: real time    0.0097
    --------------------------------------------
      LOOP:  cpu time   11.5475: real time   11.6444

 eigenvalue-minimisations  :  2971
 total energy-change (2. order) : 0.1077284E+00  (-0.7211309E-02)
 number of electron     292.9999983 magnetization      -0.3314687
 augmentation part       12.7679444 magnetization      -0.6925459

 Broyden mixing:
  rms(total) = 0.56633E+00    rms(broyden)= 0.56597E+00
  rms(prec ) = 0.57494E+00
  weight for this iteration     100.00

 eigenvalues of (default mixing * dielectric matrix)
  average eigenvalue GAMMA=   0.9897
  2.2056  2.2056  1.4348  1.1267  1.1267  0.3452  0.3452  0.6955  0.5351  0.5351
  0.3313

 Free energy of the ion-electron system (eV)
  ---------------------------------------------------
  alpha Z        PSCENC =       157.23023458
  Ewald energy   TEWEN  =     30444.73879575
  -Hartree energ DENC   =    -40620.97760806
  -exchange      EXHF   =         0.00000000
  -V(xc)+E(xc)   XCENC  =      1022.00746737
  PAW double counting   =     31201.42622082   -31300.04561339
  entropy T*S    EENTRO =        -0.03779512
  eigenvalues    EBANDS =     -3616.08223464
  atomic energy  EATOM  =     12065.27733323
  Solvation  Ediel_sol  =         0.00000000
  ---------------------------------------------------
  free energy    TOTEN  =      -646.46319946 eV

  energy without entropy =     -646.42540434  energy(sigma->0) =     -646.44430190


--------------------------------------------------------------------------------------------------------




--------------------------------------- Iteration      1(  17)  ---------------------------------------


    POTLOK:  cpu time    0.3879: real time    0.3922
    SETDIJ:  cpu time    0.0122: real time    0.0123
    EDDIAG:  cpu time    2.0376: real time    2.0533
  RMM-DIIS:  cpu time    8.2972: real time    8.3619
    ORTHCH:  cpu time    0.1517: real time    0.1525
       DOS:  cpu time    0.0024: real time    0.0025
    CHARGE:  cpu time    0.4585: real time    0.4652
    MIXING:  cpu time    0.0094: real time    0.0095
    --------------------------------------------
      LOOP:  cpu time   11.3569: real time   11.4493

 eigenvalue-minimisations  :  2948
 total energy-change (2. order) : 0.3628494E+00  (-0.5647941E-01)
 number of electron     292.9999983 magnetization      -0.5382626
 augmentation part       12.8817970 magnetization      -0.9462394

 Broyden mixing:
  rms(total) = 0.51998E+00    rms(broyden)= 0.51962E+00
  rms(prec ) = 0.53982E+00
  weight for this iteration     100.00

 eigenvalues of (default mixing * dielectric matrix)
  average eigenvalue GAMMA=   0.9622
  1.6256  2.1758  2.1758  1.2158  1.2158  0.6651  0.3451  0.3451  0.5076  0.5076
  0.4387  0.3285

 Free energy of the ion-electron system (eV)
  ---------------------------------------------------
  alpha Z        PSCENC =       157.23023458
  Ewald energy   TEWEN  =     30444.73879575
  -Hartree energ DENC   =    -40641.20492848
  -exchange      EXHF   =         0.00000000
  -V(xc)+E(xc)   XCENC  =      1022.75393020
  PAW double counting   =     31147.68058213   -31246.31459204
  entropy T*S    EENTRO =        -0.04368842
  eigenvalues    EBANDS =     -3596.21801697
  atomic energy  EATOM  =     12065.27733323
  Solvation  Ediel_sol  =         0.00000000
  ---------------------------------------------------
  free energy    TOTEN  =      -646.10035003 eV

  energy without entropy =     -646.05666161  energy(sigma->0) =     -646.07850582


--------------------------------------------------------------------------------------------------------




--------------------------------------- Iteration      1(  18)  ---------------------------------------


    POTLOK:  cpu time    0.3812: real time    0.3876
    SETDIJ:  cpu time    0.0122: real time    0.0123
    EDDIAG:  cpu time    2.0478: real time    2.0629
  RMM-DIIS:  cpu time    8.5684: real time    8.6328
    ORTHCH:  cpu time    0.2114: real time    0.2124
       DOS:  cpu time    0.0011: real time    0.0011
    CHARGE:  cpu time    0.4948: real time    0.5027
    MIXING:  cpu time    0.0097: real time    0.0097
    --------------------------------------------
      LOOP:  cpu time   11.7264: real time   11.8214

 eigenvalue-minimisations  :  3047
 total energy-change (2. order) : 0.5791497E+00  (-0.3402157E-01)
 number of electron     292.9999983 magnetization      -0.5409489
 augmentation part       13.0959746 magnetization      -0.6063881

 Broyden mixing:
  rms(total) = 0.60051E+00    rms(broyden)= 0.59978E+00
  rms(prec ) = 0.69012E+00
  weight for this iteration     100.00

 eigenvalues of (default mixing * dielectric matrix)
  average eigenvalue GAMMA=   0.8983
  2.2004  2.2004  1.5956  1.0630  1.0630  0.7247  0.3452  0.3452  0.5106  0.5106
  0.3317  0.3940  0.3940

 Free energy of the ion-electron system (eV)
  ---------------------------------------------------
  alpha Z        PSCENC =       157.23023458
  Ewald energy   TEWEN  =     30444.73879575
  -Hartree energ DENC   =    -40646.08916159
  -exchange      EXHF   =         0.00000000
  -V(xc)+E(xc)   XCENC  =      1023.27863700
  PAW double counting   =     31128.37349232   -31227.00193417
  entropy T*S    EENTRO =        -0.06002937
  eigenvalues    EBANDS =     -3591.26856807
  atomic energy  EATOM  =     12065.27733323
  Solvation  Ediel_sol  =         0.00000000
  ---------------------------------------------------
  free energy    TOTEN  =      -645.52120032 eV

  energy without entropy =     -645.46117095  energy(sigma->0) =     -645.49118564


--------------------------------------------------------------------------------------------------------




--------------------------------------- Iteration      1(  19)  ---------------------------------------


    POTLOK:  cpu time    0.4043: real time    0.4091
    SETDIJ:  cpu time    0.0118: real time    0.0118
    EDDIAG:  cpu time    2.0527: real time    2.0694
  RMM-DIIS:  cpu time    8.5139: real time    8.5810
    ORTHCH:  cpu time    0.2934: real time    0.2989
       DOS:  cpu time    0.0011: real time    0.0010
    CHARGE:  cpu time    0.4573: real time    0.4647
    MIXING:  cpu time    0.0089: real time    0.0092
    --------------------------------------------
      LOOP:  cpu time   11.7434: real time   11.8451

 eigenvalue-minimisations  :  3015
 total energy-change (2. order) :-0.4093193E+00  (-0.5936157E-02)
 number of electron     292.9999983 magnetization      -0.4399336
 augmentation part       12.9630968 magnetization      -0.2968891

 Broyden mixing:
  rms(total) = 0.51517E+00    rms(broyden)= 0.51418E+00
  rms(prec ) = 0.55726E+00
  weight for this iteration     100.00

 eigenvalues of (default mixing * dielectric matrix)
  average eigenvalue GAMMA=   0.8527
  2.2021  2.2021  1.4518  0.8693  0.8693  0.5344  0.5344  0.3452  0.3452  0.6157
  0.6157  0.5108  0.5108  0.3314

 Free energy of the ion-electron system (eV)
  ---------------------------------------------------
  alpha Z        PSCENC =       157.23023458
  Ewald energy   TEWEN  =     30444.73879575
  -Hartree energ DENC   =    -40645.27907082
  -exchange      EXHF   =         0.00000000
  -V(xc)+E(xc)   XCENC  =      1022.92146619
  PAW double counting   =     31150.92808696   -31249.60783333
  entropy T*S    EENTRO =        -0.07523281
  eigenvalues    EBANDS =     -3592.06429937
  atomic energy  EATOM  =     12065.27733323
  Solvation  Ediel_sol  =         0.00000000
  ---------------------------------------------------
  free energy    TOTEN  =      -645.93051961 eV

  energy without entropy =     -645.85528680  energy(sigma->0) =     -645.89290320


--------------------------------------------------------------------------------------------------------




--------------------------------------- Iteration      1(  20)  ---------------------------------------


    POTLOK:  cpu time    0.4013: real time    0.4100
    SETDIJ:  cpu time    0.0426: real time    0.0427
    EDDIAG:  cpu time    2.0191: real time    2.0369
  RMM-DIIS:  cpu time    8.4312: real time    8.4915
    ORTHCH:  cpu time    0.2193: real time    0.2198
       DOS:  cpu time    0.0010: real time    0.0010
    CHARGE:  cpu time    0.4609: real time    0.4693
    MIXING:  cpu time    0.0104: real time    0.0104
    --------------------------------------------
      LOOP:  cpu time   11.5858: real time   11.6815

 eigenvalue-minimisations  :  2958
 total energy-change (2. order) :-0.4472720E+00  (-0.1544166E-01)
 number of electron     292.9999983 magnetization      -0.1789067
 augmentation part       12.9815331 magnetization       0.1323682

 Broyden mixing:
  rms(total) = 0.69253E+00    rms(broyden)= 0.69199E+00
  rms(prec ) = 0.73073E+00
  weight for this iteration     100.00

 eigenvalues of (default mixing * dielectric matrix)
  average eigenvalue GAMMA=   0.8267
  2.2045  2.2045  1.2805  0.8750  0.8750  0.5137  0.5137  0.6975  0.6205  0.6205
  0.3452  0.3452  0.5261  0.4461  0.3319

 Free energy of the ion-electron system (eV)
  ---------------------------------------------------
  alpha Z        PSCENC =       157.23023458
  Ewald energy   TEWEN  =     30444.73879575
  -Hartree energ DENC   =    -40644.55483037
  -exchange      EXHF   =         0.00000000
  -V(xc)+E(xc)   XCENC  =      1022.57749713
  PAW double counting   =     31157.94192911   -31256.62257230
  entropy T*S    EENTRO =        -0.05583048
  eigenvalues    EBANDS =     -3592.91034828
[...]
  Hartree 40004.17429 39980.83197-39215.52432    -3.74977    -6.27623     2.24689
  E(xc)   -1111.05931 -1110.71922 -1150.18745    -0.01153    -0.00238    -0.00211
  Local  -83748.88824-83747.61640 86089.01033     9.64903    14.15643    -4.63906
  n-local  -289.28038  -286.60486  -269.84679     0.22714    -0.02919    -0.02162
  augment    66.57357    64.93995    65.48944     0.04985     0.06000    -0.02271
  Kinetic  4383.45709  4370.55868  4984.55544     0.22454     0.50279    -0.12728
  Fock        0.00000     0.00000     0.00000     0.00000     0.00000     0.00000
  vdW        -1.51031    -1.66398    -0.04118    -0.00840     0.00025     0.00058
  -------------------------------------------------------------------------------------
  Total      -1.77753    -1.47012    -3.49814    -0.11930    -0.00560    -0.00742
  in kB      -1.00168    -0.82845    -1.97129    -0.06723    -0.00315    -0.00418
  external pressure =       -1.27 kB  Pullay stress =        0.00 kB


 VOLUME and BASIS-vectors are now :
 -----------------------------------------------------------------------------
  energy-cutoff  :      440.00
  volume of cell :     2843.14
      direct lattice vectors                 reciprocal lattice vectors
    14.858866394  0.000814954  0.000000000     0.067297735  0.039196617  0.000000000
    -7.429433197 12.755795406  0.000000000    -0.000004300  0.078393234  0.000000000
     0.000000000  0.000000000 15.000000000     0.000000000  0.000000000  0.066666667

  length of vectors
    14.858866416 14.761666372 15.000000000     0.077880421  0.078393234  0.066666667


 FORCES acting on ions
    electron-ion (+dipol)            ewald-force                    non-local-force                 convergence-correction
 -----------------------------------------------------------------------------------------------
   0.120E+01 0.648E+00 0.786E+01   -.117E+01 -.653E+00 -.788E+01   -.303E-01 0.713E-02 0.288E-01   -.149E-04 -.233E-05 -.118E-04
   -.273E+01 -.460E+00 0.767E+01   0.287E+01 0.511E+00 -.770E+01   -.138E+00 -.613E-01 0.240E-01   0.163E-04 0.407E-05 -.109E-04
   0.938E+00 0.798E+00 0.733E+01   -.106E+01 -.656E+00 -.736E+01   0.104E+00 -.143E+00 0.257E-01   0.432E-05 0.200E-04 -.423E-05
   -.121E+01 0.318E+00 0.753E+01   0.118E+01 -.204E+00 -.754E+01   0.323E-01 -.120E+00 0.633E-02   -.648E-05 0.270E-04 -.237E-04
   0.371E+01 0.112E+01 0.662E+01   -.430E+01 -.710E+00 -.665E+01   0.572E+00 -.423E+00 0.201E-01   -.254E-06 0.174E-04 -.554E-05
   0.607E+01 -.169E+01 0.691E+01   -.639E+01 0.195E+01 -.691E+01   0.324E+00 -.262E+00 0.817E-03   0.810E-05 0.214E-04 -.240E-04
   0.212E+02 -.134E+02 0.754E+01   -.264E+02 0.165E+02 -.758E+01   0.528E+01 -.310E+01 0.372E-01   0.262E-04 -.693E-05 -.171E-04
   0.825E+01 -.874E+01 0.767E+01   -.864E+01 0.102E+02 -.770E+01   0.382E+00 -.146E+01 0.263E-01   -.361E-05 -.117E-04 -.138E-04
   -.254E+02 -.134E+02 0.767E+01   0.309E+02 0.163E+02 -.772E+01   -.548E+01 -.294E+01 0.434E-01   0.859E-05 -.410E-04 -.297E-04
   -.692E+01 -.939E+01 0.739E+01   0.726E+01 0.106E+02 -.742E+01   -.321E+00 -.123E+01 0.272E-01   -.202E-05 -.407E-04 -.810E-05
   -.175E+01 -.140E+00 0.701E+01   0.227E+01 0.331E+00 -.703E+01   -.499E+00 -.192E+00 0.108E-01   -.247E-04 -.422E-04 -.272E-04
   -.421E+01 -.231E+01 0.654E+01   0.447E+01 0.235E+01 -.656E+01   -.271E+00 -.381E-01 0.164E-01   -.992E-05 -.328E-04 -.661E-05
   0.631E+00 0.350E+01 0.681E+01   -.488E+00 -.347E+01 -.681E+01   -.142E+00 -.358E-01 0.482E-02   0.290E-05 -.791E-06 -.728E-05
   0.424E+00 0.237E+01 0.644E+01   -.325E+00 -.235E+01 -.647E+01   -.942E-01 -.227E-02 0.233E-01   0.704E-05 0.236E-04 -.157E-04
   0.213E+01 0.459E+01 0.880E+01   -.207E+01 -.443E+01 -.883E+01   -.603E-01 -.187E+00 0.260E-01   0.232E-04 0.145E-04 -.304E-04
   -.182E+01 0.712E+01 0.994E+01   0.231E+01 -.687E+01 -.100E+02   -.500E+00 -.245E+00 0.837E-01   0.410E-04 0.183E-04 -.698E-04
   0.858E+00 0.600E+01 0.731E+01   -.103E+01 -.552E+01 -.734E+01   0.171E+00 -.515E+00 0.255E-01   0.226E-05 0.452E-04 -.443E-04
   0.798E+00 0.595E+01 0.588E+01   -.844E+00 -.521E+01 -.549E+01   0.588E-01 -.740E+00 -.388E+00   -.100E-05 0.720E-04 -.101E-03
   -.617E+00 0.988E+00 0.827E+01   -.882E-02 -.497E+00 -.829E+01   0.620E+00 -.487E+00 0.158E-01   -.185E-04 0.109E-04 -.305E-04
   0.348E+01 0.601E+01 0.984E+01   -.406E+01 -.554E+01 -.992E+01   0.611E+00 -.466E+00 0.806E-01   -.401E-04 0.187E-04 -.666E-04
   -.164E+01 -.451E+01 0.782E+01   0.168E+01 0.530E+01 -.784E+01   -.453E-01 -.802E+00 0.144E-01   0.264E-06 -.169E-04 -.912E-05
   -.160E+01 -.112E+01 0.809E+01   0.155E+01 0.160E+01 -.812E+01   0.430E-01 -.456E+00 0.288E-01   0.191E-05 0.117E-04 -.158E-04
   -.103E+01 -.131E+01 0.598E+01   0.160E+01 0.159E+01 -.597E+01   -.572E+00 -.268E+00 -.167E-01   -.124E-04 -.317E-04 -.116E-05
   -.186E+01 0.107E+01 0.597E+01   0.194E+01 -.900E+00 -.600E+01   -.819E-01 -.156E+00 0.203E-01   -.719E-05 0.578E-05 0.222E-05
   0.169E+01 0.197E+01 0.520E+01   -.155E+01 -.193E+01 -.518E+01   -.130E+00 -.332E-01 -.226E-01   0.264E-04 0.593E-05 -.488E-05
   0.257E+01 0.482E+01 0.563E+01   -.254E+01 -.481E+01 -.566E+01   -.381E-01 0.479E-02 0.271E-01   0.440E-04 -.926E-05 -.107E-04
   0.449E+01 0.995E+01 0.685E+01   -.423E+01 -.100E+02 -.682E+01   -.270E+00 0.562E-01 -.271E-01   0.139E-04 0.338E-04 -.520E-04
   0.116E+02 0.751E+01 0.532E+01   -.114E+02 -.746E+01 -.543E+01   -.252E+00 -.476E-01 0.113E+00   0.307E-04 0.489E-04 -.770E-04
   -.131E+01 0.177E+02 0.119E+02   0.154E+01 -.168E+02 -.121E+02   -.215E+00 -.957E+00 0.209E+00   0.622E-04 0.463E-04 -.134E-03
   -.822E+01 0.354E+02 0.271E+02   0.145E+02 -.319E+02 -.264E+02   -.627E+01 -.352E+01 -.777E+00   0.824E-04 0.483E-04 -.201E-03
   0.160E+01 0.171E+02 0.111E+02   -.196E+01 -.160E+02 -.114E+02   0.348E+00 -.106E+01 0.208E+00   -.584E-04 0.420E-04 -.127E-03
   0.852E+01 0.345E+02 0.228E+02   -.147E+02 -.309E+02 -.219E+02   0.626E+01 -.359E+01 -.910E+00   -.851E-04 0.452E-04 -.185E-03
   -.395E+01 0.751E+01 0.788E+01   0.364E+01 -.738E+01 -.785E+01   0.314E+00 -.135E+00 -.352E-01   -.240E-04 0.267E-04 -.494E-04
   -.117E+02 0.558E+01 0.693E+01   0.114E+02 -.538E+01 -.704E+01   0.300E+00 -.226E+00 0.121E+00   -.350E-04 0.389E-04 -.737E-04
   -.195E+01 0.772E+00 0.663E+01   0.199E+01 -.642E+00 -.661E+01   -.494E-01 -.132E+00 -.201E-01   -.232E-04 -.304E-05 -.467E-05
   -.371E+01 0.325E+01 0.753E+01   0.369E+01 -.317E+01 -.757E+01   0.343E-01 -.789E-01 0.414E-01   -.371E-04 -.197E-04 -.102E-04
   0.763E+00 0.263E+00 0.642E+01   -.730E+00 -.278E+00 -.645E+01   -.334E-01 -.513E-03 0.161E-01   0.845E-05 -.159E-05 -.350E-05
   0.838E+00 -.133E+00 0.634E+01   -.904E+00 0.599E-01 -.636E+01   0.709E-01 0.849E-01 0.141E-01   0.165E-04 0.177E-04 -.339E-05
   0.581E+01 0.134E+01 0.376E+01   -.574E+01 -.147E+01 -.371E+01   -.578E-01 0.104E+00 -.448E-01   0.617E-04 0.149E-04 -.384E-04
   0.486E+01 0.146E+01 0.388E+01   -.491E+01 -.163E+01 -.385E+01   0.587E-01 0.179E+00 -.427E-01   0.552E-04 -.466E-05 -.390E-04
   0.249E+02 0.964E+01 0.133E+02   -.240E+02 -.102E+02 -.139E+02   -.854E+00 0.622E+00 0.566E+00   0.305E-04 0.611E-04 -.158E-03
   0.242E+02 -.352E+01 0.139E+02   -.233E+02 0.368E+01 -.145E+02   -.888E+00 -.154E+00 0.546E+00   0.392E-04 -.149E-04 -.155E-03
   -.252E+02 0.778E+01 0.124E+02   0.242E+02 -.823E+01 -.129E+02   0.892E+00 0.454E+00 0.537E+00   -.381E-04 0.456E-04 -.152E-03
   -.258E+02 -.795E+01 0.129E+02   0.249E+02 0.836E+01 -.134E+02   0.844E+00 -.435E+00 0.512E+00   -.539E-04 -.288E-04 -.157E-03
   -.483E+01 -.237E+00 0.661E+01   0.475E+01 0.263E+00 -.657E+01   0.719E-01 -.358E-01 -.271E-01   -.597E-04 0.501E-05 -.365E-04
   -.496E+01 -.642E+00 0.659E+01   0.486E+01 0.657E+00 -.656E+01   0.865E-01 -.346E-02 -.200E-01   -.526E-04 -.152E-04 -.373E-04
   -.279E+01 -.402E+01 0.737E+01   0.272E+01 0.400E+01 -.741E+01   0.827E-01 0.828E-02 0.381E-01   -.220E-04 0.577E-05 -.100E-04
   -.103E+01 -.273E+01 0.658E+01   0.869E+00 0.274E+01 -.656E+01   0.165E+00 -.853E-02 -.190E-01   -.246E-04 -.377E-05 -.418E-05
   0.557E+01 -.312E+01 0.548E+01   -.562E+01 0.296E+01 -.552E+01   0.377E-01 0.152E+00 0.282E-01   0.386E-04 0.508E-05 -.109E-04
   0.541E+01 -.979E+00 0.523E+01   -.580E+01 0.757E+00 -.522E+01   0.376E+00 0.220E+00 -.192E-01   0.406E-04 -.109E-04 -.551E-05
   0.146E+02 -.362E+01 0.660E+01   -.144E+02 0.283E+01 -.674E+01   -.274E+00 0.775E+00 0.139E+00   0.614E-04 -.247E-04 -.767E-04
   0.848E+01 0.471E+00 0.718E+01   -.929E+01 -.139E+01 -.715E+01   0.805E+00 0.911E+00 -.359E-01   0.492E-04 -.173E-04 -.539E-04
   -.998E+01 -.304E+02 0.227E+02   0.165E+02 0.262E+02 -.217E+02   -.653E+01 0.427E+01 -.100E+01   0.688E-04 -.167E-04 -.190E-03
   -.621E+01 -.853E+01 0.106E+02   0.750E+01 0.650E+01 -.107E+02   -.127E+01 0.203E+01 0.114E+00   0.471E-04 -.454E-04 -.132E-03
   0.559E+01 -.342E+02 0.251E+02   -.118E+02 0.304E+02 -.243E+02   0.627E+01 0.376E+01 -.846E+00   -.902E-04 -.288E-04 -.204E-03
   -.275E+01 -.153E+02 0.113E+02   0.287E+01 0.140E+02 -.116E+02   -.105E+00 0.123E+01 0.221E+00   -.686E-04 -.429E-04 -.138E-03
   -.121E+02 -.632E+01 0.733E+01   0.119E+02 0.621E+01 -.745E+01   0.242E+00 0.116E+00 0.121E+00   -.536E-04 -.289E-04 -.762E-04
   -.486E+01 -.944E+01 0.788E+01   0.471E+01 0.946E+01 -.785E+01   0.131E+00 -.256E-01 -.285E-01   -.404E-04 -.131E-04 -.536E-04
   -.154E+01 -.264E+01 0.796E+01   0.147E+01 0.270E+01 -.799E+01   0.650E-01 -.760E-01 0.319E-01   -.224E-04 -.188E-04 -.161E-04
   -.169E+01 -.460E+01 0.775E+01   0.170E+01 0.465E+01 -.776E+01   -.166E-01 -.381E-01 0.627E-02   -.501E-05 -.199E-05 -.680E-05
   0.233E+01 -.128E+01 0.607E+01   -.251E+01 0.131E+01 -.610E+01   0.176E+00 -.474E-01 0.232E-01   0.100E-04 0.225E-05 0.280E-05
   0.183E+01 -.328E+01 0.601E+01   -.207E+01 0.332E+01 -.600E+01   0.231E+00 -.470E-01 -.146E-01   0.845E-05 0.204E-04 0.906E-06
   0.924E+01 0.652E+00 0.660E+01   -.991E+01 -.106E+01 -.663E+01   0.672E+00 0.407E+00 0.226E-01   0.318E-04 -.258E-04 -.185E-04
   0.126E+02 -.528E+01 0.683E+01   -.140E+02 0.493E+01 -.685E+01   0.140E+01 0.363E+00 0.145E-01   0.196E-04 -.822E-05 -.105E-04
   -.137E+01 0.195E+02 0.939E+01   0.190E+01 -.259E+02 -.930E+01   -.548E+00 0.647E+01 -.841E-01   0.367E-04 -.351E-04 -.727E-04
   0.204E+01 -.572E+01 0.109E+02   -.211E+01 0.559E+01 -.111E+02   0.497E-01 0.161E+00 0.164E+00   0.439E-04 -.419E-04 -.469E-04
   -.664E+01 -.236E+01 0.611E+01   0.732E+01 0.122E+01 -.571E+01   -.701E+00 0.114E+01 -.392E+00   -.144E-04 -.621E-04 -.106E-03
   -.106E+02 -.769E+01 0.770E+01   0.120E+02 0.684E+01 -.772E+01   -.136E+01 0.882E+00 0.188E-01   -.156E-04 -.516E-04 -.500E-04
   -.278E+00 -.587E+01 0.969E+01   -.746E-01 0.559E+01 -.978E+01   0.347E+00 0.260E+00 0.863E-01   -.452E-04 -.277E-04 -.728E-04
   -.418E+01 -.569E+01 0.819E+01   0.433E+01 0.552E+01 -.821E+01   -.137E+00 0.181E+00 0.149E-01   -.384E-04 -.353E-04 -.329E-04
   -.854E+00 0.459E+01 -.624E+03   0.999E+00 -.458E+01 0.606E+03   -.156E+00 -.210E-01 0.179E+02   -.264E-04 0.627E-05 -.670E-04
 -----------------------------------------------------------------------------------------------
   -.132E+00 0.166E+00 -.176E+02   -.754E-13 -.647E-12 0.114E-12   0.133E+00 -.161E+00 0.176E+02   -.581E-05 -.341E-04 -.373E-02
 
 
 POSITION                                       TOTAL-FORCE (eV/Angst)
 -----------------------------------------------------------------------------------
      7.42892     12.75507      7.46473         0.004654      0.003019      0.001936
      0.00041      1.42031      7.46580        -0.001072     -0.012324     -0.000325
      2.48399      0.02559      7.46313        -0.012562      0.000661     -0.001700
      2.48012      1.44640      7.47381         0.004144     -0.004525     -0.000582
      4.96258      0.02691      7.46610        -0.026367     -0.008406     -0.003020
      4.95720      1.44444      7.47585         0.003668      0.000944     -0.001441
      0.01340     12.74750      7.46689         0.001236      0.000387      0.001775
      7.44103      1.41120      7.46546         0.001897     -0.013196      0.001907
      2.46739     12.72221      7.47372        -0.005563     -0.000112     -0.000091
      9.90067      1.38328      7.46327         0.011234      0.001255     -0.001942
      4.94365     12.72979      7.47547         0.022732     -0.002733     -0.004932
     12.37832      1.39257      7.46615        -0.006842     -0.001008     -0.005304
     13.61454      2.11180      7.46730         0.002595     -0.005884     -0.002534
     -1.24871      3.52962      7.47734         0.005140      0.015560     -0.000958
      1.23885      2.14440      7.47532        -0.000774     -0.025267      0.003235
      1.23652      3.56855      7.50128        -0.011847      0.007582      0.002777
      3.71809      2.17089      7.49100         0.000159     -0.033158     -0.002109
      3.71717      3.58874      7.53744         0.012657      0.010935     -0.002083
      6.19873      2.13464      7.47631        -0.009187      0.008041      0.000430
      6.19951      3.56202      7.50046         0.027502      0.006354     -0.000320
      8.67653      2.11361      7.46307        -0.007139     -0.011384      0.002706
      8.68058      3.52777      7.47028        -0.001575      0.012504      0.002586
     11.14279      2.09521      7.46435         0.003451      0.020724     -0.002655
     11.14315      3.52008      7.46643         0.001270      0.014170     -0.005890
     12.37615      4.23629      7.47475         0.013130      0.007118     -0.004492
     -2.48737      5.66174      7.48142        -0.006782      0.010133     -0.003642
     -0.01480      4.24745      7.50054        -0.008722      0.002374      0.003984
     -0.03932      5.66439      7.52714        -0.014566     -0.006713      0.001319
      2.47318      4.31060      7.55091         0.033251      0.007769     -0.003062
      2.42811      5.72481      7.63746        -0.010750     -0.009777     -0.006735
      4.96287      4.30643      7.55303        -0.022082     -0.000066      0.003991
      5.00775      5.71995      7.64598         0.014581     -0.014447      0.019725
      7.44733      4.24474      7.49496         0.001850     -0.011516      0.004353
      7.47223      5.66148      7.51986         0.022460     -0.025340      0.004449
      9.91552      4.23687      7.46862        -0.008960     -0.002728     -0.001578
      9.92019      5.66041      7.47365         0.022693      0.005548     -0.000044
     -3.71148      6.37580      7.47384        -0.000824     -0.017284     -0.005765
     -3.71156      7.79765      7.47403         0.004321      0.013406     -0.002726
     -1.26610      6.37908      7.50539         0.008495     -0.021408      0.000455
     -1.26525      7.80245      7.50476         0.005368      0.007812     -0.007031
      1.18018      6.37243      7.57913         0.038563      0.013993     -0.005552
      1.17785      7.80991      7.57853         0.041256      0.009826      0.010849
      6.25350      6.36831      7.57991        -0.031131      0.002984      0.000350
      6.25239      7.80574      7.57858        -0.037682     -0.011427     -0.009706
      8.70081      6.37559      7.49373        -0.009539     -0.010865      0.008161
      8.70023      7.79832      7.49364        -0.003765      0.012920      0.007656
     -4.93783      8.51290      7.47396         0.011563     -0.011169      0.002777
     -4.94390      9.93726      7.46866         0.007542      0.007884     -0.000862
     -2.48494      8.51207      7.48162        -0.012793     -0.003584     -0.006842
     -2.47887      9.93736      7.47456        -0.010797      0.000287     -0.007413
     -0.03394      8.51932      7.52443        -0.027638     -0.006963     -0.006091
     -0.01222      9.94078      7.49930        -0.000658      0.006988     -0.001633
      2.41972      8.46535      7.64588        -0.012378      0.005784      0.041429
      2.46569      9.87941      7.55387         0.023662      0.007212      0.020894
      5.00315      8.44963      7.64274         0.006946      0.010139     -0.016205
      4.95615      9.86598      7.55232        -0.001397     -0.016027     -0.008630
      7.47181      8.51256      7.51870         0.016506      0.007262      0.001019
      7.44695      9.92986      7.49465        -0.013221      0.004025      0.001648
     -6.17863     10.64515      7.47039        -0.002978     -0.006008      0.002576
     -6.18318     12.06336      7.46292        -0.005658      0.006103     -0.000197
     -3.71124     10.65145      7.46614        -0.000223     -0.017112     -0.004636
     -3.70681     12.07123      7.46417        -0.007953     -0.005995     -0.003976
     -1.24841     10.64232      7.47690         0.006757      0.001849     -0.004019
     -1.22919     12.05949      7.46753         0.013189      0.011477     -0.002506
      1.23586     10.62129      7.50196        -0.012821      0.008805      0.006433
      1.23773     12.03125      7.47575        -0.009221      0.026631      0.002537
      3.71904     10.58467      7.53720        -0.030026     -0.007938      0.003261
      3.70354     12.00004      7.49021        -0.004215      0.032784     -0.004111
      6.19485     10.60915      7.50055        -0.007969     -0.019629     -0.002089
      6.18755     12.03100      7.47641         0.013838      0.015017     -0.001670
      3.71435      7.09124      8.31830        -0.010631     -0.004270     -0.008120
 -----------------------------------------------------------------------------------
    total drift:                                0.001534      0.004541      0.001607


--------------------------------------------------------------------------------------------------------



  FREE ENERGIE OF THE ION-ELECTRON SYSTEM (eV)
  ---------------------------------------------------
  free  energy   TOTEN  =      -653.54686243 eV

  energy  without entropy=     -653.51706931  energy(sigma->0) =     -653.53196587
 
 d Force = 0.5115266E-03[ 0.203E-03, 0.820E-03]  d Energy = 0.5160200E-03-0.449E-05
 d Force = 0.5089843E+00[ 0.509E+00, 0.509E+00]  d Ewald  = 0.5089839E+00 0.460E-06


--------------------------------------------------------------------------------------------------------


    POTLOK:  cpu time    0.4265: real time    0.4283


--------------------------------------------------------------------------------------------------------


 stress matrix after NEB project (eV)
     -1.77753     -0.11930     -0.00742
     -0.11930     -1.47012     -0.00560
     -0.00742     -0.00560     -3.49814
  FORCES: max atom, RMS     0.043775    0.020964
  FORCE total and by dimension    0.176650    0.041429
  Stress total and by dimension    4.193628    3.498143


--------------------------------------------------------------------------------------------------------


  
 reached required accuracy - stopping structural energy minimisation
     LOOP+:  cpu time  101.9724: real time  102.7282
    4ORBIT:  cpu time    0.0000: real time    0.0000

 total amount of memory used by VASP MPI-rank0   111600. kBytes
=======================================================================

   base      :      30000. kBytes
   nonlr-proj:       9915. kBytes
   fftplans  :      10852. kBytes
   grid      :      30996. kBytes
   one-center:        186. kBytes
   wavefun   :      29651. kBytes
 
  
  
 General timing and accounting informations for this job:
 ========================================================
  
                  Total CPU time used (sec):     1756.257
                            User time (sec):     1745.187
                          System time (sec):       11.070
                         Elapsed time (sec):     1776.091
  
                   Maximum memory used (kb):      488276.
                   Average memory used (kb):           0.
  
                          Minor page faults:      1997849
                          Major page faults:            0
                 Voluntary context switches:        11520
