 vasp.5.4.4.18Apr17-6-g9f103f2a35 (build Jan 14 2022 15:04:31) complex          
  
 executed on             LinuxIFC date 2023.04.05  11:31:15
 running on   48 total cores
 distrk:  each k-point on   48 cores,    1 groups
 distr:  one band on NCORES_PER_BAND=  12 cores,    4 groups


--------------------------------------------------------------------------------------------------------


 INCAR:
 POTCAR:    PAW_PBE C 08Apr2002                   
 POTCAR:    PAW_PBE N 08Apr2002                   
 POTCAR:    PAW_PBE Ge_d 03Jul2007                
 POTCAR:    PAW_PBE C 08Apr2002                   
   SHA256 =  253f7b50bb8d59471dbedb8285d89021f4a42ed1a2c5d38a03a736e69125dd95 C/
   COPYR  = (c) Copyright 08Apr2002 Georg Kresse                                
   COPYR  = This file is part of the software VASP. Any use, copying, and all ot
   COPYR  = If you do not have a valid VASP license, you may not use, copy or di
   VRHFIN =C: s2p2                                                              
   LEXCH  = PE                                                                  
   EATOM  =   147.1560 eV,   10.8157 Ry                                         
                                                                                
   TITEL  = PAW_PBE C 08Apr2002                                                 
   LULTRA =        F    use ultrasoft PP ?                                      
   IUNSCR =        1    unscreen: 0-lin 1-nonlin 2-no                           
   RPACOR =    1.200    partial core radius                                     
   POMASS =   12.011; ZVAL   =    4.000    mass and valenz                      
   RCORE  =    1.500    outmost cutoff radius                                   
   RWIGS  =    1.630; RWIGS  =    0.863    wigner-seitz radius (au A)           
   ENMAX  =  400.000; ENMIN  =  300.000 eV                                      
   ICORE  =        2    local potential                                         
   LCOR   =        T    correct aug charges                                     
   LPAW   =        T    paw PP                                                  
   EAUG   =  644.873                                                            
   DEXC   =    0.000                                                            
   RMAX   =    1.529    core radius for proj-oper                               
   RAUG   =    1.300    factor for augmentation sphere                          
   RDEP   =    1.501    radius for radial grids                                 
   RDEPT  =    1.300    core radius for aug-charge                              
                                                                                
   Atomic configuration                                                         
    4 entries                                                                   
     n  l   j            E        occ.                                          
     1  0  0.50      -273.3789   2.0000                                         
     2  0  0.50       -13.7508   2.0000                                         
     2  1  0.50        -5.2854   2.0000                                         
     3  2  1.50        -5.4423   0.0000                                         
   Description                                                                  
     l       E           TYP  RCUT    TYP  RCUT                                 
     0    -13.7508458     23  1.200                                             
     0     -8.2022199     23  1.200                                             
     1     -5.2854383     23  1.500                                             
     1     34.0145650     23  1.500                                             
     2     -5.4423304      7  1.500                                             
  local pseudopotential read in
  partial core-charges read in
  partial kinetic energy density read in
  atomic valenz-charges read in
  non local Contribution for L=           0  read in
    real space projection operators read in
  non local Contribution for L=           0  read in
    real space projection operators read in
  non local Contribution for L=           1  read in
    real space projection operators read in
  non local Contribution for L=           1  read in
    real space projection operators read in
    PAW grid and wavefunctions read in
 
   number of l-projection  operators is LMAX  =           4
   number of lm-projection operators is LMMAX =           8
 
 POTCAR:    PAW_PBE N 08Apr2002                   
   SHA256 =  e053789ff3a61a86a1b75d8a110fcc91f86041011e7b0817c7c99e4e8a6349d7 N/
   COPYR  = (c) Copyright 08Apr2002 Georg Kresse                                
   COPYR  = This file is part of the software VASP. Any use, copying, and all ot
   COPYR  = If you do not have a valid VASP license, you may not use, copy or di
   VRHFIN =N: s2p3                                                              
   LEXCH  = PE                                                                  
   EATOM  =   264.5486 eV,   19.4438 Ry                                         
                                                                                
   TITEL  = PAW_PBE N 08Apr2002                                                 
   LULTRA =        F    use ultrasoft PP ?                                      
   IUNSCR =        1    unscreen: 0-lin 1-nonlin 2-no                           
   RPACOR =    1.200    partial core radius                                     
   POMASS =   14.001; ZVAL   =    5.000    mass and valenz                      
   RCORE  =    1.500    outmost cutoff radius                                   
   RWIGS  =    1.400; RWIGS  =    0.741    wigner-seitz radius (au A)           
   ENMAX  =  400.000; ENMIN  =  300.000 eV                                      
   ICORE  =        2    local potential                                         
   LCOR   =        T    correct aug charges                                     
   LPAW   =        T    paw PP                                                  
   EAUG   =  627.112                                                            
   DEXC   =    0.000                                                            
   RMAX   =    1.529    core radius for proj-oper                               
   RAUG   =    1.300    factor for augmentation sphere                          
   RDEP   =    1.514    radius for radial grids                                 
   RDEPT  =    1.338    core radius for aug-charge                              
                                                                                
   Atomic configuration                                                         
    4 entries                                                                   
     n  l   j            E        occ.                                          
     1  0  0.50      -384.7179   2.0000                                         
     2  0  0.50       -18.5828   2.0000                                         
     2  1  0.50        -7.0898   3.0000                                         
     3  2  1.50        -6.8029   0.0000                                         
   Description                                                                  
     l       E           TYP  RCUT    TYP  RCUT                                 
     0    -18.5828119     23  1.200                                             
     0    -13.5018863     23  1.200                                             
     1     -7.0897853     23  1.500                                             
     1      9.5240782     23  1.500                                             
     2     -6.8029130      7  1.500                                             
  local pseudopotential read in
  partial core-charges read in
  partial kinetic energy density read in
  atomic valenz-charges read in
  non local Contribution for L=           0  read in
    real space projection operators read in
  non local Contribution for L=           0  read in
    real space projection operators read in
  non local Contribution for L=           1  read in
    real space projection operators read in
  non local Contribution for L=           1  read in
    real space projection operators read in
    PAW grid and wavefunctions read in
 
   number of l-projection  operators is LMAX  =           4
   number of lm-projection operators is LMMAX =           8
 
 POTCAR:    PAW_PBE Ge_d 03Jul2007                
   SHA256 =  944b26c40d2d7c4f4eb1ff3a2e8dbfdd7129146276cd341854bfd5c0e57780ed Ge
   COPYR  = (c) Copyright 03Jul2007 Georg Kresse                                
   COPYR  = This file is part of the software VASP. Any use, copying, and all ot
   COPYR  = If you do not have a valid VASP license, you may not use, copy or di
   VRHFIN =Ge: 3d4s4p                                                           
   LEXCH  = PE                                                                  
   EATOM  =  2596.2402 eV,  190.8183 Ry                                         
                                                                                
   TITEL  = PAW_PBE Ge_d 03Jul2007                                              
   LULTRA =        F    use ultrasoft PP ?                                      
   IUNSCR =        1    unscreen: 0-lin 1-nonlin 2-no                           
   RPACOR =    2.000    partial core radius                                     
   POMASS =   72.610; ZVAL   =   14.000    mass and valenz                      
   RCORE  =    2.300    outmost cutoff radius                                   
   RWIGS  =    2.300; RWIGS  =    1.217    wigner-seitz radius (au A)           
   ENMAX  =  310.294; ENMIN  =  232.720 eV                                      
   ICORE  =        3    local potential                                         
   LCOR   =        T    correct aug charges                                     
   LPAW   =        T    paw PP                                                  
   EAUG   =  531.356                                                            
   DEXC   =    0.000                                                            
   RMAX   =    2.342    core radius for proj-oper                               
   RAUG   =    1.300    factor for augmentation sphere                          
   RDEP   =    2.318    radius for radial grids                                 
   RDEPT  =    1.783    core radius for aug-charge                              
                                                                                
   Atomic configuration                                                         
    9 entries                                                                   
     n  l   j            E        occ.                                          
     1  0  0.50    -10959.8463   2.0000                                         
     2  0  0.50     -1371.6056   2.0000                                         
     2  1  1.50     -1198.4791   6.0000                                         
     3  0  0.50      -168.4733   2.0000                                         
     3  1  1.50      -115.6019   6.0000                                         
     3  2  2.50       -29.3106  10.0000                                         
     4  0  0.50       -11.7309   2.0000                                         
     4  1  0.50        -3.8952   2.0000                                         
     4  3  2.50        -4.0817   0.0000                                         
   Description                                                                  
     l       E           TYP  RCUT    TYP  RCUT                                 
     2    -29.3105938     23  2.200                                             
     2    -13.6058260     23  2.200                                             
     0    -11.7309493     23  2.300                                             
     0     -7.4578696     23  2.300                                             
     1     -3.8952261     23  2.300                                             
     1      6.1178114     23  2.300                                             
     3     -1.3605826     23  2.300                                             
  local pseudopotential read in
  partial core-charges read in
  partial kinetic energy density read in
  atomic valenz-charges read in
  non local Contribution for L=           2  read in
    real space projection operators read in
  non local Contribution for L=           2  read in
    real space projection operators read in
  non local Contribution for L=           0  read in
    real space projection operators read in
  non local Contribution for L=           0  read in
    real space projection operators read in
  non local Contribution for L=           1  read in
    real space projection operators read in
  non local Contribution for L=           1  read in
    real space projection operators read in
    PAW grid and wavefunctions read in
 
   number of l-projection  operators is LMAX  =           6
   number of lm-projection operators is LMMAX =          18
 

 ----------------------------------------------------------------------------- 
|                                                                             |
|  ADVICE TO THIS USER RUNNING 'VASP/VAMP'   (HEAR YOUR MASTER'S VOICE ...):  |
|                                                                             |
|      You have a (more or less) 'large supercell' and for larger cells       |
|      it might be more efficient to use real space projection opertators     |
|      So try LREAL= Auto  in the INCAR   file.                               |
|      Mind:          For very  accurate calculation you might also keep the  |
|      reciprocal projection scheme          (i.e. LREAL=.FALSE.)             |
|                                                                             |
 ----------------------------------------------------------------------------- 

  PAW_PBE C 08Apr2002                   :
 energy of atom  1       EATOM= -147.1560
 kinetic energy error for atom=    0.0132 (will be added to EATOM!!)
  PAW_PBE N 08Apr2002                   :
 energy of atom  2       EATOM= -264.5486
 kinetic energy error for atom=    0.0298 (will be added to EATOM!!)
  PAW_PBE Ge_d 03Jul2007                :
 energy of atom  3       EATOM=-2596.2402
 kinetic energy error for atom=    0.0090 (will be added to EATOM!!)
 
 
 POSCAR: POSCAR-c3n4                             
  positions in cartesian coordinates
  No initial velocities read in
 exchange correlation table for  LEXCH =        8
   RHO(1)=    0.500       N(1)  =     2000
   RHO(2)=  100.500       N(2)  =     4000

 VTST: version 3.2, (02/03/18)

 CHAIN: initializing optimizer
 
 OPT: Using VASP Dynamics algorithm
 CHAIN: Read ICHAIN            0
 
 POSCAR: POSCAR-c3n4                             
  positions in cartesian coordinates
  No initial velocities read in
 


--------------------------------------------------------------------------------------------------------


 ion  position               nearest neighbor table
   1  0.106  0.214  0.426-  26 1.31  46 1.32  25 1.39
   2  0.288  0.399  0.433-  29 1.29  35 1.36  25 1.40
   3  0.104  0.392  0.427-  44 1.29  39 1.35  25 1.40
   4  0.447  0.064  0.506-  30 1.30  27 1.31  48 1.38
   5  0.453  0.401  0.413-  28 1.30  29 1.31  56 1.40
   6  0.112  0.053  0.449-  26 1.30  31 1.31  32 1.37
   7  0.096  0.712  0.484-  54 1.30  34 1.33  33 1.38
   8  0.284  0.890  0.501-  27 1.31  37 1.32  33 1.39
   9  0.109  0.895  0.498-  31 1.30  52 1.32  33 1.40
  10  0.448  0.548  0.502-  38 1.30  56 1.33  35 1.33
  11  0.445  0.885  0.489-  37 1.31  36 1.31  48 1.36
  12  0.087  0.542  0.481-  34 1.30  40 1.32  39 1.33
  13  0.616  0.223  0.473-  42 1.32  30 1.32  41 1.38
  14  0.780  0.390  0.400-  45 1.32  51 1.34  41 1.38
  15  0.610  0.394  0.435-  28 1.31  55 1.32  41 1.42
  16  0.940  0.052  0.461-  46 1.29  43 1.31  32 1.37
  17  0.941  0.387  0.394-  45 1.29  44 1.31  40 1.39
  18  0.623  0.066  0.512-  42 1.30  47 1.31  48 1.38
  19  0.613  0.711  0.531-  50 1.30  38 1.34  49 1.38
  20  0.790  0.897  0.523-  43 1.30  53 1.31  49 1.42
  21  0.609  0.892  0.521-  47 1.31  36 1.32  49 1.41
  22  0.938  0.563  0.421-  51 1.28  54 1.32  40 1.39
  23  0.954  0.902  0.535-  52 1.31  53 1.31  32 1.37
  24  0.621  0.555  0.490-  55 1.29  50 1.30  56 1.38
  25  0.167  0.335  0.425-   1 1.39   3 1.40   2 1.40
  26  0.165  0.161  0.421-   6 1.30   1 1.31
  27  0.336  0.002  0.522-   8 1.31   4 1.31
  28  0.512  0.352  0.392-   5 1.30  15 1.31
  29  0.345  0.361  0.390-   2 1.29   5 1.31
  30  0.506  0.177  0.493-   4 1.30  13 1.32
  31  0.159  0.988  0.447-   9 1.30   6 1.31
  32  0.002  0.002  0.483-  16 1.37  23 1.37   6 1.37
  33  0.165  0.831  0.500-   7 1.38   8 1.39   9 1.40
  34  0.134  0.645  0.518-  12 1.30   7 1.33
  35  0.334  0.491  0.492-  10 1.33   2 1.36  57 2.02
  36  0.503  0.831  0.490-  11 1.31  21 1.32
  37  0.333  0.829  0.479-  11 1.31   8 1.32
  38  0.499  0.648  0.545-  10 1.30  19 1.34
  39  0.142  0.484  0.485-  12 1.33   3 1.35  57 2.04
  40  0.988  0.496  0.436-  12 1.32  22 1.39  17 1.39
  41  0.667  0.330  0.429-  13 1.38  14 1.38  15 1.42
  42  0.680  0.178  0.495-  18 1.30  13 1.32
  43  0.827  0.986  0.468-  20 1.30  16 1.31
  44  0.011  0.348  0.379-   3 1.29  17 1.31
  45  0.830  0.330  0.380-  17 1.29  14 1.32
  46  0.993  0.161  0.435-  16 1.29   1 1.32
  47  0.669  0.005  0.539-  21 1.31  18 1.31
  48  0.505  0.004  0.498-  11 1.36  18 1.38   4 1.38
  49  0.668  0.832  0.534-  19 1.38  21 1.41  20 1.42
  50  0.675  0.666  0.512-  19 1.30  24 1.30
  51  0.832  0.507  0.396-  22 1.28  14 1.34
  52  0.016  0.853  0.549-  23 1.31   9 1.32
  53  0.849  0.860  0.566-  20 1.31  23 1.31
  54  0.004  0.677  0.435-   7 1.30  22 1.32
  55  0.668  0.491  0.484-  24 1.29  15 1.32
  56  0.506  0.502  0.467-  10 1.33  24 1.38   5 1.40
  57  0.287  0.593  0.558-  35 2.02  39 2.04
 

IMPORTANT INFORMATION: All symmetrisations will be switched off!
NOSYMM: (Re-)initialisation of all symmetry stuff for point group C_1.

 
 
 KPOINTS: K-Points                                

Automatic generation of k-mesh.
Space group operators:
 irot       det(A)        alpha          n_x          n_y          n_z        tau_x        tau_y        tau_z
    1     1.000000     0.000001     1.000000     0.000000     0.000000     0.000000     0.000000     0.000000
 
 Subroutine IBZKPT returns following result:
 ===========================================
 
 Found      5 irreducible k-points:
 
 Following reciprocal coordinates:
            Coordinates               Weight
  0.000000  0.000000  0.000000      1.000000
  0.333333  0.000000  0.000000      2.000000
 -0.000000  0.333333  0.000000      2.000000
  0.333333  0.333333  0.000000      2.000000
 -0.333333  0.333333  0.000000      2.000000
 
 Following cartesian coordinates:
            Coordinates               Weight
  0.000000  0.000000  0.000000      1.000000
  0.024277  0.014368  0.000000      2.000000
  0.000396  0.028736  0.000000      2.000000
  0.024673  0.043104  0.000000      2.000000
 -0.023881  0.014368  0.000000      2.000000
 
 TETIRR: Found     24 inequivalent tetrahedra from       54


--------------------------------------------------------------------------------------------------------




 Dimension of arrays:
   k-points           NKPTS =      5   k-points in BZ     NKDIM =      5   number of bands    NBANDS=    168
   number of dos      NEDOS =   4000   number of ions     NIONS =     57
   non local maximal  LDIM  =      6   non local SUM 2l+1 LMDIM =     18
   total plane-waves  NPLWV = 392000
   max r-space proj   IRMAX =      1   max aug-charges    IRDMAX=   6014
   dimension x,y,z NGX =    70 NGY =   70 NGZ =   80
   dimension x,y,z NGXF=   140 NGYF=  140 NGZF=  160
   support grid    NGXF=   140 NGYF=  140 NGZF=  160
   ions per type =              24  32   1
   NGX,Y,Z   is equivalent  to a cutoff of   8.58,  8.74,  9.05 a.u.
   NGXF,Y,Z  is equivalent  to a cutoff of  17.15, 17.48, 18.09 a.u.

 SYSTEM =  unknown system                          
 POSCAR =  POSCAR-c3n4                             

 Startparameter for this run:
   NWRITE =      2    write-flag & timer
   PREC   = normal    normal or accurate (medium, high low for compatibility)
   ISTART =      0    job   : 0-new  1-cont  2-samecut
   ICHARG =      2    charge: 1-file 2-atom 10-const
   ISPIN  =      2    spin polarized calculation?
   LNONCOLLINEAR =      F non collinear calculations
   LSORBIT =      F    spin-orbit coupling
   INIWAV =      1    electr: 0-lowe 1-rand  2-diag
   LASPH  =      F    aspherical Exc in radial PAW
   METAGGA=      F    non-selfconsistent MetaGGA calc.

 Electronic Relaxation 1
   ENCUT  =  440.0 eV  32.34 Ry    5.69 a.u.  23.21 22.78 25.14*2*pi/ulx,y,z
   ENINI  =  440.0     initial cutoff
   ENAUG  =  644.9 eV  augmentation charge cutoff
   NELM   =    100;   NELMIN=  2; NELMDL= -5     # of ELM steps 
   EDIFF  = 0.1E-03   stopping-criterion for ELM
   LREAL  =      F    real-space projection
   NLSPLINE    = F    spline interpolate recip. space projectors
   LCOMPAT=      F    compatible to vasp.4.4
   GGA_COMPAT  = T    GGA compatible to vasp.4.4-vasp.4.6
   LMAXPAW     = -100 max onsite density
   LMAXMIX     =    2 max onsite mixed and CHGCAR
   VOSKOWN=      0    Vosko Wilk Nusair interpolation
   ROPT   =    0.00000   0.00000   0.00000
 Ionic relaxation
   EDIFFG = -.1E-01   stopping-criterion for IOM
   NSW    =      0    number of steps for IOM
   NBLOCK =      1;   KBLOCK =      1    inner block; outer block 
   IBRION =     -1    ionic relax: 0-MD 1-quasi-New 2-CG
   NFREE  =      0    steps in history (QN), initial steepest desc. (CG)
   ISIF   =      2    stress and relaxation
   IWAVPR =     10    prediction:  0-non 1-charg 2-wave 3-comb
   ISYM   =      0    0-nonsym 1-usesym 2-fastsym
   LCORR  =      T    Harris-Foulkes like correction to forces

   POTIM  = 0.5000    time-step for ionic-motion
   TEIN   =    0.0    initial temperature
   TEBEG  =    0.0;   TEEND  =   0.0 temperature during run
   SMASS  =  -3.00    Nose mass-parameter (am)
   estimated Nose-frequenzy (Omega)   =  0.10E-29 period in steps =****** mass=  -0.421E-26a.u.
   SCALEE = 1.0000    scale energy and forces
   NPACO  =    256;   APACO  = 16.0  distance and # of slots for P.C.
   PSTRESS=    0.0 pullay stress

  Mass of Ions in am
   POMASS =  12.01 14.00 72.61
  Ionic Valenz
   ZVAL   =   4.00  5.00 14.00
  Atomic Wigner-Seitz radii
   RWIGS  =  -1.00 -1.00 -1.00
  virtual crystal weights 
   VCA    =   1.00  1.00  1.00
   NELECT =     270.0000    total number of electrons
   NUPDOWN=      -1.0000    fix difference up-down

 DOS related values:
   EMIN   = -14.00;   EMAX   =  6.00  energy-range for DOS
   EFERMI =   0.00
   ISMEAR =    -5;   SIGMA  =   0.20  broadening in eV -4-tet -1-fermi 0-gaus

 Electronic relaxation 2 (details)
   IALGO  =     38    algorithm
   LDIAG  =      T    sub-space diagonalisation (order eigenvalues)
   LSUBROT=      F    optimize rotation matrix (better conditioning)
   TURBO    =      0    0=normal 1=particle mesh
   IRESTART =      0    0=no restart 2=restart with 2 vectors
   NREBOOT  =      0    no. of reboots
   NMIN     =      0    reboot dimension
   EREF     =   0.00    reference energy to select bands
   IMIX   =      4    mixing-type and parameters
     AMIX     =   0.25;   BMIX     =  0.00
     AMIX_MAG =   1.00;   BMIX_MAG =  0.00
     AMIN     =   0.10
     WC   =   100.;   INIMIX=   1;  MIXPRE=   1;  MAXMIX= -45

 Intra band minimization:
   WEIMIN = 0.0000     energy-eigenvalue tresh-hold
   EBREAK =  0.15E-06  absolut break condition
   DEPER  =   0.30     relativ break condition  

   TIME   =   0.40     timestep for ELM

  volume/ion in A,a.u.               =      39.77       268.40
  Fermi-wavevector in a.u.,A,eV,Ry     =   0.805455  1.522089  8.826887  0.648758
  Thomas-Fermi vector in A             =   1.913703
 
 Write flags
   LWAVE        =      F    write WAVECAR
   LDOWNSAMPLE  =      F    k-point downsampling of WAVECAR
   LCHARG       =      F    write CHGCAR
   LVTOT        =      F    write LOCPOT, total local potential
   LVHAR        =      F    write LOCPOT, Hartree potential only
   LELF         =      F    write electronic localiz. function (ELF)
   LORBIT       =     11    0 simple, 1 ext, 2 COOP (PROOUT), +10 PAW based schemes


 Dipole corrections
   LMONO  =      F    monopole corrections only (constant potential shift)
   LDIPOL =      F    correct potential (dipole corrections)
   IDIPOL =      0    1-x, 2-y, 3-z, 4-all directions 
   EPSILON=  1.0000000 bulk dielectric constant

 Exchange correlation treatment:
   GGA     =    --    GGA type
   LEXCH   =     8    internal setting for exchange type
   VOSKOWN=      0    Vosko Wilk Nusair interpolation
   LHFCALC =     F    Hartree Fock is set to
   LHFONE  =     F    Hartree Fock one center treatment
   AEXX    =    0.0000 exact exchange contribution

 Linear response parameters
   LEPSILON=     F    determine dielectric tensor
   LRPA    =     F    only Hartree local field effects (RPA)
   LNABLA  =     F    use nabla operator in PAW spheres
   LVEL    =     F    velocity operator in full k-point grid
   LINTERFAST=   F  fast interpolation
   KINTER  =     0    interpolate to denser k-point grid
   CSHIFT  =0.1000    complex shift for real part using Kramers Kronig
   OMEGAMAX=  -1.0    maximum frequency
   DEG_THRESHOLD= 0.2000000E-02 threshold for treating states as degnerate
   RTIME   =   -0.100 relaxation time in fs
  (WPLASMAI=    0.000 imaginary part of plasma frequency in eV, 0.658/RTIME)
   DFIELD  = 0.0000000 0.0000000 0.0000000 field for delta impulse in time
 
 Orbital magnetization related:
   ORBITALMAG=     F  switch on orbital magnetization
   LCHIMAG   =     F  perturbation theory with respect to B field
   DQ        =  0.001000  dq finite difference perturbation B field
   LLRAUG    =     F  two centre corrections for induced B field



--------------------------------------------------------------------------------------------------------


 Static calculation
 charge density and potential will be updated during run
 spin polarized calculation
 Variant of blocked Davidson
 Davidson routine will perform the subspace rotation
 perform sub-space diagonalisation
    after iterative eigenvector-optimisation
 modified Broyden-mixing scheme, WC =      100.0
 initial mixing is a Kerker type mixing with AMIX =  0.2500 and BMIX =      0.0001
 Hartree-type preconditioning will be used
 using additional bands           33
 reciprocal scheme for non local part
 use partial core corrections
 calculate Harris-corrections to forces 
   (improved forces if not selfconsistent)
 use gradient corrections 
 use of overlap-Matrix (Vanderbilt PP)
 Fermi weights with tetrahedron method with Bloechl corrections


--------------------------------------------------------------------------------------------------------


  energy-cutoff  :      440.00
  volume of cell :     2267.07
      direct lattice vectors                 reciprocal lattice vectors
    13.566555750 -0.186925665  0.000000000     0.074316703  0.043983790  0.000000000
    -6.783277875 11.461287174  0.000000000     0.001212054  0.087967580  0.000000000
     0.000000000  0.000000000 14.700000000     0.000000000  0.000000000  0.068027211

  length of vectors
    13.567843459 13.318181648 14.700000000     0.086357085  0.087975930  0.068027211


 
 k-points in units of 2pi/SCALE and weight: K-Points                                
   0.00000000  0.00000000  0.00000000       0.111
   0.02427679  0.01436804  0.00000000       0.222
   0.00039594  0.02873608  0.00000000       0.222
   0.02467273  0.04310411  0.00000000       0.222
  -0.02388085  0.01436804  0.00000000       0.222
 
 k-points in reciprocal lattice and weights: K-Points                                
   0.00000000  0.00000000  0.00000000       0.111
   0.33333333  0.00000000  0.00000000       0.222
  -0.00000000  0.33333333  0.00000000       0.222
   0.33333333  0.33333333  0.00000000       0.222
  -0.33333333  0.33333333  0.00000000       0.222
 
 position of ions in fractional coordinates (direct lattice) 
   0.10567936  0.21351909  0.42646415
   0.28750403  0.39866334  0.43315811
   0.10379301  0.39177313  0.42728737
   0.44732828  0.06383887  0.50569377
   0.45258916  0.40124889  0.41252546
   0.11203481  0.05273921  0.44868132
   0.09638015  0.71191070  0.48390127
   0.28433946  0.89006364  0.50120122
   0.10941441  0.89537413  0.49812536
   0.44792521  0.54827090  0.50190381
   0.44544784  0.88520183  0.48897001
   0.08690842  0.54210436  0.48067119
   0.61614813  0.22292684  0.47270451
   0.78023735  0.38968276  0.39988272
   0.61037743  0.39432339  0.43546161
   0.93951642  0.05229783  0.46070020
   0.94071854  0.38652888  0.39388003
   0.62278394  0.06558106  0.51203168
   0.61322902  0.71118454  0.53124878
   0.78984871  0.89727295  0.52288011
   0.60944297  0.89248269  0.52132702
   0.93832005  0.56283419  0.42050954
   0.95436023  0.90171878  0.53466451
   0.62130548  0.55465507  0.48986027
   0.16668926  0.33545237  0.42502835
   0.16473950  0.16097029  0.42095206
   0.33626584  0.00180669  0.52215766
   0.51175722  0.35246859  0.39238613
   0.34471728  0.36074551  0.38975287
   0.50565751  0.17673507  0.49315170
   0.15873210  0.98821904  0.44665654
   0.00214731  0.00186372  0.48284181
   0.16462634  0.83083069  0.50025956
   0.13400723  0.64526801  0.51778798
   0.33371346  0.49116238  0.49155062
   0.50288345  0.83078126  0.48972341
   0.33307237  0.82932770  0.47937372
   0.49902190  0.64803204  0.54483375
   0.14173676  0.48364631  0.48511610
   0.98839512  0.49595573  0.43598798
   0.66736443  0.33015381  0.42931770
   0.67970142  0.17802103  0.49523771
   0.82720183  0.98622484  0.46784919
   0.01097216  0.34809993  0.37880244
   0.83047981  0.33016544  0.37952861
   0.99296173  0.16101876  0.43513088
   0.66886761  0.00524437  0.53948092
   0.50484899  0.00388347  0.49830916
   0.66830364  0.83227641  0.53419919
   0.67536455  0.66551462  0.51246466
   0.83211404  0.50666912  0.39574663
   0.01584380  0.85299492  0.54867721
   0.84924332  0.85956436  0.56604968
   0.00424175  0.67726383  0.43455477
   0.66753141  0.49127771  0.48382075
   0.50565566  0.50179634  0.46716125
   0.28676550  0.59288202  0.55779478
 
 position of ions in cartesian coordinates  (Angst):
  -0.01465434  2.42744937  6.26902303
   1.19619520  4.51545313  6.36742426
  -1.24939242  4.47082278  6.28112435
   5.63566727  0.64805845  7.43369836
   3.41829327  4.51422826  6.06412427
   1.16218179  0.58351709  6.59561542
  -3.52154145  8.14139707  7.11334869
  -2.18004189 10.14812462  7.36765797
  -4.58919491 10.24168769  7.32244277
   2.35772852  6.20016153  7.37798597
   0.03862300 10.06228677  7.18785908
  -2.49819666  6.19696839  7.06586644
   6.84683325  2.43985465  6.94875625
   7.94180702  4.32041967  5.87827597
   5.60591424  4.40535845  6.40128571
  12.39125124  0.42378069  6.77229297
  10.14037775  4.25427409  5.79003647
   8.00417849  0.63522901  7.52686565
   3.49524338  8.03646203  7.80935703
   4.62907478 10.13625999  7.68633755
   2.21408392 10.11507983  7.66350723
   8.91191054  6.27540822  6.18149025
   6.83077215 10.15646349  7.85956835
   4.66659600  6.24092314  7.20094592
  -0.01406750  3.81355747  6.24791672
   1.14304146  1.81413264  6.18799526
   4.54971394 -0.04214975  7.67571755
   4.55189053  3.94408314  5.76807618
   2.22958913  4.07017139  5.72936724
   5.66118765  1.93109108  7.24932996
  -4.54991654 11.29659112  6.56585118
   0.01648949  0.02095924  7.09777465
  -3.40234293  9.49161621  7.35381557
  -2.55901566  7.37055255  7.61148326
   1.19565141  5.56697344  7.22579410
   1.18697625  9.42782072  7.19893420
  -1.10691538  9.44290314  7.04679373
   2.37422704  7.33400131  8.00905615
  -1.35782766  5.51671496  7.13120670
  10.04491199  5.49953466  6.40902326
   6.81431171  3.65924012  6.31097021
   8.01364114  1.91329649  7.27999433
   4.53244266 11.14878084  6.87738306
  -2.21240414  3.98762223  5.56839587
   9.02714669  3.62888293  5.57907058
  12.37883562  1.65987221  6.39642387
   9.03865579 -0.06492134  7.93036947
   6.82271934 -0.04985967  7.32514465
   3.42101650  9.41403582  7.85272815
   4.64800018  7.50141123  7.53323048
   7.85204403  5.65153684  5.81747546
  -5.57115582  9.77345814  8.06555502
   5.69064293  9.69296865  8.32093028
  -4.53652287  7.76152239  6.38795513
   5.72362880  5.50589618  7.11216498
   3.45618166  5.65671198  6.86727033
  -0.13126337  6.74158731  8.19958331
 


--------------------------------------------------------------------------------------------------------


 k-point  1 :   0.0000 0.0000 0.0000  plane waves:   47475
 k-point  2 :   0.3333 0.0000 0.0000  plane waves:   47459
 k-point  3 :  -0.0000 0.3333 0.0000  plane waves:   47510
 k-point  4 :   0.3333 0.3333 0.0000  plane waves:   47508
 k-point  5 :  -0.3333 0.3333 0.0000  plane waves:   47534

 maximum and minimum number of plane-waves per node :      3979     3936

 maximum number of plane-waves:     47534
 maximum index in each direction: 
   IXMAX=   23   IYMAX=   22   IZMAX=   25
   IXMIN=  -23   IYMIN=  -23   IZMIN=  -25


 parallel 3D FFT for wavefunctions:
    minimum data exchange during FFTs selected (reduces bandwidth)
 parallel 3D FFT for charge:
    minimum data exchange during FFTs selected (reduces bandwidth)


 total amount of memory used by VASP MPI-rank0    81359. kBytes
=======================================================================

   base      :      30000. kBytes
   nonl-proj :      12189. kBytes
   fftplans  :       3326. kBytes
   grid      :       8675. kBytes
   one-center:        155. kBytes
   wavefun   :      27014. kBytes
 
     INWAV:  cpu time    0.0000: real time    0.0001
 Broyden mixing: mesh for mixing (old mesh)
   NGX = 47   NGY = 45   NGZ = 51
  (NGX  =140   NGY  =140   NGZ  =160)
  gives a total of 107865 points

 initial charge density was supplied:
 charge density of overlapping atoms calculated
 number of electron     270.0000000 magnetization       1.0000000
 keeping initial charge density in first step


--------------------------------------------------------------------------------------------------------


 Maximum index for augmentation-charges          201 (set IRDMAX)


--------------------------------------------------------------------------------------------------------


 First call to EWALD:  gamma=   0.135
 Maximum number of real-space cells 3x 3x 3
 Maximum number of reciprocal cells 3x 3x 3

    FEWALD:  cpu time    0.0021: real time    0.0024


--------------------------------------- Iteration      1(   1)  ---------------------------------------


    POTLOK:  cpu time    0.1032: real time    0.1275
    SETDIJ:  cpu time    0.0099: real time    0.0107
     EDDAV:  cpu time    6.7537: real time    6.8481
 BZINTS: Fermi energy:  9.410464;270.000000 electrons
         Band energy:***********;  BLOECHL correction: -0.029808
       DOS:  cpu time    0.1598: real time    0.1602
    --------------------------------------------
      LOOP:  cpu time    7.0266: real time    7.1466

 eigenvalue-minimisations  :  3872
 total energy-change (2. order) : 0.2604167E+04  (-0.1026371E+05)
 number of electron     270.0000000 magnetization       1.0000000
 augmentation part      270.0000000 magnetization       1.0000000

 Free energy of the ion-electron system (eV)
  ---------------------------------------------------
  alpha Z        PSCENC =       153.28814274
  Ewald energy   TEWEN  =     27942.17813648
  -Hartree energ DENC   =    -39274.31285904
  -exchange      EXHF   =         0.00000000
  -V(xc)+E(xc)   XCENC  =      1036.17677864
  PAW double counting   =     10998.91041168   -11485.61342155
  entropy T*S    EENTRO =         0.00000000
  eigenvalues    EBANDS =     -1358.72070830
  atomic energy  EATOM  =     14592.26033195
  Solvation  Ediel_sol  =         0.00000000
  ---------------------------------------------------
  free energy    TOTEN  =      2604.16681261 eV

  energy without entropy =     2604.16681261  energy(sigma->0) =     2604.16681261


--------------------------------------------------------------------------------------------------------




--------------------------------------- Iteration      1(   2)  ---------------------------------------


     EDDAV:  cpu time    9.1549: real time    9.3874
 BZINTS: Fermi energy: -0.061359;270.000000 electrons
         Band energy:***********;  BLOECHL correction:  0.000000
       DOS:  cpu time    0.0046: real time    0.0046
    --------------------------------------------
      LOOP:  cpu time    9.1596: real time    9.3920

 eigenvalue-minimisations  :  4680
 total energy-change (2. order) :-0.2600631E+04  (-0.2491205E+04)
 number of electron     270.0000000 magnetization       1.0000000
 augmentation part      270.0000000 magnetization       1.0000000

 Free energy of the ion-electron system (eV)
  ---------------------------------------------------
  alpha Z        PSCENC =       153.28814274
  Ewald energy   TEWEN  =     27942.17813648
  -Hartree energ DENC   =    -39274.31285904
  -exchange      EXHF   =         0.00000000
  -V(xc)+E(xc)   XCENC  =      1036.17677864
  PAW double counting   =     10998.91041168   -11485.61342155
  entropy T*S    EENTRO =         0.00000000
  eigenvalues    EBANDS =     -3959.35170958
  atomic energy  EATOM  =     14592.26033195
  Solvation  Ediel_sol  =         0.00000000
  ---------------------------------------------------
  free energy    TOTEN  =         3.53581133 eV

  energy without entropy =        3.53581133  energy(sigma->0) =        3.53581133


--------------------------------------------------------------------------------------------------------




--------------------------------------- Iteration      1(   3)  ---------------------------------------


     EDDAV:  cpu time    7.8110: real time    8.0075
 BZINTS: Fermi energy: -3.514683;270.000000 electrons
         Band energy:***********;  BLOECHL correction: -0.006955
       DOS:  cpu time    0.0107: real time    0.0107
    --------------------------------------------
      LOOP:  cpu time    7.8216: real time    8.0182

 eigenvalue-minimisations  :  3984
 total energy-change (2. order) :-0.4974133E+03  (-0.4929185E+03)
 number of electron     270.0000000 magnetization       1.0000000
 augmentation part      270.0000000 magnetization       1.0000000

 Free energy of the ion-electron system (eV)
  ---------------------------------------------------
  alpha Z        PSCENC =       153.28814274
  Ewald energy   TEWEN  =     27942.17813648
  -Hartree energ DENC   =    -39274.31285904
  -exchange      EXHF   =         0.00000000
  -V(xc)+E(xc)   XCENC  =      1036.17677864
  PAW double counting   =     10998.91041168   -11485.61342155
  entropy T*S    EENTRO =         0.00000000
  eigenvalues    EBANDS =     -4456.76501087
  atomic energy  EATOM  =     14592.26033195
  Solvation  Ediel_sol  =         0.00000000
  ---------------------------------------------------
  free energy    TOTEN  =      -493.87748996 eV

  energy without entropy =     -493.87748996  energy(sigma->0) =     -493.87748996


--------------------------------------------------------------------------------------------------------




--------------------------------------- Iteration      1(   4)  ---------------------------------------


     EDDAV:  cpu time    8.2140: real time    8.4498
 BZINTS: Fermi energy: -3.951238;270.000000 electrons
         Band energy:***********;  BLOECHL correction:  0.000000
       DOS:  cpu time    0.0038: real time    0.0038
    --------------------------------------------
      LOOP:  cpu time    8.2178: real time    8.4537

 eigenvalue-minimisations  :  4208
 total energy-change (2. order) :-0.1922527E+02  (-0.1874692E+02)
 number of electron     270.0000000 magnetization       1.0000000
 augmentation part      270.0000000 magnetization       1.0000000

 Free energy of the ion-electron system (eV)
  ---------------------------------------------------
  alpha Z        PSCENC =       153.28814274
  Ewald energy   TEWEN  =     27942.17813648
  -Hartree energ DENC   =    -39274.31285904
  -exchange      EXHF   =         0.00000000
  -V(xc)+E(xc)   XCENC  =      1036.17677864
  PAW double counting   =     10998.91041168   -11485.61342155
  entropy T*S    EENTRO =         0.00000000
  eigenvalues    EBANDS =     -4475.99027840
  atomic energy  EATOM  =     14592.26033195
  Solvation  Ediel_sol  =         0.00000000
  ---------------------------------------------------
  free energy    TOTEN  =      -513.10275749 eV

  energy without entropy =     -513.10275749  energy(sigma->0) =     -513.10275749


--------------------------------------------------------------------------------------------------------




--------------------------------------- Iteration      1(   5)  ---------------------------------------


     EDDAV:  cpu time    9.1289: real time    9.2903
 BZINTS: Fermi energy: -3.966242;270.000000 electrons
         Band energy:***********;  BLOECHL correction:  0.000000
       DOS:  cpu time    0.0039: real time    0.0039
    CHARGE:  cpu time    0.1148: real time    0.1185
    MIXING:  cpu time    0.0039: real time    0.0039
    --------------------------------------------
      LOOP:  cpu time    9.2515: real time    9.4166

 eigenvalue-minimisations  :  4832
 total energy-change (2. order) :-0.7773349E+00  (-0.7698635E+00)
 number of electron     270.0000079 magnetization       0.0000001
 augmentation part       19.9844858 magnetization       0.0015832

 Broyden mixing:
  rms(total) = 0.42629E+01    rms(broyden)= 0.42601E+01
  rms(prec ) = 0.47239E+01
  weight for this iteration     100.00

 Free energy of the ion-electron system (eV)
  ---------------------------------------------------
  alpha Z        PSCENC =       153.28814274
  Ewald energy   TEWEN  =     27942.17813648
  -Hartree energ DENC   =    -39274.31285904
  -exchange      EXHF   =         0.00000000
  -V(xc)+E(xc)   XCENC  =      1036.17677864
  PAW double counting   =     10998.91041168   -11485.61342155
  entropy T*S    EENTRO =         0.00000000
  eigenvalues    EBANDS =     -4476.76761333
  atomic energy  EATOM  =     14592.26033195
  Solvation  Ediel_sol  =         0.00000000
  ---------------------------------------------------
  free energy    TOTEN  =      -513.88009242 eV

  energy without entropy =     -513.88009242  energy(sigma->0) =     -513.88009242


--------------------------------------------------------------------------------------------------------




--------------------------------------- Iteration      1(   6)  ---------------------------------------


    POTLOK:  cpu time    0.1209: real time    0.1229
    SETDIJ:  cpu time    0.0103: real time    0.0104
     EDDAV:  cpu time    7.5586: real time    7.6323
 BZINTS: Fermi energy: -3.449862;270.000000 electrons
         Band energy:***********;  BLOECHL correction:  0.000000
       DOS:  cpu time    0.0038: real time    0.0038
    CHARGE:  cpu time    0.1137: real time    0.1186
    MIXING:  cpu time    0.0031: real time    0.0069
    --------------------------------------------
      LOOP:  cpu time    7.8104: real time    7.8948

 eigenvalue-minimisations  :  4376
 total energy-change (2. order) : 0.2879877E+02  (-0.5116425E+01)
 number of electron     270.0000065 magnetization      -0.0000000
 augmentation part       18.9483993 magnetization       0.0004405

 Broyden mixing:
  rms(total) = 0.27147E+01    rms(broyden)= 0.27144E+01
  rms(prec ) = 0.29161E+01
  weight for this iteration     100.00

 eigenvalues of (default mixing * dielectric matrix)
  average eigenvalue GAMMA=   1.5312
  1.5312

 Free energy of the ion-electron system (eV)
  ---------------------------------------------------
  alpha Z        PSCENC =       153.28814274
  Ewald energy   TEWEN  =     27942.17813648
  -Hartree energ DENC   =    -39604.61285644
  -exchange      EXHF   =         0.00000000
  -V(xc)+E(xc)   XCENC  =      1051.51673962
  PAW double counting   =     14768.44132778   -15257.77574873
  entropy T*S    EENTRO =         0.00000000
  eigenvalues    EBANDS =     -4130.37739433
  atomic energy  EATOM  =     14592.26033195
  Solvation  Ediel_sol  =         0.00000000
  ---------------------------------------------------
  free energy    TOTEN  =      -485.08132093 eV

  energy without entropy =     -485.08132093  energy(sigma->0) =     -485.08132093


--------------------------------------------------------------------------------------------------------




--------------------------------------- Iteration      1(   7)  ---------------------------------------


    POTLOK:  cpu time    0.0946: real time    0.0977
    SETDIJ:  cpu time    0.0098: real time    0.0099
     EDDAV:  cpu time    7.3712: real time    7.4395
 BZINTS: Fermi energy: -2.829707;270.000000 electrons
         Band energy:***********;  BLOECHL correction:  0.000000
       DOS:  cpu time    0.0038: real time    0.0038
    CHARGE:  cpu time    0.1133: real time    0.1143
    MIXING:  cpu time    0.0028: real time    0.0037
    --------------------------------------------
      LOOP:  cpu time    7.5954: real time    7.6690

 eigenvalue-minimisations  :  4016
 total energy-change (2. order) : 0.6553198E+01  (-0.4315800E+01)
 number of electron     270.0000056 magnetization      -0.0000000
 augmentation part       18.4358537 magnetization       0.0008972

 Broyden mixing:
  rms(total) = 0.16882E+01    rms(broyden)= 0.16878E+01
  rms(prec ) = 0.18221E+01
  weight for this iteration     100.00

 eigenvalues of (default mixing * dielectric matrix)
  average eigenvalue GAMMA=   1.5803
  0.9509  2.2097

 Free energy of the ion-electron system (eV)
  ---------------------------------------------------
  alpha Z        PSCENC =       153.28814274
  Ewald energy   TEWEN  =     27942.17813648
  -Hartree energ DENC   =    -39923.70071066
  -exchange      EXHF   =         0.00000000
  -V(xc)+E(xc)   XCENC  =      1064.56687010
  PAW double counting   =     20302.79136315   -20796.13843766
  entropy T*S    EENTRO =         0.00000000
  eigenvalues    EBANDS =     -3813.77381889
  atomic energy  EATOM  =     14592.26033195
  Solvation  Ediel_sol  =         0.00000000
  ---------------------------------------------------
  free energy    TOTEN  =      -478.52812278 eV

  energy without entropy =     -478.52812278  energy(sigma->0) =     -478.52812278


--------------------------------------------------------------------------------------------------------




--------------------------------------- Iteration      1(   8)  ---------------------------------------


    POTLOK:  cpu time    0.0969: real time    0.0991
    SETDIJ:  cpu time    0.0101: real time    0.0102
     EDDAV:  cpu time    7.5428: real time    7.6478
 BZINTS: Fermi energy: -2.270818;270.000000 electrons
         Band energy:***********;  BLOECHL correction:  0.000000
       DOS:  cpu time    0.0039: real time    0.0039
    CHARGE:  cpu time    0.1139: real time    0.1152
    MIXING:  cpu time    0.0026: real time    0.0026
    --------------------------------------------
      LOOP:  cpu time    7.7703: real time    7.8788

 eigenvalue-minimisations  :  4064
 total energy-change (2. order) : 0.1992788E+01  (-0.1117030E+01)
 number of electron     270.0000058 magnetization       0.0000000
 augmentation part       18.2075018 magnetization       0.0009273

 Broyden mixing:
  rms(total) = 0.11774E+01    rms(broyden)= 0.11773E+01
  rms(prec ) = 0.12465E+01
  weight for this iteration     100.00

 eigenvalues of (default mixing * dielectric matrix)
  average eigenvalue GAMMA=   1.7065
  3.1273  1.3038  0.6884

 Free energy of the ion-electron system (eV)
  ---------------------------------------------------
  alpha Z        PSCENC =       153.28814274
  Ewald energy   TEWEN  =     27942.17813648
  -Hartree energ DENC   =    -40035.19462405
  -exchange      EXHF   =         0.00000000
  -V(xc)+E(xc)   XCENC  =      1069.27170857
  PAW double counting   =     23927.40554939   -24423.31387254
  entropy T*S    EENTRO =         0.00000000
  eigenvalues    EBANDS =     -3702.43070727
  atomic energy  EATOM  =     14592.26033195
  Solvation  Ediel_sol  =         0.00000000
  ---------------------------------------------------
  free energy    TOTEN  =      -476.53533473 eV

  energy without entropy =     -476.53533473  energy(sigma->0) =     -476.53533473


--------------------------------------------------------------------------------------------------------




--------------------------------------- Iteration      1(   9)  ---------------------------------------


    POTLOK:  cpu time    0.1182: real time    0.1203
    SETDIJ:  cpu time    0.0086: real time    0.0086
     EDDAV:  cpu time    8.3880: real time    8.5004
 BZINTS: Fermi energy: -2.134534;270.000000 electrons
         Band energy:***********;  BLOECHL correction:  0.000000
       DOS:  cpu time    0.0038: real time    0.0038
    CHARGE:  cpu time    0.1367: real time    0.1377
    MIXING:  cpu time    0.0029: real time    0.0035
    --------------------------------------------
      LOOP:  cpu time    8.6581: real time    8.7744

 eigenvalue-minimisations  :  4920
 total energy-change (2. order) :-0.2561601E+00  (-0.1246503E+01)
 number of electron     270.0000061 magnetization       0.0000000
 augmentation part       18.2997384 magnetization       0.0003422

 Broyden mixing:
  rms(total) = 0.65099E+00    rms(broyden)= 0.65068E+00
  rms(prec ) = 0.82816E+00
  weight for this iteration     100.00

 eigenvalues of (default mixing * dielectric matrix)
  average eigenvalue GAMMA=   1.6200
  3.6357  1.4128  0.7158  0.7158

 Free energy of the ion-electron system (eV)
  ---------------------------------------------------
  alpha Z        PSCENC =       153.28814274
  Ewald energy   TEWEN  =     27942.17813648
  -Hartree energ DENC   =    -40094.33324275
  -exchange      EXHF   =         0.00000000
  -V(xc)+E(xc)   XCENC  =      1071.63082825
  PAW double counting   =     28399.47981036   -28900.15396863
  entropy T*S    EENTRO =         0.00000000
  eigenvalues    EBANDS =     -3641.14153328
  atomic energy  EATOM  =     14592.26033195
  Solvation  Ediel_sol  =         0.00000000
  ---------------------------------------------------
  free energy    TOTEN  =      -476.79149488 eV

  energy without entropy =     -476.79149488  energy(sigma->0) =     -476.79149488


--------------------------------------------------------------------------------------------------------




--------------------------------------- Iteration      1(  10)  ---------------------------------------


    POTLOK:  cpu time    0.0958: real time    0.0978
    SETDIJ:  cpu time    0.0098: real time    0.0099
     EDDAV:  cpu time    8.0805: real time    8.2974
 BZINTS: Fermi energy: -1.780695;270.000000 electrons
         Band energy:***********;  BLOECHL correction:  0.000000
       DOS:  cpu time    0.0039: real time    0.0040
    CHARGE:  cpu time    0.1438: real time    0.1453
    MIXING:  cpu time    0.0029: real time    0.0029
    --------------------------------------------
      LOOP:  cpu time    8.3368: real time    8.5574

 eigenvalue-minimisations  :  4616
 total energy-change (2. order) : 0.7485538E+00  (-0.5990202E+00)
 number of electron     270.0000059 magnetization       0.0000000
 augmentation part       18.2818826 magnetization       0.0001950

 Broyden mixing:
  rms(total) = 0.32053E+00    rms(broyden)= 0.31995E+00
  rms(prec ) = 0.38189E+00
  weight for this iteration     100.00

 eigenvalues of (default mixing * dielectric matrix)
  average eigenvalue GAMMA=   1.5297
  3.8821  1.5900  1.0105  0.5831  0.5831

 Free energy of the ion-electron system (eV)
  ---------------------------------------------------
  alpha Z        PSCENC =       153.28814274
  Ewald energy   TEWEN  =     27942.17813648
  -Hartree energ DENC   =    -40110.37075726
  -exchange      EXHF   =         0.00000000
  -V(xc)+E(xc)   XCENC  =      1072.65008874
  PAW double counting   =     30422.57112003   -30923.29226168
  entropy T*S    EENTRO =         0.00000000
  eigenvalues    EBANDS =     -3625.32774208
  atomic energy  EATOM  =     14592.26033195
  Solvation  Ediel_sol  =         0.00000000
  ---------------------------------------------------
  free energy    TOTEN  =      -476.04294107 eV

  energy without entropy =     -476.04294107  energy(sigma->0) =     -476.04294107


--------------------------------------------------------------------------------------------------------




--------------------------------------- Iteration      1(  11)  ---------------------------------------


    POTLOK:  cpu time    0.0991: real time    0.1013
    SETDIJ:  cpu time    0.0098: real time    0.0099
     EDDAV:  cpu time    8.0511: real time    8.1316
 BZINTS: Fermi energy: -1.890723;270.000000 electrons
         Band energy:***********;  BLOECHL correction:  0.000000
       DOS:  cpu time    0.0038: real time    0.0038
    CHARGE:  cpu time    0.1516: real time    0.1532
    MIXING:  cpu time    0.0031: real time    0.0031
    --------------------------------------------
      LOOP:  cpu time    8.3186: real time    8.4028

 eigenvalue-minimisations  :  4592
 total energy-change (2. order) : 0.4959623E-01  (-0.1736360E+00)
 number of electron     270.0000059 magnetization       0.0000000
 augmentation part       18.2736596 magnetization       0.0002088

 Broyden mixing:
  rms(total) = 0.21252E+00    rms(broyden)= 0.21230E+00
  rms(prec ) = 0.27640E+00
  weight for this iteration     100.00

 eigenvalues of (default mixing * dielectric matrix)
  average eigenvalue GAMMA=   1.4551
  3.8701  1.6617  1.1557  0.9562  0.5433  0.5433

 Free energy of the ion-electron system (eV)
  ---------------------------------------------------
  alpha Z        PSCENC =       153.28814274
  Ewald energy   TEWEN  =     27942.17813648
  -Hartree energ DENC   =    -40094.52177655
  -exchange      EXHF   =         0.00000000
  -V(xc)+E(xc)   XCENC  =      1072.29626951
  PAW double counting   =     31307.54655925   -31807.71106712
  entropy T*S    EENTRO =         0.00000000
  eigenvalues    EBANDS =     -3641.32994111
  atomic energy  EATOM  =     14592.26033195
  Solvation  Ediel_sol  =         0.00000000
  ---------------------------------------------------
  free energy    TOTEN  =      -475.99334485 eV

  energy without entropy =     -475.99334485  energy(sigma->0) =     -475.99334485


--------------------------------------------------------------------------------------------------------




--------------------------------------- Iteration      1(  12)  ---------------------------------------


    POTLOK:  cpu time    0.0968: real time    0.0988
    SETDIJ:  cpu time    0.0100: real time    0.0101
     EDDAV:  cpu time    8.1606: real time    8.3767
 BZINTS: Fermi energy: -1.930733;270.000000 electrons
         Band energy:***********;  BLOECHL correction:  0.000000
       DOS:  cpu time    0.0040: real time    0.0041
    CHARGE:  cpu time    0.1114: real time    0.1124
    MIXING:  cpu time    0.0030: real time    0.0030
    --------------------------------------------
      LOOP:  cpu time    8.3858: real time    8.6051

 eigenvalue-minimisations  :  4696
 total energy-change (2. order) : 0.6738422E-01  (-0.1210330E+00)
 number of electron     270.0000058 magnetization      -0.0000000
 augmentation part       18.2556320 magnetization       0.0001778

 Broyden mixing:
  rms(total) = 0.13645E+00    rms(broyden)= 0.13618E+00
  rms(prec ) = 0.17601E+00
  weight for this iteration     100.00

 eigenvalues of (default mixing * dielectric matrix)
  average eigenvalue GAMMA=   1.4556
  3.8319  2.1991  1.3249  0.8819  0.8819  0.5349  0.5349

 Free energy of the ion-electron system (eV)
  ---------------------------------------------------
  alpha Z        PSCENC =       153.28814274
  Ewald energy   TEWEN  =     27942.17813648
  -Hartree energ DENC   =    -40076.12263870
  -exchange      EXHF   =         0.00000000
  -V(xc)+E(xc)   XCENC  =      1071.72382712
  PAW double counting   =     31529.14370150   -32028.64870636
  entropy T*S    EENTRO =         0.00000000
  eigenvalues    EBANDS =     -3659.74875536
  atomic energy  EATOM  =     14592.26033195
  Solvation  Ediel_sol  =         0.00000000
  ---------------------------------------------------
  free energy    TOTEN  =      -475.92596063 eV

  energy without entropy =     -475.92596063  energy(sigma->0) =     -475.92596063


--------------------------------------------------------------------------------------------------------




--------------------------------------- Iteration      1(  13)  ---------------------------------------


    POTLOK:  cpu time    0.1152: real time    0.1173
    SETDIJ:  cpu time    0.0096: real time    0.0096
     EDDAV:  cpu time    7.2507: real time    7.3486
 BZINTS: Fermi energy: -1.965741;270.000000 electrons
         Band energy:***********;  BLOECHL correction:  0.000000
       DOS:  cpu time    0.0040: real time    0.0040
    CHARGE:  cpu time    0.1114: real time    0.1118
    MIXING:  cpu time    0.0031: real time    0.0031
    --------------------------------------------
      LOOP:  cpu time    7.4940: real time    7.5944

 eigenvalue-minimisations  :  4016
 total energy-change (2. order) : 0.4017418E-01  (-0.2348173E-01)
 number of electron     270.0000059 magnetization      -0.0000000
 augmentation part       18.2714824 magnetization       0.0000852

 Broyden mixing:
  rms(total) = 0.54095E-01    rms(broyden)= 0.54025E-01
  rms(prec ) = 0.59189E-01
  weight for this iteration     100.00

 eigenvalues of (default mixing * dielectric matrix)
  average eigenvalue GAMMA=   1.4335
  3.8187  2.5248  1.4292  0.8832  0.8832  0.8606  0.5342  0.5342

 Free energy of the ion-electron system (eV)
  ---------------------------------------------------
  alpha Z        PSCENC =       153.28814274
  Ewald energy   TEWEN  =     27942.17813648
  -Hartree energ DENC   =    -40058.39616492
  -exchange      EXHF   =         0.00000000
  -V(xc)+E(xc)   XCENC  =      1071.10722019
  PAW double counting   =     31664.75887753   -32164.15434549
  entropy T*S    EENTRO =         0.00000000
  eigenvalues    EBANDS =     -3676.92798494
  atomic energy  EATOM  =     14592.26033195
  Solvation  Ediel_sol  =         0.00000000
  ---------------------------------------------------
  free energy    TOTEN  =      -475.88578645 eV

  energy without entropy =     -475.88578645  energy(sigma->0) =     -475.88578645


--------------------------------------------------------------------------------------------------------




--------------------------------------- Iteration      1(  14)  ---------------------------------------


    POTLOK:  cpu time    0.0960: real time    0.0981
    SETDIJ:  cpu time    0.0097: real time    0.0098
     EDDAV:  cpu time    6.9874: real time    7.1368
 BZINTS: Fermi energy: -1.994499;270.000000 electrons
         Band energy:***********;  BLOECHL correction:  0.000000
       DOS:  cpu time    0.0036: real time    0.0037
    CHARGE:  cpu time    0.1130: real time    0.1133
    MIXING:  cpu time    0.0032: real time    0.0032
    --------------------------------------------
      LOOP:  cpu time    7.2130: real time    7.3649

 eigenvalue-minimisations  :  3808
 total energy-change (2. order) :-0.2685792E-03  (-0.4278912E-02)
 number of electron     270.0000059 magnetization       0.0000000
 augmentation part       18.2762040 magnetization       0.0000332

 Broyden mixing:
  rms(total) = 0.29614E-01    rms(broyden)= 0.29598E-01
  rms(prec ) = 0.32068E-01
  weight for this iteration     100.00

 eigenvalues of (default mixing * dielectric matrix)
  average eigenvalue GAMMA=   1.3908
  3.7891  2.5359  1.4392  1.0020  1.0020  0.8396  0.8396  0.5347  0.5347

 Free energy of the ion-electron system (eV)
  ---------------------------------------------------
  alpha Z        PSCENC =       153.28814274
  Ewald energy   TEWEN  =     27942.17813648
  -Hartree energ DENC   =    -40052.94328849
  -exchange      EXHF   =         0.00000000
  -V(xc)+E(xc)   XCENC  =      1070.91898555
  PAW double counting   =     31736.73111007   -32236.04292005
  entropy T*S    EENTRO =         0.00000000
  eigenvalues    EBANDS =     -3682.27655329
  atomic energy  EATOM  =     14592.26033195
  Solvation  Ediel_sol  =         0.00000000
  ---------------------------------------------------
  free energy    TOTEN  =      -475.88605503 eV

  energy without entropy =     -475.88605503  energy(sigma->0) =     -475.88605503


--------------------------------------------------------------------------------------------------------




--------------------------------------- Iteration      1(  15)  ---------------------------------------


    POTLOK:  cpu time    0.0969: real time    0.0990
    SETDIJ:  cpu time    0.0099: real time    0.0099
     EDDAV:  cpu time    7.8369: real time    7.9737
 BZINTS: Fermi energy: -1.989497;270.000000 electrons
         Band energy:***********;  BLOECHL correction:  0.000000
       DOS:  cpu time    0.0037: real time    0.0037
    CHARGE:  cpu time    0.1120: real time    0.1124
    MIXING:  cpu time    0.0031: real time    0.0031
    --------------------------------------------
      LOOP:  cpu time    8.0626: real time    8.2018

 eigenvalue-minimisations  :  4384
 total energy-change (2. order) : 0.5147351E-03  (-0.5300434E-03)
 number of electron     270.0000059 magnetization       0.0000000
 augmentation part       18.2757295 magnetization       0.0000038

 Broyden mixing:
  rms(total) = 0.22620E-01    rms(broyden)= 0.22617E-01
  rms(prec ) = 0.23575E-01
  weight for this iteration     100.00

 eigenvalues of (default mixing * dielectric matrix)
  average eigenvalue GAMMA=   1.4116
  3.7022  2.7122  1.6284  1.2516  1.2516  0.8880  0.8880  0.7213  0.5365  0.5365

 Free energy of the ion-electron system (eV)
  ---------------------------------------------------
  alpha Z        PSCENC =       153.28814274
  Ewald energy   TEWEN  =     27942.17813648
  -Hartree energ DENC   =    -40054.30824805
  -exchange      EXHF   =         0.00000000
  -V(xc)+E(xc)   XCENC  =      1070.95047559
  PAW double counting   =     31745.18249816   -32244.55869883
  entropy T*S    EENTRO =         0.00000000
  eigenvalues    EBANDS =     -3680.87817835
  atomic energy  EATOM  =     14592.26033195
  Solvation  Ediel_sol  =         0.00000000
  ---------------------------------------------------
  free energy    TOTEN  =      -475.88554030 eV

  energy without entropy =     -475.88554030  energy(sigma->0) =     -475.88554030


--------------------------------------------------------------------------------------------------------




--------------------------------------- Iteration      1(  16)  ---------------------------------------


    POTLOK:  cpu time    0.0971: real time    0.0989
    SETDIJ:  cpu time    0.0098: real time    0.0099
     EDDAV:  cpu time    7.8984: real time    7.9869
 BZINTS: Fermi energy: -1.985746;270.000000 electrons
         Band energy:***********;  BLOECHL correction:  0.000000
       DOS:  cpu time    0.0037: real time    0.0037
    CHARGE:  cpu time    0.1144: real time    0.1180
    MIXING:  cpu time    0.0034: real time    0.0040
    --------------------------------------------
      LOOP:  cpu time    8.1267: real time    8.2214

 eigenvalue-minimisations  :  4568
 total energy-change (2. order) : 0.3047625E-04  (-0.2174664E-03)
 number of electron     270.0000059 magnetization       0.0000000
 augmentation part       18.2758243 magnetization      -0.0000072

 Broyden mixing:
  rms(total) = 0.14157E-01    rms(broyden)= 0.14153E-01
  rms(prec ) = 0.14729E-01
  weight for this iteration     100.00

 eigenvalues of (default mixing * dielectric matrix)
  average eigenvalue GAMMA=   1.4702
  3.5941  3.2074  2.2110  1.2020  1.2020  1.1321  0.8806  0.8806  0.7919  0.5355
  0.5355

 Free energy of the ion-electron system (eV)
  ---------------------------------------------------
  alpha Z        PSCENC =       153.28814274
  Ewald energy   TEWEN  =     27942.17813648
  -Hartree energ DENC   =    -40054.73175758
  -exchange      EXHF   =         0.00000000
  -V(xc)+E(xc)   XCENC  =      1070.95411750
  PAW double counting   =     31745.24687069   -32244.64937462
  entropy T*S    EENTRO =         0.00000000
  eigenvalues    EBANDS =     -3680.43197698
  atomic energy  EATOM  =     14592.26033195
  Solvation  Ediel_sol  =         0.00000000
  ---------------------------------------------------
  free energy    TOTEN  =      -475.88550982 eV

  energy without entropy =     -475.88550982  energy(sigma->0) =     -475.88550982


--------------------------------------------------------------------------------------------------------




--------------------------------------- Iteration      1(  17)  ---------------------------------------


    POTLOK:  cpu time    0.0970: real time    0.1003
    SETDIJ:  cpu time    0.0099: real time    0.0101
     EDDAV:  cpu time    6.0734: real time    6.1713
 BZINTS: Fermi energy: -1.985746;270.000000 electrons
         Band energy:***********;  BLOECHL correction:  0.000000
       DOS:  cpu time    0.0043: real time    0.0043
    CHARGE:  cpu time    0.1123: real time    0.1127
    MIXING:  cpu time    0.0035: real time    0.0035
    --------------------------------------------
      LOOP:  cpu time    6.3003: real time    6.4022

 eigenvalue-minimisations  :  3088
 total energy-change (2. order) :-0.5531820E-04  (-0.1172168E-03)
 number of electron     270.0000059 magnetization       0.0000000
 augmentation part       18.2753755 magnetization      -0.0000233

 Broyden mixing:
  rms(total) = 0.76090E-02    rms(broyden)= 0.76039E-02
  rms(prec ) = 0.89720E-02
  weight for this iteration     100.00

 eigenvalues of (default mixing * dielectric matrix)
  average eigenvalue GAMMA=   1.5307
  3.7188  3.6254  2.4734  1.5861  1.2011  1.2011  1.0332  0.8470  0.8470  0.7648
  0.5353  0.5353

 Free energy of the ion-electron system (eV)
  ---------------------------------------------------
  alpha Z        PSCENC =       153.28814274
  Ewald energy   TEWEN  =     27942.17813648
  -Hartree energ DENC   =    -40055.18936137
  -exchange      EXHF   =         0.00000000
  -V(xc)+E(xc)   XCENC  =      1070.96852988
  PAW double counting   =     31756.18897555   -32255.58921221
  entropy T*S    EENTRO =         0.00000000
  eigenvalues    EBANDS =     -3679.99110816
  atomic energy  EATOM  =     14592.26033195
  Solvation  Ediel_sol  =         0.00000000
  ---------------------------------------------------
  free energy    TOTEN  =      -475.88556514 eV

  energy without entropy =     -475.88556514  energy(sigma->0) =     -475.88556514


--------------------------------------------------------------------------------------------------------




--------------------------------------- Iteration      1(  18)  ---------------------------------------


    POTLOK:  cpu time    0.0976: real time    0.1000
    SETDIJ:  cpu time    0.0098: real time    0.0098
     EDDAV:  cpu time    5.3852: real time    5.4614
 BZINTS: Fermi energy: -1.985746;270.000000 electrons
         Band energy:***********;  BLOECHL correction:  0.000000
       DOS:  cpu time    0.0038: real time    0.0038
    CHARGE:  cpu time    0.1119: real time    0.1124
    MIXING:  cpu time    0.0040: real time    0.0040
    --------------------------------------------
      LOOP:  cpu time    5.6124: real time    5.6914

 eigenvalue-minimisations  :  2392
 total energy-change (2. order) :-0.1125664E-04  (-0.1453413E-03)
 number of electron     270.0000059 magnetization       0.0000000
 augmentation part       18.2754110 magnetization      -0.0000287

 Broyden mixing:
  rms(total) = 0.51373E-02    rms(broyden)= 0.51236E-02
  rms(prec ) = 0.73515E-02
  weight for this iteration     100.00

 eigenvalues of (default mixing * dielectric matrix)
  average eigenvalue GAMMA=   1.5084
  3.7890  3.7890  2.6011  1.6889  1.2475  1.2475  0.8759  0.8759  0.9501  0.5348
  0.5348  0.7375  0.7375

 Free energy of the ion-electron system (eV)
  ---------------------------------------------------
  alpha Z        PSCENC =       153.28814274
  Ewald energy   TEWEN  =     27942.17813648
  -Hartree energ DENC   =    -40055.31258657
  -exchange      EXHF   =         0.00000000
  -V(xc)+E(xc)   XCENC  =      1070.97494573
  PAW double counting   =     31766.17012521   -32265.56757178
  entropy T*S    EENTRO =         0.00000000
  eigenvalues    EBANDS =     -3679.87710016
  atomic energy  EATOM  =     14592.26033195
  Solvation  Ediel_sol  =         0.00000000
  ---------------------------------------------------
  free energy    TOTEN  =      -475.88557640 eV

  energy without entropy =     -475.88557640  energy(sigma->0) =     -475.88557640


--------------------------------------------------------------------------------------------------------




--------------------------------------- Iteration      1(  19)  ---------------------------------------


    POTLOK:  cpu time    0.0978: real time    0.0998
    SETDIJ:  cpu time    0.0100: real time    0.0100
     EDDAV:  cpu time    4.9029: real time    4.9887
 BZINTS: Fermi energy: -1.985746;270.000000 electrons
         Band energy:***********;  BLOECHL correction:  0.000000
       DOS:  cpu time    0.0042: real time    0.0042
    --------------------------------------------
      LOOP:  cpu time    5.0148: real time    5.1027

 eigenvalue-minimisations  :  2120
 total energy-change (2. order) : 0.4652056E-04  (-0.4310503E-04)
 number of electron     270.0000059 magnetization       0.0000000
 augmentation part       18.2754110 magnetization      -0.0000287

 Free energy of the ion-electron system (eV)
  ---------------------------------------------------
  alpha Z        PSCENC =       153.28814274
  Ewald energy   TEWEN  =     27942.17813648
  -Hartree energ DENC   =    -40055.39189107
  -exchange      EXHF   =         0.00000000
  -V(xc)+E(xc)   XCENC  =      1070.97772908
  PAW double counting   =     31765.68589004   -32265.07985343
  entropy T*S    EENTRO =         0.00000000
  eigenvalues    EBANDS =     -3679.80401566
  atomic energy  EATOM  =     14592.26033195
  Solvation  Ediel_sol  =         0.00000000
  ---------------------------------------------------
  free energy    TOTEN  =      -475.88552988 eV

  energy without entropy =     -475.88552988  energy(sigma->0) =     -475.88552988


--------------------------------------------------------------------------------------------------------




 average (electrostatic) potential at core
  the test charge radii are     0.6991  0.7089  0.9911
  (the norm of the test charge is              1.0000)
       1 -60.2779       2 -60.6407       3 -60.6404       4 -60.3161       5 -60.3198
       6 -60.3342       7 -60.4795       8 -60.3123       9 -60.2148      10 -61.0261
      11 -60.4721      12 -61.0028      13 -60.2765      14 -60.2532      15 -60.0242
      16 -60.3391      17 -60.3237      18 -60.2944      19 -60.5779      20 -60.2738
      21 -60.3130      22 -60.4153      23 -60.3813      24 -60.3689      25 -74.3118
      26 -71.9785      27 -71.9589      28 -72.1996      29 -72.3212      30 -72.0265
      31 -72.0058      32 -74.7101      33 -73.9493      34 -72.4910      35 -73.5230
      36 -72.1096      37 -72.1225      38 -72.5516      39 -73.4737      40 -74.8248
      41 -74.0786      42 -72.1063      43 -72.0167      44 -72.3421      45 -72.3159
      46 -71.9957      47 -72.0065      48 -74.5814      49 -74.1332      50 -72.2852
      51 -72.1628      52 -71.9893      53 -71.9451      54 -72.2470      55 -72.1646
      56 -74.8572      57 -81.8583
 
 
 
 E-fermi :  -1.9857     XC(G=0):  -3.0709     alpha+bet : -2.3914


 spin component 1

 k-point     1 :       0.0000    0.0000    0.0000
  band No.  band energies     occupation 
      1     -27.2157      1.00000
      2     -27.2040      1.00000
      3     -27.1648      1.00000
      4     -27.1170      1.00000
      5     -27.0877      1.00000
      6     -26.7641      1.00000
      7     -26.6405      1.00000
      8     -26.4243      1.00000
      9     -26.3317      1.00000
     10     -25.4201      1.00000
     11     -25.3095      1.00000
     12     -25.2692      1.00000
     13     -24.3809      1.00000
     14     -24.3377      1.00000
     15     -24.2238      1.00000
     16     -24.1502      1.00000
     17     -24.0911      1.00000
     18     -23.9719      1.00000
     19     -23.2659      1.00000
     20     -23.0477      1.00000
     21     -23.0396      1.00000
     22     -22.2694      1.00000
     23     -22.2146      1.00000
     24     -22.0210      1.00000
     25     -21.9078      1.00000
     26     -21.8460      1.00000
     27     -21.8380      1.00000
     28     -21.7334      1.00000
     29     -21.7057      1.00000
     30     -21.3818      1.00000
     31     -21.3102      1.00000
     32     -21.2164      1.00000
     33     -20.8949      1.00000
     34     -20.7208      1.00000
     35     -20.6099      1.00000
     36     -20.4333      1.00000
     37     -20.2081      1.00000
     38     -17.7087      1.00000
     39     -17.6233      1.00000
     40     -17.4900      1.00000
     41     -17.2635      1.00000
     42     -17.1397      1.00000
     43     -17.1039      1.00000
     44     -16.7013      1.00000
     45     -16.4751      1.00000
     46     -15.8692      1.00000
     47     -15.7465      1.00000
     48     -15.6510      1.00000
     49     -15.3656      1.00000
     50     -15.2173      1.00000
     51     -15.1816      1.00000
     52     -14.5552      1.00000
     53     -14.4615      1.00000
     54     -14.1726      1.00000
     55     -14.0091      1.00000
     56     -13.9509      1.00000
     57     -13.9230      1.00000
     58     -13.7396      1.00000
     59     -13.7226      1.00000
     60     -13.6461      1.00000
     61     -13.5739      1.00000
     62     -13.4886      1.00000
     63     -12.6582      1.00000
     64     -12.5455      1.00000
     65     -12.4351      1.00000
     66     -12.3242      1.00000
     67     -12.2103      1.00000
     68     -12.1656      1.00000
     69     -12.1325      1.00000
     70     -12.0544      1.00000
     71     -11.9585      1.00000
     72     -11.8407      1.00000
     73     -11.7115      1.00000
     74     -11.5996      1.00000
     75     -11.5440      1.00000
     76     -11.3739      1.00000
     77     -11.2658      1.00000
     78     -10.8594      1.00000
     79     -10.7527      1.00000
     80     -10.4394      1.00000
     81     -10.3563      1.00000
     82     -10.1490      1.00000
     83     -10.1253      1.00000
     84      -9.8378      1.00000
     85      -9.6642      1.00000
     86      -9.4368      1.00000
     87      -9.3243      1.00000
     88      -9.3129      1.00000
     89      -9.2197      1.00000
     90      -9.1682      1.00000
     91      -8.8479      1.00000
     92      -8.2484      1.00000
     93      -8.2202      1.00000
     94      -8.1163      1.00000
     95      -8.0282      1.00000
     96      -7.9396      1.00000
     97      -7.6962      1.00000
     98      -7.6311      1.00000
     99      -7.4810      1.00000
    100      -7.3341      1.00000
    101      -7.3282      1.00000
    102      -7.2804      1.00000
    103      -7.2032      1.00000
    104      -7.1536      1.00000
    105      -7.1195      1.00000
    106      -6.9888      1.00000
    107      -6.9648      1.00000
    108      -6.8529      1.00000
    109      -6.6285      1.00000
    110      -6.4402      1.00000
    111      -6.3262      1.00000
    112      -6.2350      1.00000
    113      -6.1134      1.00000
    114      -5.9897      1.00000
    115      -5.7421      1.00000
    116      -5.5869      1.00000
    117      -5.5088      1.00000
    118      -5.4875      1.00000
    119      -5.4328      1.00000
    120      -5.3246      1.00000
    121      -5.2539      1.00000
    122      -5.1168      1.00000
    123      -4.9400      1.00000
    124      -4.8808      1.00000
    125      -4.8397      1.00000
    126      -4.7241      1.00000
    127      -4.6203      1.00000
    128      -4.4796      1.00000
    129      -4.3824      1.00000
    130      -4.3008      1.00000
    131      -4.1303      1.00000
    132      -4.0739      1.00000
    133      -3.9804      1.00000
    134      -3.8106      1.00000
    135      -2.1150      1.00000
    136      -1.8323      0.00000
    137      -1.6297      0.00000
    138      -1.3212      0.00000
    139      -1.1313      0.00000
    140      -1.0374      0.00000
    141      -0.9435      0.00000
    142      -0.6824      0.00000
    143      -0.5623      0.00000
    144      -0.3326      0.00000
    145      -0.2625      0.00000
    146       0.0516      0.00000
    147       0.2179      0.00000
    148       0.8609      0.00000
    149       1.1739      0.00000
    150       1.3520      0.00000
    151       1.3689      0.00000
    152       1.5637      0.00000
    153       1.6721      0.00000
    154       1.7562      0.00000
    155       1.8049      0.00000
    156       1.9217      0.00000
    157       1.9681      0.00000
    158       2.0125      0.00000
    159       2.0968      0.00000
    160       2.2286      0.00000
    161       2.3243      0.00000
    162       2.4355      0.00000
    163       2.5074      0.00000
    164       2.6269      0.00000
    165       2.7069      0.00000
    166       2.7667      0.00000
    167       2.8097      0.00000
    168       2.8789      0.00000

 k-point     2 :       0.3333    0.0000    0.0000
  band No.  band energies     occupation 
      1     -27.2159      1.00000
      2     -27.2038      1.00000
      3     -27.1648      1.00000
      4     -27.1170      1.00000
      5     -27.0877      1.00000
      6     -26.7420      1.00000
      7     -26.6626      1.00000
      8     -26.4243      1.00000
      9     -26.3504      1.00000
     10     -25.3928      1.00000
     11     -25.2796      1.00000
     12     -25.1604      1.00000
     13     -24.7904      1.00000
     14     -24.2947      1.00000
     15     -24.2292      1.00000
     16     -24.1258      1.00000
     17     -24.0776      1.00000
     18     -23.6774      1.00000
     19     -23.3117      1.00000
     20     -23.0594      1.00000
     21     -22.9645      1.00000
     22     -22.3049      1.00000
     23     -22.1672      1.00000
     24     -22.0987      1.00000
     25     -21.9896      1.00000
     26     -21.9789      1.00000
     27     -21.8967      1.00000
     28     -21.7558      1.00000
     29     -21.7448      1.00000
     30     -21.2994      1.00000
     31     -21.2397      1.00000
     32     -21.0919      1.00000
     33     -20.9418      1.00000
     34     -20.6560      1.00000
     35     -20.5988      1.00000
     36     -20.3720      1.00000
     37     -20.2589      1.00000
     38     -17.6274      1.00000
     39     -17.6067      1.00000
     40     -17.4484      1.00000
     41     -17.3472      1.00000
     42     -17.2008      1.00000
     43     -17.0355      1.00000
     44     -16.9351      1.00000
     45     -16.7337      1.00000
     46     -15.7687      1.00000
     47     -15.6896      1.00000
     48     -15.5660      1.00000
     49     -15.4889      1.00000
     50     -14.9261      1.00000
     51     -14.7244      1.00000
     52     -14.5711      1.00000
     53     -14.3811      1.00000
     54     -14.2375      1.00000
     55     -14.0583      1.00000
     56     -13.9846      1.00000
[...]
   -.145E+02 0.309E+02 0.124E+03   0.123E+02 -.309E+02 -.124E+03   0.267E+01 0.189E+00 0.535E+00   -.167E-02 0.128E-02 0.445E-02
   0.676E+02 -.550E+02 -.852E+02   -.704E+02 0.564E+02 0.855E+02   0.275E+01 -.147E+01 -.232E+00   -.197E-02 -.210E-02 -.376E-03
   -.135E+02 0.522E+02 0.196E+03   0.140E+02 -.549E+02 -.198E+03   -.444E+00 0.290E+01 0.166E+01   -.303E-02 -.288E-02 -.452E-03
   -.630E+02 -.179E+02 0.941E+02   0.657E+02 0.192E+02 -.952E+02   -.277E+01 -.136E+01 0.103E+01   -.208E-02 -.361E-03 0.164E-02
   0.394E+02 -.280E+02 -.336E+02   -.398E+02 0.259E+02 0.330E+02   0.503E+00 0.246E+01 0.826E+00   0.543E-02 -.260E-02 0.962E-03
   0.258E+02 -.148E+02 -.481E+02   -.234E+02 0.162E+02 0.478E+02   -.278E+01 -.177E+01 0.395E+00   0.507E-02 -.196E-02 0.138E-02
   -.866E+01 -.346E+00 -.587E+02   0.595E+01 0.158E+01 0.585E+02   0.308E+01 -.155E+01 0.262E+00   -.198E-02 0.243E-02 0.106E-03
   -.237E+02 0.177E+02 -.706E+02   0.225E+02 -.160E+02 0.718E+02   0.104E+01 -.177E+01 -.112E+01   -.123E-01 0.543E-02 0.596E-02
   -.338E+01 0.214E+02 0.467E+02   0.335E+01 -.246E+02 -.462E+02   0.662E-01 0.309E+01 -.638E+00   -.213E-02 -.879E-02 0.431E-02
   0.315E+02 0.163E+02 -.638E+02   -.302E+02 -.143E+02 0.647E+02   -.120E+01 -.213E+01 -.798E+00   0.932E-02 0.484E-02 0.448E-02
   -.385E+01 -.172E+02 -.141E+02   0.400E+01 0.141E+02 0.145E+02   -.103E+00 0.336E+01 -.636E+00   0.143E-03 -.708E-02 0.242E-02
   0.384E+02 0.288E+02 0.189E+03   -.360E+02 -.276E+02 -.189E+03   -.284E+01 -.140E+01 -.694E+00   0.667E-02 0.233E-02 0.159E-02
   -.136E+02 0.226E+02 0.854E+02   0.111E+02 -.215E+02 -.849E+02   0.298E+01 -.132E+01 -.521E+00   0.226E-03 -.263E-02 0.105E-03
   0.653E+02 -.167E+02 0.647E+02   -.681E+02 0.181E+02 -.653E+02   0.280E+01 -.142E+01 0.529E+00   0.242E-02 0.159E-02 0.131E-02
   0.242E+01 0.743E+02 0.210E+03   -.237E+01 -.770E+02 -.212E+03   0.134E-01 0.282E+01 0.164E+01   0.229E-02 0.335E-04 0.265E-02
   -.645E+02 -.581E+02 -.967E+02   0.674E+02 0.595E+02 0.973E+02   -.273E+01 -.146E+01 -.426E+00   0.364E-03 -.101E-02 -.826E-04
   -.329E+02 -.273E+02 -.139E+03   0.329E+02 0.253E+02 0.138E+03   -.240E+00 0.244E+01 0.912E+00   -.473E-02 0.395E-03 0.109E-02
   0.120E+02 -.185E+01 -.107E+03   -.931E+01 0.302E+01 0.107E+03   -.312E+01 -.148E+01 0.508E+00   0.488E-02 0.466E-02 -.898E-03
   -.285E+02 -.105E+02 -.877E+02   0.262E+02 0.120E+02 0.870E+02   0.279E+01 -.187E+01 0.858E+00   -.755E-02 -.166E-03 0.968E-04
   0.714E+02 -.696E+02 0.136E+03   -.740E+02 0.717E+02 -.136E+03   0.277E+01 -.193E+01 0.124E+00   0.187E-02 0.563E-03 0.199E-02
   -.105E+02 0.430E+02 -.185E+03   0.106E+02 -.463E+02 0.186E+03   -.403E-01 0.331E+01 -.141E+01   0.964E-03 0.234E-02 -.150E-02
   -.831E+02 -.255E+02 -.593E+02   0.859E+02 0.265E+02 0.604E+02   -.304E+01 -.876E+00 -.108E+01   -.205E-02 0.269E-02 0.222E-02
   -.141E+02 0.361E+02 0.166E+03   0.145E+02 -.372E+02 -.169E+03   -.343E+00 0.104E+01 0.262E+01   -.923E-02 -.977E-03 0.571E-02
   -.196E+03 -.335E+02 0.222E+03   0.228E+03 0.507E+02 -.235E+03   -.308E+02 -.166E+02 0.123E+02   -.926E-02 -.670E-02 0.405E-02
   0.158E+03 -.154E+03 -.235E+03   -.190E+03 0.170E+03 0.247E+03   0.304E+02 -.161E+02 -.109E+02   0.326E-02 -.657E-02 -.211E-02
   0.504E+01 0.173E+03 0.391E+03   -.243E+01 -.202E+03 -.414E+03   -.251E+01 0.287E+02 0.223E+02   0.331E-02 -.258E-02 0.948E-03
   -.359E+02 0.141E+03 0.413E+03   0.334E+02 -.168E+03 -.439E+03   0.239E+01 0.268E+02 0.249E+02   -.679E-02 -.209E-02 0.132E-02
   0.195E+03 -.998E+02 -.111E+03   -.226E+03 0.120E+03 0.111E+03   0.295E+02 -.197E+02 -.997E-01   0.488E-02 -.735E-02 -.259E-03
   -.148E+03 -.810E+02 0.251E+03   0.179E+03 0.907E+02 -.271E+03   -.299E+02 -.938E+01 0.195E+02   -.649E-02 -.168E-02 0.552E-02
   -.450E+01 -.179E+01 -.239E+02   0.472E+01 0.172E+01 0.250E+02   -.188E+00 0.253E-01 -.103E+01   0.119E-02 0.266E-02 -.534E-03
   0.155E+02 -.221E+02 -.958E+02   -.157E+02 0.228E+02 0.100E+03   0.220E+00 -.730E+00 -.403E+01   0.377E-02 -.275E-02 0.315E-04
   -.393E+01 -.614E+02 -.301E+03   0.262E+02 0.752E+02 0.325E+03   -.216E+02 -.133E+02 -.230E+02   0.818E-02 -.252E-02 -.184E-02
   0.104E+02 0.664E+02 -.755E+02   -.305E+02 -.623E+02 0.862E+02   0.192E+02 -.416E+01 -.105E+02   -.156E-01 0.803E-02 0.103E-01
   -.161E+02 0.116E+03 0.123E+03   0.191E+02 -.151E+03 -.133E+03   -.282E+01 0.336E+02 0.989E+01   -.765E-02 -.400E-02 0.615E-02
   -.477E+00 0.113E+03 0.137E+03   -.165E+01 -.148E+03 -.147E+03   0.197E+01 0.334E+02 0.999E+01   0.123E-02 -.503E-02 0.776E-02
   0.432E+02 -.601E+02 -.329E+03   -.700E+02 0.744E+02 0.348E+03   0.259E+02 -.138E+02 -.176E+02   -.116E-01 0.291E-03 0.135E-02
   -.387E+01 0.759E+02 -.107E+03   0.222E+02 -.724E+02 0.121E+03   -.175E+02 -.358E+01 -.142E+02   0.196E-02 0.494E-02 0.383E-02
   0.486E+02 0.179E+02 0.743E+02   -.530E+02 -.210E+02 -.740E+02   0.413E+01 0.289E+01 -.412E+00   0.677E-02 0.268E-03 0.142E-02
   0.143E+02 0.388E+02 0.147E+03   -.163E+02 -.404E+02 -.152E+03   0.193E+01 0.162E+01 0.413E+01   0.445E-02 -.284E-02 0.162E-02
   -.192E+03 -.105E+03 -.121E+03   0.223E+03 0.125E+03 0.122E+03   -.299E+02 -.190E+02 -.831E+00   -.490E-02 -.488E-02 0.364E-03
   0.152E+03 -.690E+02 0.195E+03   -.184E+03 0.783E+02 -.212E+03   0.309E+02 -.904E+01 0.167E+02   0.759E-02 0.259E-02 0.370E-02
   0.989E+01 0.162E+03 0.427E+03   -.502E+01 -.191E+03 -.451E+03   -.474E+01 0.277E+02 0.230E+02   0.621E-02 0.588E-02 0.111E-01
   0.277E+01 0.237E+03 0.355E+03   -.446E+01 -.272E+03 -.366E+03   0.148E+01 0.338E+02 0.108E+02   0.428E-02 0.892E-02 0.477E-02
   0.197E+03 -.349E+02 0.135E+03   -.230E+03 0.533E+02 -.141E+03   0.313E+02 -.177E+02 0.593E+01   0.902E-02 -.613E-03 0.339E-02
   -.144E+03 -.158E+03 -.289E+03   0.174E+03 0.175E+03 0.304E+03   -.290E+02 -.159E+02 -.141E+02   -.435E-02 -.276E-02 -.247E-02
   0.790E+00 -.322E+02 -.125E+02   -.677E+00 0.335E+02 0.101E+02   -.138E+00 -.118E+01 0.226E+01   -.144E-02 -.340E-02 0.348E-02
   -.149E+02 -.252E+02 -.187E+03   0.147E+02 0.272E+02 0.192E+03   0.135E+00 -.198E+01 -.539E+01   -.362E-02 0.652E-04 -.444E-03
   -.226E+03 -.662E+02 -.916E+02   0.257E+03 0.851E+02 0.925E+02   -.304E+02 -.183E+02 -.877E+00   -.660E-02 0.479E-02 0.354E-02
   0.179E+03 -.148E+03 0.301E+03   -.211E+03 0.165E+03 -.309E+03   0.309E+02 -.159E+02 0.680E+01   0.103E-01 -.393E-02 0.330E-02
   -.297E+00 0.150E+03 -.380E+03   0.503E+01 -.179E+03 0.404E+03   -.453E+01 0.283E+02 -.227E+02   0.644E-03 0.733E-02 -.540E-02
   -.347E+02 0.115E+03 -.427E+03   0.331E+02 -.143E+03 0.454E+03   0.149E+01 0.264E+02 -.260E+02   0.371E-02 0.765E-02 -.512E-02
   0.189E+03 -.128E+03 0.233E+03   -.214E+03 0.152E+03 -.246E+03   0.241E+02 -.226E+02 0.124E+02   0.990E-02 -.466E-03 0.589E-02
   -.169E+03 -.738E+02 -.184E+03   0.203E+03 0.829E+02 0.198E+03   -.319E+02 -.900E+01 -.142E+02   0.990E-03 -.350E-02 -.341E-03
   -.457E+02 0.208E+02 0.440E+02   0.488E+02 -.232E+02 -.464E+02   -.290E+01 0.219E+01 0.217E+01   -.439E-02 0.347E-02 0.389E-02
   0.458E+02 -.114E+03 -.982E+03   -.470E+02 0.131E+03 0.100E+04   0.119E+01 -.167E+02 -.201E+02   0.426E-03 -.800E-02 -.128E-01
 -----------------------------------------------------------------------------------------------
   0.288E+01 -.418E+01 0.306E-01   0.263E-12 -.256E-12 0.455E-12   -.287E+01 0.420E+01 -.130E+00   -.101E-01 -.177E-01 0.104E+00
 
 
 POSITION                                       TOTAL-FORCE (eV/Angst)
 -----------------------------------------------------------------------------------
     -0.01465      2.42745      6.26902        -0.015855      0.592130     -0.170258
      1.19620      4.51545      6.36742        -0.579693      0.141627      0.034871
     -1.24939      4.47082      6.28112         0.545897      0.117912      0.081026
      5.63567      0.64806      7.43370        -0.103904     -0.028428      0.129532
      3.41829      4.51423      6.06412        -0.006397      0.119198     -0.121917
      1.16218      0.58352      6.59562         0.071210      0.017917     -0.093987
     -3.52154      8.14140      7.11335         0.108667      0.470776      0.270038
     -2.18004     10.14812      7.36766        -0.416220     -0.397121      0.070356
     -4.58919     10.24169      7.32244         0.439318     -0.356181      0.087711
      2.35773      6.20016      7.37799        -0.152149     -0.007586      0.098199
      0.03862     10.06229      7.18786         0.036320     -0.190047     -0.158052
     -2.49820      6.19697      7.06587         0.103046     -0.086511      0.199378
      6.84683      2.43985      6.94876         0.060230      0.400218     -0.194549
      7.94181      4.32042      5.87828        -0.534492     -0.229688     -0.118562
      5.60591      4.40536      6.40129         0.540071     -0.284300     -0.033040
     12.39125      0.42378      6.77229        -0.102947     -0.014529     -0.086230
     10.14038      4.25427      5.79004         0.086145      0.071774     -0.155387
      8.00418      0.63523      7.52687         0.159741     -0.011775      0.145779
      3.49524      8.03646      7.80936        -0.183151      0.604034      0.262389
      4.62907     10.13626      7.68634        -0.516717     -0.338367      0.256809
      2.21408     10.11508      7.66351         0.511641     -0.417736      0.187723
      8.91191      6.27541      6.18149         0.122960      0.191938     -0.054457
      6.83077     10.15646      7.85957         0.000794     -0.039995      0.206292
      4.66660      6.24092      7.20095        -0.085046      0.164221      0.080121
     -0.01407      3.81356      6.24792         0.056621     -0.018565     -0.061383
      1.14304      1.81413      6.18800         1.076452      0.591274     -0.512746
      4.54971     -0.04215      7.67572        -1.025067      0.621701      0.653953
      4.55189      3.94408      5.76808         0.115948     -0.985816     -0.982139
      2.22959      4.07017      5.72937        -0.052486     -0.805201     -1.097853
      5.66119      1.93109      7.24933        -1.040018      0.882585      0.151400
     -4.54992     11.29659      6.56585         1.053523      0.295858     -0.878768
      0.01649      0.02096      7.09777         0.032574     -0.046037      0.079339
     -3.40234      9.49162      7.35382         0.031386     -0.004625      0.175738
     -2.55902      7.37055      7.61148         0.653766      0.517270      1.076898
      1.19565      5.56697      7.22579        -0.886845     -0.079037      0.301980
      1.18698      9.42782      7.19893         0.151631     -1.190105     -0.526177
     -1.10692      9.44290      7.04679        -0.161844     -1.175497     -0.520540
      2.37423      7.33400      8.00906        -0.848845      0.491422      0.952554
     -1.35783      5.51671      7.13121         0.829836     -0.090021      0.561346
     10.04491      5.49953      6.40902        -0.232031     -0.192282     -0.077818
      6.81431      3.65924      6.31097        -0.062601     -0.007544     -0.243666
      8.01364      1.91330      7.27999         1.034487      0.890101      0.080102
      4.53244     11.14878      6.87738        -1.098553      0.267365     -0.808491
     -2.21240      3.98762      5.56840         0.144767     -0.852054     -1.096581
      9.02715      3.62888      5.57907        -0.200476     -1.257525     -0.568922
     12.37884      1.65987      6.39642        -1.104405      0.675426     -0.274716
      9.03866     -0.06492      7.93037         0.919289      0.644672      0.747767
      6.82272     -0.04986      7.32514        -0.025644      0.093784     -0.135696
      3.42102      9.41404      7.85273        -0.062908      0.030626      0.243690
      4.64800      7.50141      7.53323         1.182375      0.577741      0.025115
      7.85204      5.65154      5.81748        -1.236097      0.374063     -0.613872
     -5.57116      9.77346      8.06556         0.209004     -0.968359      0.958601
      5.69064      9.69297      8.32093        -0.052964     -0.776187      1.136344
     -4.53652      7.76152      6.38796        -0.915742      0.784380     -0.609698
      5.72363      5.50590      7.11216         1.261178      0.061745      0.600136
      3.45618      5.65671      6.86727         0.188863     -0.236399     -0.216139
     -0.13126      6.74159      8.19958        -0.024643      0.395760      0.556456
 -----------------------------------------------------------------------------------
    total drift:                               -0.003865      0.004586      0.004578


--------------------------------------------------------------------------------------------------------



  FREE ENERGIE OF THE ION-ELECTRON SYSTEM (eV)
  ---------------------------------------------------
  free  energy   TOTEN  =      -479.97361710 eV

  energy  without entropy=     -479.97361710  energy(sigma->0) =     -479.97361710
 


--------------------------------------------------------------------------------------------------------


    POTLOK:  cpu time    0.1048: real time    0.1051


--------------------------------------------------------------------------------------------------------


 stress matrix after NEB project (eV)
     71.48544     -1.52474      2.04139
     -1.52474     62.62038      3.43404
      2.04139      3.43404      7.85163
  FORCES: max atom, RMS     1.429929    0.923794
  FORCE total and by dimension    6.974489    1.261178
  Stress total and by dimension   95.549456   71.485444
     LOOP+:  cpu time  153.4716: real time  156.1352
    4ORBIT:  cpu time    0.0000: real time    0.0000
 


 total charge     
 
# of ion       s       p       d       tot
------------------------------------------
    1        0.866   1.795   0.000   2.662
    2        0.853   1.781   0.000   2.633
    3        0.856   1.787   0.000   2.642
    4        0.879   1.805   0.000   2.684
    5        0.869   1.802   0.000   2.671
    6        0.883   1.816   0.000   2.699
    7        0.867   1.789   0.000   2.656
    8        0.865   1.783   0.000   2.648
    9        0.871   1.786   0.000   2.656
   10        0.883   1.837   0.000   2.720
   11        0.880   1.809   0.000   2.689
   12        0.888   1.847   0.000   2.735
   13        0.865   1.783   0.000   2.648
   14        0.860   1.786   0.000   2.647
   15        0.858   1.789   0.000   2.647
   16        0.884   1.821   0.000   2.705
   17        0.871   1.811   0.000   2.682
   18        0.876   1.802   0.000   2.678
   19        0.865   1.786   0.000   2.651
   20        0.868   1.782   0.000   2.650
   21        0.862   1.775   0.000   2.637
   22        0.877   1.806   0.000   2.683
   23        0.877   1.793   0.000   2.670
   24        0.880   1.823   0.000   2.703
   25        1.216   2.783   0.000   3.999
   26        1.278   2.713   0.000   3.992
   27        1.275   2.710   0.000   3.985
   28        1.278   2.681   0.000   3.958
   29        1.276   2.702   0.000   3.979
   30        1.274   2.706   0.000   3.980
   31        1.284   2.706   0.000   3.990
   32        1.242   2.817   0.000   4.059
   33        1.226   2.799   0.000   4.025
   34        1.272   2.720   0.000   3.992
   35        1.249   2.724   0.000   3.974
   36        1.272   2.703   0.000   3.975
   37        1.271   2.703   0.000   3.974
   38        1.269   2.711   0.000   3.979
   39        1.251   2.730   0.000   3.981
   40        1.241   2.834   0.000   4.075
   41        1.223   2.782   0.000   4.006
   42        1.273   2.695   0.000   3.968
   43        1.282   2.713   0.000   3.995
   44        1.276   2.703   0.000   3.980
   45        1.276   2.685   0.000   3.962
   46        1.278   2.719   0.000   3.997
   47        1.274   2.702   0.000   3.976
   48        1.239   2.820   0.000   4.059
   49        1.222   2.766   0.000   3.988
   50        1.277   2.716   0.000   3.992
   51        1.274   2.704   0.000   3.978
   52        1.276   2.688   0.000   3.964
   53        1.276   2.692   0.000   3.968
   54        1.272   2.698   0.000   3.970
   55        1.283   2.700   0.000   3.983
   56        1.240   2.828   0.000   4.068
   57        1.336   0.769  10.063  12.168
--------------------------------------------------
tot         62.654 131.316  10.063 204.034
 


 magnetization (x)
 
# of ion       s       p       d       tot
------------------------------------------
    1       -0.000  -0.000   0.000  -0.000
    2        0.000   0.001   0.000   0.001
    3       -0.000  -0.000   0.000  -0.000
    4       -0.000  -0.000   0.000  -0.000
    5        0.000   0.001   0.000   0.001
    6       -0.000  -0.000   0.000  -0.000
    7       -0.000  -0.000   0.000  -0.000
    8       -0.000  -0.000   0.000  -0.000
    9       -0.000  -0.000   0.000  -0.000
   10       -0.000  -0.000   0.000  -0.000
   11        0.000   0.000   0.000   0.000
   12        0.000   0.000   0.000   0.000
   13       -0.000  -0.000   0.000  -0.000
   14       -0.000  -0.001   0.000  -0.001
   15        0.000   0.001   0.000   0.001
   16        0.000   0.000   0.000   0.000
   17       -0.000  -0.000   0.000  -0.000
   18       -0.000  -0.000   0.000  -0.000
   19        0.000   0.000   0.000   0.000
   20        0.000   0.000   0.000   0.000
   21        0.000   0.000   0.000   0.000
   22       -0.000  -0.000   0.000  -0.000
   23       -0.000  -0.000   0.000  -0.000
   24        0.000   0.000   0.000   0.000
   25       -0.000   0.000   0.000   0.000
   26        0.000   0.000   0.000   0.000
   27        0.000  -0.000   0.000  -0.000
   28       -0.000  -0.000   0.000  -0.000
   29       -0.000  -0.000   0.000  -0.000
   30        0.000  -0.000   0.000  -0.000
   31        0.000  -0.000   0.000  -0.000
   32       -0.000  -0.000   0.000  -0.000
   33        0.000   0.000   0.000   0.000
   34       -0.000  -0.000   0.000  -0.000
   35       -0.000   0.000   0.000   0.000
   36        0.000  -0.000   0.000  -0.000
   37       -0.000  -0.000   0.000  -0.000
   38        0.000   0.000   0.000   0.000
   39        0.000  -0.000   0.000  -0.000
   40       -0.000  -0.000   0.000  -0.000
   41        0.000   0.000   0.000   0.000
   42        0.000   0.000   0.000   0.000
   43        0.000   0.000   0.000   0.000
   44        0.000   0.000   0.000   0.000
   45       -0.000   0.000   0.000   0.000
   46        0.000   0.000   0.000   0.000
   47        0.000   0.000   0.000   0.000
   48       -0.000  -0.000   0.000  -0.000
   49       -0.000   0.000   0.000   0.000
   50        0.000  -0.000   0.000  -0.000
   51       -0.000  -0.000   0.000  -0.000
   52       -0.000  -0.000   0.000  -0.000
   53        0.000   0.000   0.000   0.000
   54        0.000   0.000   0.000   0.000
   55        0.000   0.000   0.000   0.000
   56        0.000   0.000   0.000   0.000
   57        0.000   0.000   0.000   0.000
--------------------------------------------------
tot         -0.000  -0.000   0.000  -0.000
 
 BZINTS: Fermi energy: -1.985746;270.000000 electrons
         Band energy:***********;  BLOECHL correction:  0.000000

 total amount of memory used by VASP MPI-rank0    81359. kBytes
=======================================================================

   base      :      30000. kBytes
   nonl-proj :      12189. kBytes
   fftplans  :       3326. kBytes
   grid      :       8675. kBytes
   one-center:        155. kBytes
   wavefun   :      27014. kBytes
 
  
  
 General timing and accounting informations for this job:
 ========================================================
  
                  Total CPU time used (sec):      166.711
                            User time (sec):      160.324
                          System time (sec):        6.387
                         Elapsed time (sec):      177.055
  
                   Maximum memory used (kb):      444824.
                   Average memory used (kb):           0.
  
                          Minor page faults:       886276
                          Major page faults:            0
                 Voluntary context switches:         8459
