  71  71   0   0
  0.4001987E+02  0.1485309E-08  0.1474799E-08  0.1500000E-08  0.3000000E-15
  1.000000000000000E-004
  CAR 
 unknown system                          
      5.85570364    -48.64890697  301     -2.11666389      1.00000000
    -48.649  0.0000E+00  0.0000E+00  0.0000E+00  0.0000E+00
    -48.467  0.0000E+00  0.0000E+00  0.0000E+00  0.0000E+00
    -48.286  0.0000E+00  0.0000E+00  0.0000E+00  0.0000E+00
    -48.104  0.0000E+00  0.0000E+00  0.0000E+00  0.0000E+00
    -47.922  0.0000E+00  0.0000E+00  0.0000E+00  0.0000E+00
    -47.740  0.0000E+00  0.0000E+00  0.0000E+00  0.0000E+00
    -47.559  0.0000E+00  0.0000E+00  0.0000E+00  0.0000E+00
    -47.377  0.0000E+00  0.0000E+00  0.0000E+00  0.0000E+00
    -47.195  0.0000E+00  0.0000E+00  0.0000E+00  0.0000E+00
    -47.014  0.0000E+00  0.0000E+00  0.0000E+00  0.0000E+00
    -46.832  0.0000E+00  0.0000E+00  0.0000E+00  0.0000E+00
    -46.650  0.8624E-13  0.0000E+00  0.1567E-13  0.0000E+00
    -46.469  0.1800E-06  0.0000E+00  0.3270E-07  0.0000E+00
    -46.287  0.7018E-03  0.0000E+00  0.1275E-03  0.0000E+00
    -46.105  0.1126E-01  0.0000E+00  0.2173E-02  0.0000E+00
    -45.924  0.2070E-01  0.0000E+00  0.5933E-02  0.0000E+00
    -45.742  0.8587E-02  0.0000E+00  0.7493E-02  0.0000E+00
    -45.560  0.3850E-04  0.0000E+00  0.7500E-02  0.0000E+00
    -45.379  0.4902E-09  0.0000E+00  0.7500E-02  0.0000E+00
    -45.197  0.1222E-16  0.0000E+00  0.7500E-02  0.0000E+00
    -45.015  0.0000E+00  0.0000E+00  0.7500E-02  0.0000E+00
    -44.834  0.0000E+00  0.0000E+00  0.7500E-02  0.0000E+00
    -44.652  0.0000E+00  0.1239E-15  0.7500E-02  0.2252E-16
    -44.470  0.0000E+00  0.2405E-08  0.7500E-02  0.4370E-09
    -44.289  0.0000E+00  0.7956E-04  0.7500E-02  0.1446E-04
    -44.107  0.0000E+00  0.7064E-02  0.7500E-02  0.1298E-02
    -43.925  0.0000E+00  0.1152E-01  0.7500E-02  0.3390E-02
    -43.743  0.0000E+00  0.1751E-01  0.7500E-02  0.6573E-02
    -43.562  0.0000E+00  0.5082E-02  0.7500E-02  0.7496E-02
    -43.380  0.0000E+00  0.2274E-04  0.7500E-02  0.7500E-02
    -43.198  0.0000E+00  0.2505E-09  0.7500E-02  0.7500E-02
    -43.017  0.0000E+00  0.4583E-17  0.7500E-02  0.7500E-02
    -42.835  0.0000E+00  0.0000E+00  0.7500E-02  0.7500E-02
    -42.653  0.0000E+00  0.0000E+00  0.7500E-02  0.7500E-02
    -42.472  0.0000E+00  0.0000E+00  0.7500E-02  0.7500E-02
    -42.290  0.0000E+00  0.0000E+00  0.7500E-02  0.7500E-02
    -42.108  0.0000E+00  0.0000E+00  0.7500E-02  0.7500E-02
    -41.927  0.0000E+00  0.0000E+00  0.7500E-02  0.7500E-02
    -41.745  0.0000E+00  0.0000E+00  0.7500E-02  0.7500E-02
    -41.563  0.0000E+00  0.0000E+00  0.7500E-02  0.7500E-02
    -41.382  0.0000E+00  0.0000E+00  0.7500E-02  0.7500E-02
    -41.200  0.0000E+00  0.0000E+00  0.7500E-02  0.7500E-02
    -41.018  0.0000E+00  0.0000E+00  0.7500E-02  0.7500E-02
    -40.837  0.0000E+00  0.0000E+00  0.7500E-02  0.7500E-02
    -40.655  0.0000E+00  0.0000E+00  0.7500E-02  0.7500E-02
    -40.473  0.0000E+00  0.0000E+00  0.7500E-02  0.7500E-02
    -40.292  0.0000E+00  0.0000E+00  0.7500E-02  0.7500E-02
    -40.110  0.0000E+00  0.0000E+00  0.7500E-02  0.7500E-02
    -39.928  0.0000E+00  0.0000E+00  0.7500E-02  0.7500E-02
    -39.746  0.0000E+00  0.0000E+00  0.7500E-02  0.7500E-02
    -39.565  0.0000E+00  0.0000E+00  0.7500E-02  0.7500E-02
    -39.383  0.0000E+00  0.0000E+00  0.7500E-02  0.7500E-02
    -39.201  0.0000E+00  0.0000E+00  0.7500E-02  0.7500E-02
    -39.020  0.0000E+00  0.0000E+00  0.7500E-02  0.7500E-02
    -38.838  0.0000E+00  0.0000E+00  0.7500E-02  0.7500E-02
    -38.656  0.0000E+00  0.0000E+00  0.7500E-02  0.7500E-02
    -38.475  0.0000E+00  0.0000E+00  0.7500E-02  0.7500E-02
    -38.293  0.0000E+00  0.0000E+00  0.7500E-02  0.7500E-02
    -38.111  0.0000E+00  0.0000E+00  0.7500E-02  0.7500E-02
    -37.930  0.0000E+00  0.0000E+00  0.7500E-02  0.7500E-02
    -37.748  0.0000E+00  0.0000E+00  0.7500E-02  0.7500E-02
    -37.566  0.0000E+00  0.0000E+00  0.7500E-02  0.7500E-02
    -37.385  0.0000E+00  0.0000E+00  0.7500E-02  0.7500E-02
    -37.203  0.0000E+00  0.0000E+00  0.7500E-02  0.7500E-02
    -37.021  0.0000E+00  0.0000E+00  0.7500E-02  0.7500E-02
    -36.840  0.0000E+00  0.0000E+00  0.7500E-02  0.7500E-02
    -36.658  0.0000E+00  0.0000E+00  0.7500E-02  0.7500E-02
    -36.476  0.0000E+00  0.0000E+00  0.7500E-02  0.7500E-02
    -36.295  0.0000E+00  0.0000E+00  0.7500E-02  0.7500E-02
    -36.113  0.0000E+00  0.0000E+00  0.7500E-02  0.7500E-02
    -35.931  0.0000E+00  0.0000E+00  0.7500E-02  0.7500E-02
    -35.749  0.0000E+00  0.0000E+00  0.7500E-02  0.7500E-02
    -35.568  0.0000E+00  0.0000E+00  0.7500E-02  0.7500E-02
    -35.386  0.0000E+00  0.0000E+00  0.7500E-02  0.7500E-02
    -35.204  0.0000E+00  0.0000E+00  0.7500E-02  0.7500E-02
    -35.023  0.0000E+00  0.0000E+00  0.7500E-02  0.7500E-02
    -34.841  0.0000E+00  0.0000E+00  0.7500E-02  0.7500E-02
    -34.659  0.0000E+00  0.0000E+00  0.7500E-02  0.7500E-02
    -34.478  0.0000E+00  0.0000E+00  0.7500E-02  0.7500E-02
    -34.296  0.0000E+00  0.0000E+00  0.7500E-02  0.7500E-02
    -34.114  0.0000E+00  0.0000E+00  0.7500E-02  0.7500E-02
    -33.933  0.0000E+00  0.0000E+00  0.7500E-02  0.7500E-02
    -33.751  0.0000E+00  0.0000E+00  0.7500E-02  0.7500E-02
    -33.569  0.0000E+00  0.0000E+00  0.7500E-02  0.7500E-02
    -33.388  0.0000E+00  0.0000E+00  0.7500E-02  0.7500E-02
    -33.206  0.0000E+00  0.0000E+00  0.7500E-02  0.7500E-02
    -33.024  0.0000E+00  0.0000E+00  0.7500E-02  0.7500E-02
    -32.843  0.0000E+00  0.0000E+00  0.7500E-02  0.7500E-02
    -32.661  0.0000E+00  0.0000E+00  0.7500E-02  0.7500E-02
    -32.479  0.0000E+00  0.0000E+00  0.7500E-02  0.7500E-02
    -32.298  0.0000E+00  0.0000E+00  0.7500E-02  0.7500E-02
    -32.116  0.0000E+00  0.0000E+00  0.7500E-02  0.7500E-02
    -31.934  0.0000E+00  0.0000E+00  0.7500E-02  0.7500E-02
    -31.752  0.0000E+00  0.0000E+00  0.7500E-02  0.7500E-02
    -31.571  0.0000E+00  0.0000E+00  0.7500E-02  0.7500E-02
    -31.389  0.0000E+00  0.0000E+00  0.7500E-02  0.7500E-02
    -31.207  0.0000E+00  0.0000E+00  0.7500E-02  0.7500E-02
    -31.026  0.0000E+00  0.0000E+00  0.7500E-02  0.7500E-02
    -30.844  0.0000E+00  0.0000E+00  0.7500E-02  0.7500E-02
    -30.662  0.0000E+00  0.0000E+00  0.7500E-02  0.7500E-02
    -30.481  0.0000E+00  0.0000E+00  0.7500E-02  0.7500E-02
    -30.299  0.0000E+00  0.0000E+00  0.7500E-02  0.7500E-02
    -30.117  0.0000E+00  0.0000E+00  0.7500E-02  0.7500E-02
    -29.936  0.0000E+00  0.0000E+00  0.7500E-02  0.7500E-02
    -29.754  0.0000E+00  0.0000E+00  0.7500E-02  0.7500E-02
    -29.572  0.0000E+00  0.0000E+00  0.7500E-02  0.7500E-02
    -29.391  0.0000E+00  0.0000E+00  0.7500E-02  0.7500E-02
    -29.209  0.0000E+00  0.0000E+00  0.7500E-02  0.7500E-02
    -29.027  0.0000E+00  0.0000E+00  0.7500E-02  0.7500E-02
    -28.846  0.0000E+00  0.0000E+00  0.7500E-02  0.7500E-02
    -28.664  0.0000E+00  0.0000E+00  0.7500E-02  0.7500E-02
    -28.482  0.0000E+00  0.0000E+00  0.7500E-02  0.7500E-02
    -28.301  0.0000E+00  0.0000E+00  0.7500E-02  0.7500E-02
    -28.119  0.0000E+00  0.0000E+00  0.7500E-02  0.7500E-02
    -27.937  0.0000E+00  0.0000E+00  0.7500E-02  0.7500E-02
    -27.755  0.0000E+00  0.0000E+00  0.7500E-02  0.7500E-02
    -27.574  0.0000E+00  0.0000E+00  0.7500E-02  0.7500E-02
    -27.392  0.0000E+00  0.0000E+00  0.7500E-02  0.7500E-02
    -27.210  0.0000E+00  0.0000E+00  0.7500E-02  0.7500E-02
    -27.029  0.0000E+00  0.0000E+00  0.7500E-02  0.7500E-02
    -26.847  0.0000E+00  0.0000E+00  0.7500E-02  0.7500E-02
    -26.665  0.0000E+00  0.0000E+00  0.7500E-02  0.7500E-02
    -26.484  0.0000E+00  0.0000E+00  0.7500E-02  0.7500E-02
    -26.302  0.0000E+00  0.0000E+00  0.7500E-02  0.7500E-02
    -26.120  0.0000E+00  0.0000E+00  0.7500E-02  0.7500E-02
    -25.939  0.0000E+00  0.0000E+00  0.7500E-02  0.7500E-02
    -25.757  0.0000E+00  0.0000E+00  0.7500E-02  0.7500E-02
    -25.575  0.0000E+00  0.0000E+00  0.7500E-02  0.7500E-02
    -25.394  0.0000E+00  0.0000E+00  0.7500E-02  0.7500E-02
    -25.212  0.0000E+00  0.0000E+00  0.7500E-02  0.7500E-02
    -25.030  0.0000E+00  0.0000E+00  0.7500E-02  0.7500E-02
    -24.849  0.0000E+00  0.0000E+00  0.7500E-02  0.7500E-02
    -24.667  0.0000E+00  0.0000E+00  0.7500E-02  0.7500E-02
    -24.485  0.0000E+00  0.0000E+00  0.7500E-02  0.7500E-02
    -24.304  0.0000E+00  0.0000E+00  0.7500E-02  0.7500E-02
    -24.122  0.4506E-13  0.1339E-12  0.7500E-02  0.7500E-02
    -23.940  0.1187E-06  0.2383E-06  0.7500E-02  0.7500E-02
    -23.758  0.5772E-03  0.7988E-03  0.7605E-02  0.7645E-02
    -23.577  0.1043E-01  0.1077E-01  0.9500E-02  0.9602E-02
    -23.395  0.2750E-02  0.2187E-02  0.9999E-02  0.1000E-01
    -23.213  0.4464E-05  0.2479E-05  0.1000E-01  0.1000E-01
    -23.032  0.1538E-10  0.5790E-11  0.1000E-01  0.1000E-01
    -22.850  0.0000E+00  0.0000E+00  0.1000E-01  0.1000E-01
    -22.668  0.0000E+00  0.0000E+00  0.1000E-01  0.1000E-01
    -22.487  0.0000E+00  0.0000E+00  0.1000E-01  0.1000E-01
    -22.305  0.0000E+00  0.0000E+00  0.1000E-01  0.1000E-01
    -22.123  0.2101E-17  0.3055E-17  0.1000E-01  0.1000E-01
    -21.942  0.9959E-10  0.1311E-09  0.1000E-01  0.1000E-01
    -21.760  0.8837E-05  0.1038E-04  0.1000E-01  0.1000E-01
    -21.578  0.2650E-02  0.2825E-02  0.1048E-01  0.1052E-01
    -21.397  0.1307E-01  0.1313E-01  0.1286E-01  0.1290E-01
    -21.215  0.9694E-02  0.9685E-02  0.1462E-01  0.1466E-01
    -21.033  0.1413E-01  0.1439E-01  0.1719E-01  0.1727E-01
    -20.852  0.1547E-01  0.1527E-01  0.2000E-01  0.2005E-01
    -20.670  0.6692E-02  0.6774E-02  0.2121E-01  0.2128E-01
    -20.488  0.1581E-01  0.1609E-01  0.2409E-01  0.2420E-01
    -20.307  0.1672E-01  0.1656E-01  0.2712E-01  0.2721E-01
    -20.125  0.1365E-01  0.1360E-01  0.2960E-01  0.2968E-01
    -19.943  0.7553E-02  0.7571E-02  0.3098E-01  0.3106E-01
    -19.761  0.1299E-01  0.1306E-01  0.3334E-01  0.3343E-01
    -19.580  0.1723E-01  0.1743E-01  0.3647E-01  0.3660E-01
    -19.398  0.1769E-01  0.1746E-01  0.3968E-01  0.3977E-01
    -19.216  0.1132E-01  0.1174E-01  0.4174E-01  0.4190E-01
    -19.035  0.1313E-01  0.1291E-01  0.4412E-01  0.4425E-01
    -18.853  0.1067E-01  0.1059E-01  0.4606E-01  0.4617E-01
    -18.671  0.1144E-01  0.1133E-01  0.4814E-01  0.4823E-01
    -18.490  0.1766E-01  0.1786E-01  0.5135E-01  0.5147E-01
    -18.308  0.1815E-01  0.1869E-01  0.5465E-01  0.5487E-01
    -18.126  0.1849E-01  0.1806E-01  0.5800E-01  0.5815E-01
    -17.945  0.1057E-01  0.1037E-01  0.5992E-01  0.6003E-01
    -17.763  0.7932E-02  0.7686E-02  0.6137E-01  0.6143E-01
    -17.581  0.1165E-01  0.1219E-01  0.6348E-01  0.6364E-01
    -17.400  0.1657E-01  0.1663E-01  0.6649E-01  0.6667E-01
    -17.218  0.2039E-01  0.2039E-01  0.7020E-01  0.7037E-01
    -17.036  0.2151E-01  0.2134E-01  0.7411E-01  0.7425E-01
    -16.855  0.1336E-01  0.1320E-01  0.7653E-01  0.7665E-01
    -16.673  0.1606E-01  0.1642E-01  0.7945E-01  0.7963E-01
    -16.491  0.1341E-01  0.1327E-01  0.8189E-01  0.8204E-01
    -16.310  0.9094E-02  0.8627E-02  0.8354E-01  0.8361E-01
    -16.128  0.1185E-01  0.1271E-01  0.8569E-01  0.8592E-01
    -15.946  0.2069E-01  0.2067E-01  0.8945E-01  0.8967E-01
    -15.764  0.1483E-01  0.1445E-01  0.9215E-01  0.9230E-01
    -15.583  0.7069E-02  0.7196E-02  0.9343E-01  0.9360E-01
    -15.401  0.7678E-02  0.7108E-02  0.9482E-01  0.9490E-01
    -15.219  0.8537E-02  0.8815E-02  0.9638E-01  0.9650E-01
    -15.038  0.1385E-01  0.1404E-01  0.9889E-01  0.9905E-01
    -14.856  0.1568E-01  0.1584E-01  0.1017E+00  0.1019E+00
    -14.674  0.2071E-01  0.2091E-01  0.1055E+00  0.1057E+00
    -14.493  0.1853E-01  0.1791E-01  0.1089E+00  0.1090E+00
    -14.311  0.9883E-02  0.9784E-02  0.1107E+00  0.1108E+00
    -14.129  0.1588E-01  0.1641E-01  0.1136E+00  0.1137E+00
    -13.948  0.1955E-01  0.1927E-01  0.1171E+00  0.1172E+00
    -13.766  0.1602E-01  0.1622E-01  0.1200E+00  0.1202E+00
    -13.584  0.1246E-01  0.1231E-01  0.1223E+00  0.1224E+00
    -13.403  0.1907E-01  0.1916E-01  0.1257E+00  0.1259E+00
    -13.221  0.9023E-02  0.8809E-02  0.1274E+00  0.1275E+00
    -13.039  0.1080E-01  0.1083E-01  0.1293E+00  0.1295E+00
    -12.858  0.1460E-01  0.1474E-01  0.1320E+00  0.1321E+00
    -12.676  0.2178E-01  0.2174E-01  0.1360E+00  0.1361E+00
    -12.494  0.1065E-01  0.1055E-01  0.1379E+00  0.1380E+00
    -12.312  0.9043E-02  0.8796E-02  0.1395E+00  0.1396E+00
    -12.131  0.1221E-01  0.1201E-01  0.1417E+00  0.1418E+00
    -11.949  0.1185E-01  0.1223E-01  0.1439E+00  0.1440E+00
    -11.767  0.2533E-01  0.2577E-01  0.1485E+00  0.1487E+00
    -11.586  0.3162E-01  0.3180E-01  0.1542E+00  0.1545E+00
    -11.404  0.1416E-01  0.1304E-01  0.1568E+00  0.1568E+00
    -11.222  0.7128E-02  0.7682E-02  0.1581E+00  0.1582E+00
    -11.041  0.1623E-01  0.1589E-01  0.1611E+00  0.1611E+00
    -10.859  0.1206E-01  0.1220E-01  0.1633E+00  0.1633E+00
    -10.677  0.1842E-01  0.1876E-01  0.1666E+00  0.1668E+00
    -10.496  0.2117E-01  0.2109E-01  0.1704E+00  0.1706E+00
    -10.314  0.1694E-01  0.1667E-01  0.1735E+00  0.1736E+00
    -10.132  0.2293E-01  0.2330E-01  0.1777E+00  0.1778E+00
     -9.951  0.3277E-01  0.3330E-01  0.1836E+00  0.1839E+00
     -9.769  0.2556E-01  0.2480E-01  0.1883E+00  0.1884E+00
     -9.587  0.2222E-01  0.2267E-01  0.1923E+00  0.1925E+00
     -9.406  0.2783E-01  0.2755E-01  0.1974E+00  0.1975E+00
     -9.224  0.2991E-01  0.3001E-01  0.2028E+00  0.2030E+00
     -9.042  0.3269E-01  0.3300E-01  0.2088E+00  0.2090E+00
     -8.861  0.4074E-01  0.4026E-01  0.2162E+00  0.2163E+00
     -8.679  0.3801E-01  0.3884E-01  0.2231E+00  0.2233E+00
     -8.497  0.4637E-01  0.4641E-01  0.2315E+00  0.2318E+00
     -8.315  0.4684E-01  0.4632E-01  0.2400E+00  0.2402E+00
     -8.134  0.3294E-01  0.3307E-01  0.2460E+00  0.2462E+00
     -7.952  0.3586E-01  0.3576E-01  0.2525E+00  0.2527E+00
     -7.770  0.2334E-01  0.2267E-01  0.2567E+00  0.2568E+00
     -7.589  0.2370E-01  0.2432E-01  0.2610E+00  0.2612E+00
     -7.407  0.3178E-01  0.3196E-01  0.2668E+00  0.2670E+00
     -7.225  0.4075E-01  0.4071E-01  0.2742E+00  0.2744E+00
     -7.044  0.3805E-01  0.3705E-01  0.2811E+00  0.2812E+00
     -6.862  0.2596E-01  0.2656E-01  0.2858E+00  0.2860E+00
     -6.680  0.1644E-01  0.1606E-01  0.2888E+00  0.2889E+00
     -6.499  0.1674E-01  0.1526E-01  0.2919E+00  0.2917E+00
     -6.317  0.2566E-01  0.2571E-01  0.2965E+00  0.2964E+00
     -6.135  0.3616E-01  0.3752E-01  0.3031E+00  0.3032E+00
     -5.954  0.3398E-01  0.3501E-01  0.3093E+00  0.3095E+00
     -5.772  0.2761E-01  0.2425E-01  0.3143E+00  0.3139E+00
     -5.590  0.1898E-01  0.2048E-01  0.3177E+00  0.3177E+00
     -5.409  0.1881E-01  0.1790E-01  0.3212E+00  0.3209E+00
     -5.227  0.1981E-01  0.1753E-01  0.3248E+00  0.3241E+00
     -5.045  0.2350E-01  0.2055E-01  0.3290E+00  0.3278E+00
     -4.864  0.2180E-01  0.2586E-01  0.3330E+00  0.3325E+00
     -4.682  0.3668E-01  0.3482E-01  0.3397E+00  0.3389E+00
     -4.500  0.2433E-01  0.2807E-01  0.3441E+00  0.3440E+00
     -4.318  0.9539E-02  0.8877E-02  0.3458E+00  0.3456E+00
     -4.137  0.1550E-01  0.6913E-02  0.3486E+00  0.3468E+00
     -3.955  0.1984E-01  0.1586E-01  0.3522E+00  0.3497E+00
     -3.773  0.1262E-01  0.1555E-01  0.3545E+00  0.3525E+00
     -3.592  0.1021E-01  0.2005E-01  0.3564E+00  0.3562E+00
     -3.410  0.1322E-01  0.1069E-01  0.3588E+00  0.3581E+00
     -3.228  0.2030E-01  0.1061E-01  0.3625E+00  0.3600E+00
     -3.047  0.8419E-02  0.6876E-02  0.3640E+00  0.3613E+00
     -2.865  0.1103E-01  0.2916E-02  0.3660E+00  0.3618E+00
     -2.683  0.1617E-02  0.3024E-03  0.3663E+00  0.3619E+00
     -2.502  0.2749E-02  0.2569E-04  0.3668E+00  0.3619E+00
     -2.320  0.2237E-02  0.2525E-02  0.3672E+00  0.3623E+00
     -2.138  0.5195E-02  0.9261E-02  0.3681E+00  0.3640E+00
     -1.957  0.4821E-02  0.7284E-02  0.3690E+00  0.3653E+00
     -1.775  0.1132E-01  0.1542E-02  0.3711E+00  0.3656E+00
     -1.593  0.1170E-01  0.1320E-02  0.3732E+00  0.3659E+00
     -1.412  0.1186E-01  0.3518E-02  0.3754E+00  0.3665E+00
     -1.230  0.4807E-02  0.8060E-02  0.3762E+00  0.3680E+00
     -1.048  0.8501E-02  0.7368E-02  0.3778E+00  0.3693E+00
     -0.867  0.7278E-02  0.2546E-01  0.3791E+00  0.3739E+00
     -0.685  0.2402E-01  0.2941E-01  0.3835E+00  0.3793E+00
     -0.503  0.1474E-01  0.2585E-01  0.3861E+00  0.3840E+00
     -0.321  0.1244E-01  0.1715E-01  0.3884E+00  0.3871E+00
     -0.140  0.2043E-01  0.2096E-01  0.3921E+00  0.3909E+00
      0.042  0.1127E-01  0.1270E-01  0.3942E+00  0.3932E+00
      0.224  0.1737E-01  0.1507E-01  0.3973E+00  0.3959E+00
      0.405  0.2033E-01  0.2843E-01  0.4010E+00  0.4011E+00
      0.587  0.1662E-01  0.1678E-01  0.4040E+00  0.4042E+00
      0.769  0.1475E-01  0.8948E-02  0.4067E+00  0.4058E+00
      0.950  0.1713E-01  0.1415E-01  0.4098E+00  0.4084E+00
      1.132  0.8837E-02  0.1568E-01  0.4114E+00  0.4112E+00
      1.314  0.1764E-01  0.1380E-01  0.4146E+00  0.4137E+00
      1.495  0.1714E-01  0.2039E-01  0.4177E+00  0.4174E+00
      1.677  0.2391E-01  0.2008E-01  0.4221E+00  0.4211E+00
      1.859  0.2548E-01  0.2582E-01  0.4267E+00  0.4257E+00
      2.040  0.3720E-01  0.3297E-01  0.4335E+00  0.4317E+00
      2.222  0.2852E-01  0.2864E-01  0.4387E+00  0.4369E+00
      2.404  0.1854E-01  0.1921E-01  0.4420E+00  0.4404E+00
      2.585  0.3307E-01  0.3411E-01  0.4480E+00  0.4466E+00
      2.767  0.3494E-01  0.3663E-01  0.4544E+00  0.4533E+00
      2.949  0.1598E-01  0.1667E-01  0.4573E+00  0.4563E+00
      3.130  0.8037E-02  0.1246E-01  0.4587E+00  0.4586E+00
      3.312  0.3878E-02  0.7116E-02  0.4595E+00  0.4599E+00
      3.494  0.2835E-02  0.7216E-03  0.4600E+00  0.4600E+00
      3.676  0.1755E-03  0.9528E-06  0.4600E+00  0.4600E+00
      3.857  0.4502E-07  0.2920E-11  0.4600E+00  0.4600E+00
      4.039  0.2158E-13  0.0000E+00  0.4600E+00  0.4600E+00
      4.221  0.0000E+00  0.0000E+00  0.4600E+00  0.4600E+00
      4.402  0.0000E+00  0.0000E+00  0.4600E+00  0.4600E+00
      4.584  0.0000E+00  0.0000E+00  0.4600E+00  0.4600E+00
      4.766  0.0000E+00  0.0000E+00  0.4600E+00  0.4600E+00
      4.947  0.0000E+00  0.0000E+00  0.4600E+00  0.4600E+00
      5.129  0.0000E+00  0.0000E+00  0.4600E+00  0.4600E+00
      5.311  0.0000E+00  0.0000E+00  0.4600E+00  0.4600E+00
      5.492  0.0000E+00  0.0000E+00  0.4600E+00  0.4600E+00
      5.674  0.0000E+00  0.0000E+00  0.4600E+00  0.4600E+00
      5.856  0.0000E+00  0.0000E+00  0.4600E+00  0.4600E+00
