 vasp.5.4.4.18Apr17-6-g9f103f2a35 (build Jan 14 2022 15:04:31) complex          
  
 executed on             LinuxIFC date 2023.01.23  17:52:24
 running on   48 total cores
 distrk:  each k-point on   48 cores,    1 groups
 distr:  one band on NCORES_PER_BAND=  12 cores,    4 groups


--------------------------------------------------------------------------------------------------------


 INCAR:
 POTCAR:    PAW_PBE C 08Apr2002                   
 POTCAR:    PAW_PBE N 08Apr2002                   
 POTCAR:    PAW_PBE C 08Apr2002                   
 POTCAR:    PAW_PBE Cr_pv 02Aug2007               
 POTCAR:    PAW_PBE C 08Apr2002                   
   SHA256 =  253f7b50bb8d59471dbedb8285d89021f4a42ed1a2c5d38a03a736e69125dd95 C/
   COPYR  = (c) Copyright 08Apr2002 Georg Kresse                                
   COPYR  = This file is part of the software VASP. Any use, copying, and all ot
   COPYR  = If you do not have a valid VASP license, you may not use, copy or di
   VRHFIN =C: s2p2                                                              
   LEXCH  = PE                                                                  
   EATOM  =   147.1560 eV,   10.8157 Ry                                         
                                                                                
   TITEL  = PAW_PBE C 08Apr2002                                                 
   LULTRA =        F    use ultrasoft PP ?                                      
   IUNSCR =        1    unscreen: 0-lin 1-nonlin 2-no                           
   RPACOR =    1.200    partial core radius                                     
   POMASS =   12.011; ZVAL   =    4.000    mass and valenz                      
   RCORE  =    1.500    outmost cutoff radius                                   
   RWIGS  =    1.630; RWIGS  =    0.863    wigner-seitz radius (au A)           
   ENMAX  =  400.000; ENMIN  =  300.000 eV                                      
   ICORE  =        2    local potential                                         
   LCOR   =        T    correct aug charges                                     
   LPAW   =        T    paw PP                                                  
   EAUG   =  644.873                                                            
   DEXC   =    0.000                                                            
   RMAX   =    1.529    core radius for proj-oper                               
   RAUG   =    1.300    factor for augmentation sphere                          
   RDEP   =    1.501    radius for radial grids                                 
   RDEPT  =    1.300    core radius for aug-charge                              
                                                                                
   Atomic configuration                                                         
    4 entries                                                                   
     n  l   j            E        occ.                                          
     1  0  0.50      -273.3789   2.0000                                         
     2  0  0.50       -13.7508   2.0000                                         
     2  1  0.50        -5.2854   2.0000                                         
     3  2  1.50        -5.4423   0.0000                                         
   Description                                                                  
     l       E           TYP  RCUT    TYP  RCUT                                 
     0    -13.7508458     23  1.200                                             
     0     -8.2022199     23  1.200                                             
     1     -5.2854383     23  1.500                                             
     1     34.0145650     23  1.500                                             
     2     -5.4423304      7  1.500                                             
  local pseudopotential read in
  partial core-charges read in
  partial kinetic energy density read in
  atomic valenz-charges read in
  non local Contribution for L=           0  read in
    real space projection operators read in
  non local Contribution for L=           0  read in
    real space projection operators read in
  non local Contribution for L=           1  read in
    real space projection operators read in
  non local Contribution for L=           1  read in
    real space projection operators read in
    PAW grid and wavefunctions read in
 
   number of l-projection  operators is LMAX  =           4
   number of lm-projection operators is LMMAX =           8
 
 POTCAR:    PAW_PBE N 08Apr2002                   
   SHA256 =  e053789ff3a61a86a1b75d8a110fcc91f86041011e7b0817c7c99e4e8a6349d7 N/
   COPYR  = (c) Copyright 08Apr2002 Georg Kresse                                
   COPYR  = This file is part of the software VASP. Any use, copying, and all ot
   COPYR  = If you do not have a valid VASP license, you may not use, copy or di
   VRHFIN =N: s2p3                                                              
   LEXCH  = PE                                                                  
   EATOM  =   264.5486 eV,   19.4438 Ry                                         
                                                                                
   TITEL  = PAW_PBE N 08Apr2002                                                 
   LULTRA =        F    use ultrasoft PP ?                                      
   IUNSCR =        1    unscreen: 0-lin 1-nonlin 2-no                           
   RPACOR =    1.200    partial core radius                                     
   POMASS =   14.001; ZVAL   =    5.000    mass and valenz                      
   RCORE  =    1.500    outmost cutoff radius                                   
   RWIGS  =    1.400; RWIGS  =    0.741    wigner-seitz radius (au A)           
   ENMAX  =  400.000; ENMIN  =  300.000 eV                                      
   ICORE  =        2    local potential                                         
   LCOR   =        T    correct aug charges                                     
   LPAW   =        T    paw PP                                                  
   EAUG   =  627.112                                                            
   DEXC   =    0.000                                                            
   RMAX   =    1.529    core radius for proj-oper                               
   RAUG   =    1.300    factor for augmentation sphere                          
   RDEP   =    1.514    radius for radial grids                                 
   RDEPT  =    1.338    core radius for aug-charge                              
                                                                                
   Atomic configuration                                                         
    4 entries                                                                   
     n  l   j            E        occ.                                          
     1  0  0.50      -384.7179   2.0000                                         
     2  0  0.50       -18.5828   2.0000                                         
     2  1  0.50        -7.0898   3.0000                                         
     3  2  1.50        -6.8029   0.0000                                         
   Description                                                                  
     l       E           TYP  RCUT    TYP  RCUT                                 
     0    -18.5828119     23  1.200                                             
     0    -13.5018863     23  1.200                                             
     1     -7.0897853     23  1.500                                             
     1      9.5240782     23  1.500                                             
     2     -6.8029130      7  1.500                                             
  local pseudopotential read in
  partial core-charges read in
  partial kinetic energy density read in
  atomic valenz-charges read in
  non local Contribution for L=           0  read in
    real space projection operators read in
  non local Contribution for L=           0  read in
    real space projection operators read in
  non local Contribution for L=           1  read in
    real space projection operators read in
  non local Contribution for L=           1  read in
    real space projection operators read in
    PAW grid and wavefunctions read in
 
   number of l-projection  operators is LMAX  =           4
   number of lm-projection operators is LMMAX =           8
 
 POTCAR:    PAW_PBE C 08Apr2002                   
   SHA256 =  253f7b50bb8d59471dbedb8285d89021f4a42ed1a2c5d38a03a736e69125dd95 C/
   COPYR  = (c) Copyright 08Apr2002 Georg Kresse                                
   COPYR  = This file is part of the software VASP. Any use, copying, and all ot
   COPYR  = If you do not have a valid VASP license, you may not use, copy or di
   VRHFIN =C: s2p2                                                              
   LEXCH  = PE                                                                  
   EATOM  =   147.1560 eV,   10.8157 Ry                                         
                                                                                
   TITEL  = PAW_PBE C 08Apr2002                                                 
   LULTRA =        F    use ultrasoft PP ?                                      
   IUNSCR =        1    unscreen: 0-lin 1-nonlin 2-no                           
   RPACOR =    1.200    partial core radius                                     
   POMASS =   12.011; ZVAL   =    4.000    mass and valenz                      
   RCORE  =    1.500    outmost cutoff radius                                   
   RWIGS  =    1.630; RWIGS  =    0.863    wigner-seitz radius (au A)           
   ENMAX  =  400.000; ENMIN  =  300.000 eV                                      
   ICORE  =        2    local potential                                         
   LCOR   =        T    correct aug charges                                     
   LPAW   =        T    paw PP                                                  
   EAUG   =  644.873                                                            
   DEXC   =    0.000                                                            
   RMAX   =    1.529    core radius for proj-oper                               
   RAUG   =    1.300    factor for augmentation sphere                          
   RDEP   =    1.501    radius for radial grids                                 
   RDEPT  =    1.300    core radius for aug-charge                              
                                                                                
   Atomic configuration                                                         
    4 entries                                                                   
     n  l   j            E        occ.                                          
     1  0  0.50      -273.3789   2.0000                                         
     2  0  0.50       -13.7508   2.0000                                         
     2  1  0.50        -5.2854   2.0000                                         
     3  2  1.50        -5.4423   0.0000                                         
   Description                                                                  
     l       E           TYP  RCUT    TYP  RCUT                                 
     0    -13.7508458     23  1.200                                             
     0     -8.2022199     23  1.200                                             
     1     -5.2854383     23  1.500                                             
     1     34.0145650     23  1.500                                             
     2     -5.4423304      7  1.500                                             
  local pseudopotential read in
  partial core-charges read in
  partial kinetic energy density read in
  atomic valenz-charges read in
  non local Contribution for L=           0  read in
    real space projection operators read in
  non local Contribution for L=           0  read in
    real space projection operators read in
  non local Contribution for L=           1  read in
    real space projection operators read in
  non local Contribution for L=           1  read in
    real space projection operators read in
    PAW grid and wavefunctions read in
 
   number of l-projection  operators is LMAX  =           4
   number of lm-projection operators is LMMAX =           8
 
 POTCAR:    PAW_PBE Cr_pv 02Aug2007               
   SHA256 =  c9a7df34d3cdbacf1090e328ef39c0b420964e11c23f63548d1ac9dd218cdba0 Cr
   COPYR  = (c) Copyright 02Aug2007 Georg Kresse                                
   COPYR  = This file is part of the software VASP. Any use, copying, and all ot
   COPYR  = If you do not have a valid VASP license, you may not use, copy or di
   VRHFIN =Cr : p6d5s1                                                          
   LEXCH  = PE                                                                  
   EATOM  =  1647.9177 eV,  121.1185 Ry                                         
                                                                                
   TITEL  = PAW_PBE Cr_pv 02Aug2007                                             
   LULTRA =        F    use ultrasoft PP ?                                      
   IUNSCR =        1    unscreen: 0-lin 1-nonlin 2-no                           
   RPACOR =    2.080    partial core radius                                     
   POMASS =   51.996; ZVAL   =   12.000    mass and valenz                      
   RCORE  =    2.300    outmost cutoff radius                                   
   RWIGS  =    2.500; RWIGS  =    1.323    wigner-seitz radius (au A)           
   ENMAX  =  265.681; ENMIN  =  199.261 eV                                      
   ICORE  =        3    local potential                                         
   LCOR   =        T    correct aug charges                                     
   LPAW   =        T    paw PP                                                  
   EAUG   =  519.424                                                            
   DEXC   =    0.000                                                            
   RMAX   =    2.356    core radius for proj-oper                               
   RAUG   =    1.300    factor for augmentation sphere                          
   RDEP   =    2.447    radius for radial grids                                 
   RDEPT  =    1.882    core radius for aug-charge                              
                                                                                
   Atomic configuration                                                         
    8 entries                                                                   
     n  l   j            E        occ.                                          
     1  0  0.50     -5880.4963   2.0000                                         
     2  0  0.50      -667.0865   2.0000                                         
     2  1  1.50      -560.6250   6.0000                                         
     3  0  0.50       -73.9860   2.0000                                         
     3  1  1.50       -45.4378   6.0000                                         
     3  2  2.50        -2.9137   5.0000                                         
     4  0  0.50        -4.0071   1.0000                                         
     4  3  2.50        -1.3606   0.0000                                         
   Description                                                                  
     l       E           TYP  RCUT    TYP  RCUT                                 
     1    -45.4377911     23  2.000                                             
     1      1.3605826     23  2.000                                             
     2     -2.9136672     23  2.300                                             
     2     -4.2742498     23  2.300                                             
     0     -4.0071320     23  2.300                                             
     0      9.4498803     23  2.300                                             
     3      2.7211652     23  2.300                                             
  local pseudopotential read in
  partial core-charges read in
  partial kinetic energy density read in
  atomic valenz-charges read in
  non local Contribution for L=           1  read in
    real space projection operators read in
  non local Contribution for L=           1  read in
    real space projection operators read in
  non local Contribution for L=           2  read in
    real space projection operators read in
  non local Contribution for L=           2  read in
    real space projection operators read in
  non local Contribution for L=           0  read in
    real space projection operators read in
  non local Contribution for L=           0  read in
    real space projection operators read in
    PAW grid and wavefunctions read in
 
   number of l-projection  operators is LMAX  =           6
   number of lm-projection operators is LMMAX =          18
 
 Optimization of the real space projectors (new method)

 maximal supplied QI-value         = 25.13
 optimisation between [QCUT,QGAM] = [ 10.56, 21.36] = [ 31.20,127.80] Ry 
 Optimized for a Real-space Cutoff    1.32 Angstroem

   l    n(q)    QCUT    max X(q) W(low)/X(q) W(high)/X(q)  e(spline) 
   0      8    10.556   115.676    0.17E-03    0.39E-03    0.26E-06
   0      8    10.556    87.132    0.17E-03    0.39E-03    0.26E-06
   1      8    10.556     4.429    0.24E-03    0.31E-03    0.16E-06
   1      8    10.556     2.733    0.17E-03    0.22E-03    0.19E-06
 Optimization of the real space projectors (new method)

 maximal supplied QI-value         = 25.13
 optimisation between [QCUT,QGAM] = [ 10.56, 21.36] = [ 31.20,127.80] Ry 
 Optimized for a Real-space Cutoff    1.40 Angstroem

   l    n(q)    QCUT    max X(q) W(low)/X(q) W(high)/X(q)  e(spline) 
   0      9    10.556    79.467    0.20E-03    0.22E-03    0.30E-06
   0      9    10.556    66.151    0.20E-03    0.22E-03    0.30E-06
   1      8    10.556    12.181    0.10E-03    0.78E-03    0.19E-05
   1      8    10.556     8.434    0.11E-03    0.81E-03    0.19E-05
 Optimization of the real space projectors (new method)

 maximal supplied QI-value         = 25.13
 optimisation between [QCUT,QGAM] = [ 10.56, 21.36] = [ 31.20,127.80] Ry 
 Optimized for a Real-space Cutoff    1.32 Angstroem

   l    n(q)    QCUT    max X(q) W(low)/X(q) W(high)/X(q)  e(spline) 
   0      8    10.556   115.676    0.17E-03    0.39E-03    0.26E-06
   0      8    10.556    87.132    0.17E-03    0.39E-03    0.26E-06
   1      8    10.556     4.429    0.24E-03    0.31E-03    0.16E-06
   1      8    10.556     2.733    0.17E-03    0.22E-03    0.19E-06
 Optimization of the real space projectors (new method)

 maximal supplied QI-value         = 16.25
 optimisation between [QCUT,QGAM] = [ 10.73, 21.45] = [ 32.22,128.87] Ry 
 Optimized for a Real-space Cutoff    1.53 Angstroem

   l    n(q)    QCUT    max X(q) W(low)/X(q) W(high)/X(q)  e(spline) 
   1      9    10.726     3.262    0.64E-04    0.35E-04    0.11E-06
   1      9    10.726     5.741    0.13E-03    0.48E-04    0.19E-06
   2      9    10.726    60.438    0.12E-03    0.29E-04    0.13E-06
   2      9    10.726    55.380    0.12E-03    0.29E-04    0.13E-06
   0     10    10.726    80.273    0.43E-04    0.74E-05    0.81E-07
   0     10    10.726    36.654    0.34E-04    0.61E-05    0.73E-07
  PAW_PBE C 08Apr2002                   :
 energy of atom  1       EATOM= -147.1560
 kinetic energy error for atom=    0.0132 (will be added to EATOM!!)
  PAW_PBE N 08Apr2002                   :
 energy of atom  2       EATOM= -264.5486
 kinetic energy error for atom=    0.0298 (will be added to EATOM!!)
  PAW_PBE C 08Apr2002                   :
 energy of atom  3       EATOM= -147.1560
 kinetic energy error for atom=    0.0132 (will be added to EATOM!!)
  PAW_PBE Cr_pv 02Aug2007               :
 energy of atom  4       EATOM=-1647.9177
 kinetic energy error for atom=    0.0134 (will be added to EATOM!!)
 
 
 POSCAR: POSCAR-clean                            
  positions in direct lattice
  velocities in cartesian coordinates
 exchange correlation table for  LEXCH =        8
   RHO(1)=    0.500       N(1)  =     2000
   RHO(2)=  100.500       N(2)  =     4000

 VTST: version 3.2, (02/03/18)

 CHAIN: initializing optimizer
 
 OPT: Using VASP Conjugate-Gradient optimizer
 CHAIN: Read ICHAIN            0
 
 POSCAR: POSCAR-clean                            
  positions in direct lattice
  velocities in cartesian coordinates
 


--------------------------------------------------------------------------------------------------------


 ion  position               nearest neighbor table
   1  0.000  1.000  0.498-   2 1.42  60 1.42  70 1.43
   2  0.056  0.111  0.498-   1 1.42  13 1.43  15 1.43
   3  0.168  0.002  0.498-   4 1.42  60 1.43  62 1.43
   4  0.224  0.113  0.498-   3 1.42  15 1.43  17 1.43
   5  0.334  0.002  0.498-  62 1.42   6 1.42  64 1.42
   6  0.390  0.113  0.498-  19 1.42   5 1.42  17 1.43
   7  0.500  0.999  0.498-   8 1.42  64 1.43  66 1.43
   8  0.556  0.111  0.498-   7 1.42  21 1.43  19 1.43
   9  0.666  0.998  0.498-  10 1.42  66 1.42  68 1.44
  10  0.721  0.109  0.498-   9 1.42  23 1.43  21 1.43
  11  0.832  0.998  0.498-  12 1.42  70 1.42  68 1.44
  12  0.888  0.109  0.498-  11 1.42  23 1.43  13 1.43
  13  0.999  0.166  0.498-  14 1.42   2 1.43  12 1.43
  14  0.055  0.277  0.499-  13 1.42  27 1.42  25 1.42
  15  0.167  0.168  0.498-   4 1.43  16 1.43   2 1.43
  16  0.223  0.280  0.500-  27 1.43  15 1.43  29 1.44
  17  0.335  0.170  0.499-  18 1.42   4 1.43   6 1.43
  18  0.391  0.281  0.502-  17 1.42  31 1.44  29 1.44
  19  0.501  0.168  0.498-   6 1.42  20 1.42   8 1.43
  20  0.557  0.280  0.500-  19 1.42  33 1.42  31 1.44
  21  0.667  0.165  0.498-  22 1.42   8 1.43  10 1.43
  22  0.723  0.277  0.498-  21 1.42  35 1.42  33 1.43
  23  0.833  0.165  0.498-  24 1.42  10 1.43  12 1.43
  24  0.888  0.276  0.498-  23 1.42  35 1.42  25 1.42
  25  0.999  0.332  0.498-  26 1.42  24 1.42  14 1.42
  26  0.054  0.444  0.499-  39 1.41  37 1.42  25 1.42
  27  0.165  0.333  0.500-  28 1.42  14 1.42  16 1.43
  28  0.219  0.445  0.502-  41 1.41  27 1.42  39 1.43
  29  0.335  0.338  0.503-  30 1.42  18 1.44  16 1.44
  30  0.388  0.449  0.510-  41 1.41  29 1.42  71 2.00
  31  0.503  0.338  0.503-  32 1.42  18 1.44  20 1.44
  32  0.561  0.449  0.510-  43 1.41  31 1.42  71 1.99
  33  0.668  0.333  0.500-  34 1.42  20 1.42  22 1.43
  34  0.725  0.444  0.501-  43 1.41  33 1.42  45 1.42
  35  0.834  0.333  0.498-  24 1.42  22 1.42  36 1.43
  36  0.890  0.445  0.498-  45 1.41  37 1.42  35 1.43
  37  0.001  0.501  0.498-  26 1.42  38 1.42  36 1.42
  38  0.057  0.612  0.498-  49 1.40  47 1.42  37 1.42
  39  0.164  0.501  0.500-  26 1.41  40 1.42  28 1.43
  40  0.220  0.612  0.500-  49 1.40  39 1.42  51 1.42
  41  0.329  0.499  0.505-  28 1.41  30 1.41  42 1.43
  42  0.384  0.612  0.505-  53 1.41  51 1.41  41 1.43
  43  0.671  0.499  0.505-  32 1.41  34 1.41  44 1.44
  44  0.727  0.612  0.505-  55 1.41  57 1.41  43 1.44
  45  0.836  0.500  0.500-  36 1.41  46 1.42  34 1.42
  46  0.892  0.611  0.500-  47 1.42  45 1.42  57 1.42
  47  0.002  0.668  0.498-  38 1.42  46 1.42  48 1.42
  48  0.057  0.779  0.498-  59 1.42  61 1.42  47 1.42
  49  0.166  0.667  0.499-  40 1.40  38 1.40  50 1.41
  50  0.222  0.778  0.498-  49 1.41  63 1.42  61 1.42
  51  0.330  0.668  0.502-  42 1.41  52 1.41  40 1.42
  52  0.388  0.778  0.500-  51 1.41  65 1.42  63 1.42
  53  0.494  0.662  0.510-  42 1.41  54 1.41  71 2.00
  54  0.553  0.773  0.503-  53 1.41  67 1.44  65 1.44
  55  0.669  0.663  0.510-  44 1.41  56 1.41  71 2.00
  56  0.720  0.773  0.504-  55 1.41  67 1.44  69 1.44
  57  0.837  0.667  0.501-  44 1.41  58 1.42  46 1.42
  58  0.890  0.778  0.500-  57 1.42  69 1.42  59 1.43
  59  0.002  0.834  0.498-  48 1.42  60 1.42  58 1.43
  60  0.057  0.946  0.498-  59 1.42   1 1.42   3 1.43
  61  0.167  0.834  0.498-  48 1.42  50 1.42  62 1.43
  62  0.223  0.946  0.498-   5 1.42  61 1.43   3 1.43
  63  0.332  0.833  0.498-  50 1.42  64 1.42  52 1.42
  64  0.388  0.945  0.498-  63 1.42   5 1.42   7 1.43
  65  0.499  0.831  0.500-  52 1.42  66 1.43  54 1.44
  66  0.555  0.943  0.498-   9 1.42  65 1.43   7 1.43
  67  0.665  0.830  0.503-  68 1.42  56 1.44  54 1.44
  68  0.721  0.941  0.499-  67 1.42  11 1.44   9 1.44
  69  0.833  0.831  0.500-  58 1.42  70 1.42  56 1.44
  70  0.889  0.943  0.498-  69 1.42  11 1.42   1 1.43
  71  0.528  0.556  0.555-  32 1.99  55 2.00  30 2.00  53 2.00
 

IMPORTANT INFORMATION: All symmetrisations will be switched off!
NOSYMM: (Re-)initialisation of all symmetry stuff for point group C_1.

 
 
 KPOINTS: K-Points                                

Automatic generation of k-mesh.
Space group operators:
 irot       det(A)        alpha          n_x          n_y          n_z        tau_x        tau_y        tau_z
    1     1.000000     0.000000     1.000000     0.000000     0.000000     0.000000     0.000000     0.000000
 
 Subroutine IBZKPT returns following result:
 ===========================================
 
 Found      4 irreducible k-points:
 
 Following reciprocal coordinates:
            Coordinates               Weight
  0.000000  0.000000  0.000000      1.000000
  0.500000 -0.000000  0.000000      1.000000
  0.000000  0.500000  0.000000      1.000000
  0.500000  0.500000  0.000000      1.000000
 
 Following cartesian coordinates:
            Coordinates               Weight
  0.000000  0.000000  0.000000      1.000000
  0.033649  0.019604  0.000000      1.000000
  0.000009  0.039207  0.000000      1.000000
  0.033658  0.058811  0.000000      1.000000
 


--------------------------------------------------------------------------------------------------------




 Dimension of arrays:
   k-points           NKPTS =      4   k-points in BZ     NKDIM =      4   number of bands    NBANDS=    184
   number of dos      NEDOS =    301   number of ions     NIONS =     71
   non local maximal  LDIM  =      6   non local SUM 2l+1 LMDIM =     18
   total plane-waves  NPLWV = ******
   max r-space proj   IRMAX =   6645   max aug-charges    IRDMAX=  15617
   dimension x,y,z NGX =   108 NGY =  108 NGZ =  108
   dimension x,y,z NGXF=   216 NGYF=  216 NGZF=  216
   support grid    NGXF=   216 NGYF=  216 NGZF=  216
   ions per type =              48   1  21   1
   NGX,Y,Z   is equivalent  to a cutoff of  12.08, 12.16, 11.97 a.u.
   NGXF,Y,Z  is equivalent  to a cutoff of  24.16, 24.33, 23.94 a.u.

 SYSTEM =  unknown system                          
 POSCAR =  POSCAR-clean                            

 Startparameter for this run:
   NWRITE =      2    write-flag & timer
   PREC   = accura    normal or accurate (medium, high low for compatibility)
   ISTART =      0    job   : 0-new  1-cont  2-samecut
   ICHARG =      2    charge: 1-file 2-atom 10-const
   ISPIN  =      2    spin polarized calculation?
   LNONCOLLINEAR =      F non collinear calculations
   LSORBIT =      F    spin-orbit coupling
   INIWAV =      1    electr: 0-lowe 1-rand  2-diag
   LASPH  =      F    aspherical Exc in radial PAW
   METAGGA=      F    non-selfconsistent MetaGGA calc.

 Electronic Relaxation 1
   ENCUT  =  440.0 eV  32.34 Ry    5.69 a.u.  25.42 25.25 25.66*2*pi/ulx,y,z
   ENINI  =  440.0     initial cutoff
   ENAUG  =  644.9 eV  augmentation charge cutoff
   NELM   =     50;   NELMIN=  2; NELMDL= -5     # of ELM steps 
   EDIFF  = 0.1E-04   stopping-criterion for ELM
   LREAL  =      T    real-space projection
   NLSPLINE    = F    spline interpolate recip. space projectors
   LCOMPAT=      F    compatible to vasp.4.4
   GGA_COMPAT  = T    GGA compatible to vasp.4.4-vasp.4.6
   LMAXPAW     = -100 max onsite density
   LMAXMIX     =    2 max onsite mixed and CHGCAR
   VOSKOWN=      0    Vosko Wilk Nusair interpolation
   ROPT   =   -0.00025  -0.00025  -0.00025  -0.00025
 Ionic relaxation
   EDIFFG = -.5E-01   stopping-criterion for IOM
   NSW    =    400    number of steps for IOM
   NBLOCK =      1;   KBLOCK =    400    inner block; outer block 
   IBRION =      2    ionic relax: 0-MD 1-quasi-New 2-CG
   NFREE  =      1    steps in history (QN), initial steepest desc. (CG)
   ISIF   =      2    stress and relaxation
   IWAVPR =     11    prediction:  0-non 1-charg 2-wave 3-comb
   ISYM   =      0    0-nonsym 1-usesym 2-fastsym
   LCORR  =      T    Harris-Foulkes like correction to forces

   POTIM  = 0.3000    time-step for ionic-motion
   TEIN   =    0.0    initial temperature
   TEBEG  =    0.0;   TEEND  =   0.0 temperature during run
   SMASS  =  -3.00    Nose mass-parameter (am)
   estimated Nose-frequenzy (Omega)   =  0.10E-29 period in steps =****** mass=  -0.505E-26a.u.
   SCALEE = 1.0000    scale energy and forces
   NPACO  =    256;   APACO  = 16.0  distance and # of slots for P.C.
   PSTRESS=    0.0 pullay stress

  Mass of Ions in am
   POMASS =  12.01 14.00 12.01 52.00
  Ionic Valenz
   ZVAL   =   4.00  5.00  4.00 12.00
  Atomic Wigner-Seitz radii
   RWIGS  =  -1.00 -1.00 -1.00 -1.00
  virtual crystal weights 
   VCA    =   1.00  1.00  1.00  1.00
   NELECT =     293.0000    total number of electrons
   NUPDOWN=      -1.0000    fix difference up-down

 DOS related values:
   EMIN   =  10.00;   EMAX   =-10.00  energy-range for DOS
   EFERMI =   0.00
   ISMEAR =     0;   SIGMA  =   0.10  broadening in eV -4-tet -1-fermi 0-gaus

 Electronic relaxation 2 (details)
   IALGO  =     68    algorithm
   LDIAG  =      T    sub-space diagonalisation (order eigenvalues)
   LSUBROT=      F    optimize rotation matrix (better conditioning)
   TURBO    =      0    0=normal 1=particle mesh
   IRESTART =      0    0=no restart 2=restart with 2 vectors
   NREBOOT  =      0    no. of reboots
   NMIN     =      0    reboot dimension
   EREF     =   0.00    reference energy to select bands
   IMIX   =      4    mixing-type and parameters
     AMIX     =   0.40;   BMIX     =  1.00
     AMIX_MAG =   1.60;   BMIX_MAG =  1.00
     AMIN     =   0.10
     WC   =   100.;   INIMIX=   1;  MIXPRE=   1;  MAXMIX= -45

 Intra band minimization:
   WEIMIN = 0.0010     energy-eigenvalue tresh-hold
   EBREAK =  0.14E-07  absolut break condition
   DEPER  =   0.30     relativ break condition  

   TIME   =   0.40     timestep for ELM

  volume/ion in A,a.u.               =      40.04       270.20
  Fermi-wavevector in a.u.,A,eV,Ry     =   0.767564  1.450486  8.015943  0.589155
  Thomas-Fermi vector in A             =   1.868148
 
 Write flags
   LWAVE        =      F    write WAVECAR
   LDOWNSAMPLE  =      F    k-point downsampling of WAVECAR
   LCHARG       =      F    write CHGCAR
   LVTOT        =      F    write LOCPOT, total local potential
   LVHAR        =      F    write LOCPOT, Hartree potential only
   LELF         =      F    write electronic localiz. function (ELF)
   LORBIT       =      0    0 simple, 1 ext, 2 COOP (PROOUT), +10 PAW based schemes


 Dipole corrections
   LMONO  =      F    monopole corrections only (constant potential shift)
   LDIPOL =      F    correct potential (dipole corrections)
   IDIPOL =      0    1-x, 2-y, 3-z, 4-all directions 
   EPSILON=  1.0000000 bulk dielectric constant

 Exchange correlation treatment:
   GGA     =    --    GGA type
   LEXCH   =     8    internal setting for exchange type
   VOSKOWN=      0    Vosko Wilk Nusair interpolation
   LHFCALC =     F    Hartree Fock is set to
   LHFONE  =     F    Hartree Fock one center treatment
   AEXX    =    0.0000 exact exchange contribution

 Linear response parameters
   LEPSILON=     F    determine dielectric tensor
   LRPA    =     F    only Hartree local field effects (RPA)
   LNABLA  =     F    use nabla operator in PAW spheres
   LVEL    =     F    velocity operator in full k-point grid
   LINTERFAST=   F  fast interpolation
   KINTER  =     0    interpolate to denser k-point grid
   CSHIFT  =0.1000    complex shift for real part using Kramers Kronig
   OMEGAMAX=  -1.0    maximum frequency
   DEG_THRESHOLD= 0.2000000E-02 threshold for treating states as degnerate
   RTIME   =   -0.100 relaxation time in fs
  (WPLASMAI=    0.000 imaginary part of plasma frequency in eV, 0.658/RTIME)
   DFIELD  = 0.0000000 0.0000000 0.0000000 field for delta impulse in time
 
 Orbital magnetization related:
   ORBITALMAG=     F  switch on orbital magnetization
   LCHIMAG   =     F  perturbation theory with respect to B field
   DQ        =  0.001000  dq finite difference perturbation B field
   LLRAUG    =     F  two centre corrections for induced B field



--------------------------------------------------------------------------------------------------------


 conjugate gradient relaxation of ions
 charge density and potential will be updated during run
 spin polarized calculation
 RMM-DIIS sequential band-by-band and
  variant of blocked Davidson during initial phase
 perform sub-space diagonalisation
    before iterative eigenvector-optimisation
 modified Broyden-mixing scheme, WC =      100.0
 initial mixing is a Kerker type mixing with AMIX =  0.4000 and BMIX =      1.0000
 Hartree-type preconditioning will be used
 using additional bands           37
 real space projection scheme for non local part
 use partial core corrections
 calculate Harris-corrections to forces 
   (improved forces if not selfconsistent)
 use gradient corrections 
 use of overlap-Matrix (Vanderbilt PP)
 Gauss-broadening in eV      SIGMA  =   0.10


--------------------------------------------------------------------------------------------------------


  energy-cutoff  :      440.00
  volume of cell :     2842.81
      direct lattice vectors                 reciprocal lattice vectors
    14.861163841 -0.003273593  0.000000000     0.067298117  0.039207262  0.000000000
    -7.430581921 12.754376365  0.000000000     0.000017273  0.078414524  0.000000000
     0.000000000  0.000000000 15.000000000     0.000000000  0.000000000  0.066666667

  length of vectors
    14.861164202 14.761018398 15.000000000     0.077886109  0.078414526  0.066666667


 
 k-points in units of 2pi/SCALE and weight: K-Points                                
   0.00000000  0.00000000  0.00000000       0.250
   0.03364906  0.01960363  0.00000000       0.250
   0.00000864  0.03920726  0.00000000       0.250
   0.03365770  0.05881089  0.00000000       0.250
 
 k-points in reciprocal lattice and weights: K-Points                                
   0.00000000  0.00000000  0.00000000       0.250
   0.50000000 -0.00000000  0.00000000       0.250
   0.00000000  0.50000000  0.00000000       0.250
   0.50000000  0.50000000  0.00000000       0.250
 
 position of ions in fractional coordinates (direct lattice) 
   0.00020065  0.99988321  0.49764739
   0.05592686  0.11141900  0.49771898
   0.16799426  0.00162793  0.49754759
   0.22356305  0.11319861  0.49826129
   0.33411774  0.00164469  0.49775063
   0.39003444  0.11326387  0.49839470
   0.49958781  0.99943166  0.49771641
   0.55560242  0.11110649  0.49765427
   0.66558880  0.99775299  0.49826709
   0.72149091  0.10924575  0.49754731
   0.83228463  0.99777648  0.49838349
   0.88795635  0.10932287  0.49774583
   0.99922074  0.16567225  0.49782582
   0.05457218  0.27690710  0.49850479
   0.16743629  0.16812093  0.49835622
   0.22308621  0.27998292  0.50006526
   0.33522684  0.17012258  0.49939776
   0.39088116  0.28144150  0.50245887
   0.50082947  0.16797063  0.49843666
   0.55687404  0.27966292  0.50006657
   0.66662004  0.16548960  0.49752471
   0.72278305  0.27695654  0.49802690
   0.83257971  0.16502200  0.49761984
   0.88827773  0.27648367  0.49775784
   0.99920307  0.33245208  0.49831499
   0.05441073  0.44370067  0.49875049
   0.16548525  0.33336061  0.50001364
   0.21937214  0.44469547  0.50167370
   0.33541588  0.33809360  0.50339971
   0.38760484  0.44887106  0.50956207
   0.50271188  0.33776640  0.50349582
   0.56127824  0.44857103  0.50972591
   0.66780786  0.33297127  0.49966310
   0.72502971  0.44397995  0.50125241
   0.83370052  0.33266278  0.49790947
   0.89015241  0.44457235  0.49826196
   0.00103268  0.50061824  0.49829061
   0.05690440  0.61194113  0.49832251
   0.16435786  0.50068585  0.50027712
   0.21968564  0.61186908  0.50035153
   0.32877457  0.49947648  0.50523748
   0.38430515  0.61172785  0.50522402
   0.67059243  0.49931112  0.50525827
   0.72716739  0.61190356  0.50523492
   0.83572814  0.50000593  0.49956107
   0.89188104  0.61123788  0.49956418
   0.00230846  0.66763596  0.49830265
   0.05667001  0.77908223  0.49792333
   0.16616520  0.66725190  0.49881108
   0.22191994  0.77784997  0.49831835
   0.33012716  0.66754450  0.50166543
   0.38826891  0.77833942  0.49997065
   0.49379773  0.66239211  0.50953322
   0.55277968  0.77298991  0.50341896
   0.66855913  0.66260840  0.50967038
   0.72048641  0.77323802  0.50352877
   0.83704770  0.66722991  0.50122174
   0.89044429  0.77815517  0.49963144
   0.00155545  0.83438734  0.49802110
   0.05690763  0.94571804  0.49752710
   0.16722533  0.83383797  0.49775265
   0.22336737  0.94563488  0.49762312
   0.33245779  0.83337516  0.49848915
   0.38841458  0.94499104  0.49783189
   0.49868269  0.83133004  0.50002607
   0.55477758  0.94312686  0.49835403
   0.66487521  0.82959150  0.50250777
   0.72051225  0.94087122  0.49940169
   0.83285770  0.83142383  0.50004802
   0.88850737  0.94308861  0.49842505
   0.52816736  0.55554536  0.55463509
 
 position of ions in cartesian coordinates  (Angst):
  -7.42673216 12.75288607  7.46471092
   0.00323020  1.42089680  7.46578474
   2.48449377  0.02021326  7.46321381
   2.48127560  1.44304578  7.47391937
   4.95315747  0.01988329  7.46625950
   4.95474924  1.44333324  7.47592056
  -0.00190254 12.74549216  7.46574610
   7.43131274  1.41527515  7.46481408
   2.47753886 12.72353825  7.47400639
   9.91043513  1.39099949  7.46320962
   4.95465839 12.72329215  7.47575241
  12.38373225  1.39143817  7.46618748
  13.61854194  2.10977525  7.46738723
  -1.24657473  3.53159873  7.47757179
   1.23906174  2.14372954  7.47534332
   1.23488470  3.57027724  7.50097897
   3.71775131  2.16871001  7.49096642
   3.71767477  3.58833128  7.53688312
   6.19478934  2.14072108  7.47654995
   6.19773805  3.56510320  7.50099854
   8.67706565  2.10853441  7.46287067
   8.68344912  3.53004187  7.47040350
  11.14689403  2.10202718  7.46429757
  11.14640626  3.52346892  7.46636764
  12.37900816  4.23694793  7.47472482
  -2.48834735  5.65894723  7.48125740
  -0.01775988  4.25126495  7.50020457
  -0.04422077  5.67109524  7.52510556
   2.47243814  4.31107505  7.55099566
   2.42488589  5.72380153  7.64343101
   4.96108271  4.30635409  7.55243732
   5.00810404  5.71940635  7.64588866
   7.45023162  4.24465482  7.49494643
   7.47575600  5.66031388  7.51878610
   9.91788190  4.24017713  7.46864210
   9.92526963  5.66732903  7.47392945
  -3.70453798  6.38507013  7.47435916
  -3.70141304  7.80474121  7.47483763
  -1.27783810  6.38539773  7.50415687
  -1.28175903  7.80328934  7.50527293
   1.17457182  6.36943469  7.57856218
   1.16572794  7.80094911  7.57836035
   6.25561186  6.36620666  7.57887407
   6.25975416  7.80206784  7.57852386
   8.70455783  6.37452797  7.49341605
   8.71253708  7.79303827  7.49346276
  -4.92661724  8.51527270  7.47453982
  -4.94685200  9.93652250  7.46884991
  -2.48866162  8.50983793  7.48216626
  -2.48188938  9.92026476  7.47477529
  -0.05417025  8.51303309  7.52498152
  -0.01338698  9.92596288  7.49955970
   2.41645013  8.44678182  7.64299824
   2.47118455  9.85719463  7.55128445
   5.01200081  8.44896831  7.64505570
   4.96165805  9.85981018  7.55293154
   7.48159645  8.50736124  7.51832607
   7.45089281  9.92196896  7.49447165
  -6.17686772 10.64208507  7.47031654
  -6.18152169 12.06185752  7.46290647
  -3.71073823 10.63453584  7.46628979
  -3.70711845 12.06025198  7.46434683
  -1.25175272 10.62809215  7.47733723
  -1.24954063 12.05149992  7.46747831
   1.23373927 10.60146368  7.50039103
   1.23665908 12.02717875  7.47531039
   3.71647175 10.57874571  7.53761654
   3.71642985 11.99786700  7.49102534
   6.19927195 10.60156595  7.50072029
   6.19655642 12.02559842  7.47637579
   3.72115641  7.08390561  8.31952634
 


--------------------------------------------------------------------------------------------------------


 k-point  1 :   0.0000 0.0000 0.0000  plane waves:   59577
 k-point  2 :   0.5000-0.0000 0.0000  plane waves:   59550
 k-point  3 :   0.0000 0.5000 0.0000  plane waves:   59646
 k-point  4 :   0.5000 0.5000 0.0000  plane waves:   59562

 maximum and minimum number of plane-waves per node :      4992     4937

 maximum number of plane-waves:     59646
 maximum index in each direction: 
   IXMAX=   25   IYMAX=   25   IZMAX=   25
   IXMIN=  -25   IYMIN=  -25   IZMIN=  -25


 real space projection operators:
  total allocation   :      18895.77 KBytes
  max/ min on nodes  :       1623.08       1540.12


 parallel 3D FFT for wavefunctions:
    minimum data exchange during FFTs selected (reduces bandwidth)
 parallel 3D FFT for charge:
    minimum data exchange during FFTs selected (reduces bandwidth)


 total amount of memory used by VASP MPI-rank0   111609. kBytes
=======================================================================

   base      :      30000. kBytes
   nonlr-proj:       9924. kBytes
   fftplans  :      10852. kBytes
   grid      :      30996. kBytes
   one-center:        186. kBytes
   wavefun   :      29651. kBytes
 
     INWAV:  cpu time    0.0000: real time    0.0000
 Broyden mixing: mesh for mixing (old mesh)
   NGX = 51   NGY = 51   NGZ = 51
  (NGX  =216   NGY  =216   NGZ  =216)
  gives a total of 132651 points

 initial charge density was supplied:
 charge density of overlapping atoms calculated
 number of electron     293.0000000 magnetization       1.0000000
 keeping initial charge density in first step


--------------------------------------------------------------------------------------------------------


 Maximum index for non-local projection operator          549
 Maximum index for augmentation-charges          326 (set IRDMAX)


--------------------------------------------------------------------------------------------------------


 First call to EWALD:  gamma=   0.125
 Maximum number of real-space cells 3x 3x 3
 Maximum number of reciprocal cells 3x 3x 3

    FEWALD:  cpu time    0.0037: real time    0.0039


--------------------------------------- Iteration      1(   1)  ---------------------------------------


    POTLOK:  cpu time    0.3818: real time    0.4152
    SETDIJ:  cpu time    0.0133: real time    0.0134
     EDDAV:  cpu time   11.6512: real time   11.7843
       DOS:  cpu time    0.0014: real time    0.0014
    --------------------------------------------
      LOOP:  cpu time   12.0477: real time   12.2143

 eigenvalue-minimisations  :  3368
 total energy-change (2. order) : 0.2468150E+04  (-0.1081856E+05)
 number of electron     293.0000000 magnetization       1.0000000
 augmentation part      293.0000000 magnetization       1.0000000

 Free energy of the ion-electron system (eV)
  ---------------------------------------------------
  alpha Z        PSCENC =       157.24862080
  Ewald energy   TEWEN  =     30452.10550625
  -Hartree energ DENC   =    -39613.85245550
  -exchange      EXHF   =         0.00000000
  -V(xc)+E(xc)   XCENC  =       982.96596381
  PAW double counting   =      9000.30529238    -9089.18527416
  entropy T*S    EENTRO =        -0.11260954
  eigenvalues    EBANDS =     -1486.60236265
  atomic energy  EATOM  =     12065.27733323
  Solvation  Ediel_sol  =         0.00000000
  ---------------------------------------------------
  free energy    TOTEN  =      2468.15001462 eV

  energy without entropy =     2468.26262417  energy(sigma->0) =     2468.20631939


--------------------------------------------------------------------------------------------------------




--------------------------------------- Iteration      1(   2)  ---------------------------------------


     EDDAV:  cpu time   14.6673: real time   14.9227
       DOS:  cpu time    0.0010: real time    0.0010
    --------------------------------------------
      LOOP:  cpu time   14.6683: real time   14.9237

 eigenvalue-minimisations  :  4232
 total energy-change (2. order) :-0.2697903E+04  (-0.2577837E+04)
 number of electron     293.0000000 magnetization       1.0000000
 augmentation part      293.0000000 magnetization       1.0000000

 Free energy of the ion-electron system (eV)
  ---------------------------------------------------
  alpha Z        PSCENC =       157.24862080
  Ewald energy   TEWEN  =     30452.10550625
  -Hartree energ DENC   =    -39613.85245550
  -exchange      EXHF   =         0.00000000
  -V(xc)+E(xc)   XCENC  =       982.96596381
  PAW double counting   =      9000.30529238    -9089.18527416
  entropy T*S    EENTRO =        -0.01668155
  eigenvalues    EBANDS =     -4184.60093057
  atomic energy  EATOM  =     12065.27733323
  Solvation  Ediel_sol  =         0.00000000
  ---------------------------------------------------
  free energy    TOTEN  =      -229.75262531 eV

  energy without entropy =     -229.73594376  energy(sigma->0) =     -229.74428453


--------------------------------------------------------------------------------------------------------




--------------------------------------- Iteration      1(   3)  ---------------------------------------


     EDDAV:  cpu time   13.6866: real time   13.8927
       DOS:  cpu time    0.0012: real time    0.0012
    --------------------------------------------
      LOOP:  cpu time   13.6878: real time   13.8939

 eigenvalue-minimisations  :  3576
 total energy-change (2. order) :-0.4575652E+03  (-0.4546771E+03)
 number of electron     293.0000000 magnetization       1.0000000
 augmentation part      293.0000000 magnetization       1.0000000

 Free energy of the ion-electron system (eV)
  ---------------------------------------------------
  alpha Z        PSCENC =       157.24862080
  Ewald energy   TEWEN  =     30452.10550625
  -Hartree energ DENC   =    -39613.85245550
  -exchange      EXHF   =         0.00000000
  -V(xc)+E(xc)   XCENC  =       982.96596381
  PAW double counting   =      9000.30529238    -9089.18527416
  entropy T*S    EENTRO =        -0.03642236
  eigenvalues    EBANDS =     -4642.14634140
  atomic energy  EATOM  =     12065.27733323
  Solvation  Ediel_sol  =         0.00000000
  ---------------------------------------------------
  free energy    TOTEN  =      -687.31777695 eV

  energy without entropy =     -687.28135459  energy(sigma->0) =     -687.29956577


--------------------------------------------------------------------------------------------------------




--------------------------------------- Iteration      1(   4)  ---------------------------------------


     EDDAV:  cpu time   12.8595: real time   13.0397
       DOS:  cpu time    0.0010: real time    0.0010
    --------------------------------------------
      LOOP:  cpu time   12.8605: real time   13.0407

 eigenvalue-minimisations  :  3568
 total energy-change (2. order) :-0.1671154E+02  (-0.1656037E+02)
 number of electron     293.0000000 magnetization       1.0000000
 augmentation part      293.0000000 magnetization       1.0000000

 Free energy of the ion-electron system (eV)
  ---------------------------------------------------
  alpha Z        PSCENC =       157.24862080
  Ewald energy   TEWEN  =     30452.10550625
  -Hartree energ DENC   =    -39613.85245550
  -exchange      EXHF   =         0.00000000
  -V(xc)+E(xc)   XCENC  =       982.96596381
  PAW double counting   =      9000.30529238    -9089.18527416
  entropy T*S    EENTRO =        -0.03741430
  eigenvalues    EBANDS =     -4658.85688640
  atomic energy  EATOM  =     12065.27733323
  Solvation  Ediel_sol  =         0.00000000
  ---------------------------------------------------
  free energy    TOTEN  =      -704.02931389 eV

  energy without entropy =     -703.99189959  energy(sigma->0) =     -704.01060674


--------------------------------------------------------------------------------------------------------




--------------------------------------- Iteration      1(   5)  ---------------------------------------


     EDDAV:  cpu time   14.3048: real time   14.5421
       DOS:  cpu time    0.0010: real time    0.0010
    CHARGE:  cpu time    0.4634: real time    0.4716
    MIXING:  cpu time    0.0071: real time    0.0081
    --------------------------------------------
      LOOP:  cpu time   14.7763: real time   15.0228

 eigenvalue-minimisations  :  4064
 total energy-change (2. order) :-0.5433820E+00  (-0.5414133E+00)
 number of electron     292.9999980 magnetization       0.7758219
 augmentation part       11.6653028 magnetization       0.7571906

 Broyden mixing:
  rms(total) = 0.46860E+01    rms(broyden)= 0.46855E+01
  rms(prec ) = 0.54431E+01
  weight for this iteration     100.00

 Free energy of the ion-electron system (eV)
  ---------------------------------------------------
  alpha Z        PSCENC =       157.24862080
  Ewald energy   TEWEN  =     30452.10550625
  -Hartree energ DENC   =    -39613.85245550
  -exchange      EXHF   =         0.00000000
  -V(xc)+E(xc)   XCENC  =       982.96596381
  PAW double counting   =      9000.30529238    -9089.18527416
  entropy T*S    EENTRO =        -0.03767996
  eigenvalues    EBANDS =     -4659.40000279
  atomic energy  EATOM  =     12065.27733323
  Solvation  Ediel_sol  =         0.00000000
  ---------------------------------------------------
  free energy    TOTEN  =      -704.57269593 eV

  energy without entropy =     -704.53501598  energy(sigma->0) =     -704.55385596


--------------------------------------------------------------------------------------------------------




--------------------------------------- Iteration      1(   6)  ---------------------------------------


    POTLOK:  cpu time    0.3869: real time    0.3984
    SETDIJ:  cpu time    0.0121: real time    0.0135
    EDDIAG:  cpu time    2.0704: real time    2.0973
  RMM-DIIS:  cpu time   11.7454: real time   11.8356
    ORTHCH:  cpu time    0.2343: real time    0.2348
       DOS:  cpu time    0.0009: real time    0.0009
    CHARGE:  cpu time    0.4737: real time    0.4841
    MIXING:  cpu time    0.0073: real time    0.0079
    --------------------------------------------
      LOOP:  cpu time   14.9310: real time   15.0725

 eigenvalue-minimisations  :  4127
 total energy-change (2. order) :-0.2632230E+02  (-0.5228917E+02)
 number of electron     292.9999979 magnetization       0.7206115
 augmentation part       17.2975810 magnetization       0.9123152

 Broyden mixing:
  rms(total) = 0.83141E+01    rms(broyden)= 0.83138E+01
  rms(prec ) = 0.91864E+01
  weight for this iteration     100.00

 eigenvalues of (default mixing * dielectric matrix)
  average eigenvalue GAMMA=   0.2194
  0.2194

 Free energy of the ion-electron system (eV)
  ---------------------------------------------------
  alpha Z        PSCENC =       157.24862080
  Ewald energy   TEWEN  =     30452.10550625
  -Hartree energ DENC   =    -39907.11419150
  -exchange      EXHF   =         0.00000000
  -V(xc)+E(xc)   XCENC  =       996.78929090
  PAW double counting   =     15334.64146431   -15423.28526371
  entropy T*S    EENTRO =        -0.05434423
  eigenvalues    EBANDS =     -4406.50341025
  atomic energy  EATOM  =     12065.27733323
  Solvation  Ediel_sol  =         0.00000000
  ---------------------------------------------------
  free energy    TOTEN  =      -730.89499421 eV

  energy without entropy =     -730.84064998  energy(sigma->0) =     -730.86782210


--------------------------------------------------------------------------------------------------------




--------------------------------------- Iteration      1(   7)  ---------------------------------------


    POTLOK:  cpu time    0.3860: real time    0.3928
    SETDIJ:  cpu time    0.0122: real time    0.0123
    EDDIAG:  cpu time    2.0371: real time    2.0553
  RMM-DIIS:  cpu time    8.8137: real time    8.8849
    ORTHCH:  cpu time    0.6181: real time    0.6212
       DOS:  cpu time    0.0009: real time    0.0009
    CHARGE:  cpu time    0.4888: real time    0.5020
    MIXING:  cpu time    0.0071: real time    0.0082
    --------------------------------------------
      LOOP:  cpu time   12.3640: real time   12.4776

 eigenvalue-minimisations  :  3067
 total energy-change (2. order) : 0.6856863E+02  (-0.5945627E+01)
 number of electron     292.9999979 magnetization       0.6164483
 augmentation part       15.2312987 magnetization       0.6084983

 Broyden mixing:
  rms(total) = 0.31903E+01    rms(broyden)= 0.31900E+01
  rms(prec ) = 0.38241E+01
  weight for this iteration     100.00

 eigenvalues of (default mixing * dielectric matrix)
  average eigenvalue GAMMA=   0.4691
  0.5054  0.4328

 Free energy of the ion-electron system (eV)
  ---------------------------------------------------
  alpha Z        PSCENC =       157.24862080
  Ewald energy   TEWEN  =     30452.10550625
  -Hartree energ DENC   =    -40030.10021731
  -exchange      EXHF   =         0.00000000
  -V(xc)+E(xc)   XCENC  =      1001.43269750
  PAW double counting   =     16977.46080259   -17072.93881390
  entropy T*S    EENTRO =        -0.00003712
  eigenvalues    EBANDS =     -4212.81225227
  atomic energy  EATOM  =     12065.27733323
  Solvation  Ediel_sol  =         0.00000000
  ---------------------------------------------------
  free energy    TOTEN  =      -662.32636023 eV

  energy without entropy =     -662.32632311  energy(sigma->0) =     -662.32634167


--------------------------------------------------------------------------------------------------------




--------------------------------------- Iteration      1(   8)  ---------------------------------------


    POTLOK:  cpu time    0.3903: real time    0.3950
    SETDIJ:  cpu time    0.0125: real time    0.0125
    EDDIAG:  cpu time    2.0585: real time    2.0759
  RMM-DIIS:  cpu time    8.9700: real time    9.0314
    ORTHCH:  cpu time    0.7858: real time    0.7876
       DOS:  cpu time    0.0010: real time    0.0010
    CHARGE:  cpu time    0.4538: real time    0.4620
    MIXING:  cpu time    0.0091: real time    0.0091
    --------------------------------------------
      LOOP:  cpu time   12.6810: real time   12.7746

 eigenvalue-minimisations  :  3126
 total energy-change (2. order) :-0.1673565E+00  (-0.2308229E+01)
 number of electron     292.9999980 magnetization       0.3415092
 augmentation part       11.2318875 magnetization       0.3167944

 Broyden mixing:
  rms(total) = 0.28419E+01    rms(broyden)= 0.28410E+01
  rms(prec ) = 0.34791E+01
  weight for this iteration     100.00

 eigenvalues of (default mixing * dielectric matrix)
  average eigenvalue GAMMA=   0.8592
  1.8942  0.3416  0.3416

 Free energy of the ion-electron system (eV)
  ---------------------------------------------------
  alpha Z        PSCENC =       157.24862080
  Ewald energy   TEWEN  =     30452.10550625
  -Hartree energ DENC   =    -40211.67528776
  -exchange      EXHF   =         0.00000000
  -V(xc)+E(xc)   XCENC  =      1008.17127344
  PAW double counting   =     19992.21015647   -20091.67055319
  entropy T*S    EENTRO =        -0.02795732
  eigenvalues    EBANDS =     -4034.13280862
  atomic energy  EATOM  =     12065.27733323
  Solvation  Ediel_sol  =         0.00000000
  ---------------------------------------------------
  free energy    TOTEN  =      -662.49371670 eV

  energy without entropy =     -662.46575938  energy(sigma->0) =     -662.47973804


--------------------------------------------------------------------------------------------------------




--------------------------------------- Iteration      1(   9)  ---------------------------------------


    POTLOK:  cpu time    0.4304: real time    0.4339
    SETDIJ:  cpu time    0.0476: real time    0.0480
    EDDIAG:  cpu time    2.0953: real time    2.1101
  RMM-DIIS:  cpu time    8.4951: real time    8.5610
    ORTHCH:  cpu time    0.5332: real time    0.5631
       DOS:  cpu time    0.0010: real time    0.0010
    CHARGE:  cpu time    0.4926: real time    0.5011
    MIXING:  cpu time    0.0093: real time    0.0094
    --------------------------------------------
      LOOP:  cpu time   12.1045: real time   12.2277

 eigenvalue-minimisations  :  2966
 total energy-change (2. order) : 0.1514863E+02  (-0.2048074E+01)
 number of electron     292.9999981 magnetization       0.2546819
 augmentation part       12.1884587 magnetization       0.2707878

 Broyden mixing:
  rms(total) = 0.11563E+01    rms(broyden)= 0.11557E+01
  rms(prec ) = 0.13029E+01
  weight for this iteration     100.00

 eigenvalues of (default mixing * dielectric matrix)
  average eigenvalue GAMMA=   0.9229
  2.2326  0.7531  0.3530  0.3530

 Free energy of the ion-electron system (eV)
  ---------------------------------------------------
  alpha Z        PSCENC =       157.24862080
  Ewald energy   TEWEN  =     30452.10550625
  -Hartree energ DENC   =    -40519.78914731
  -exchange      EXHF   =         0.00000000
  -V(xc)+E(xc)   XCENC  =      1021.08147190
  PAW double counting   =     28516.27893820   -28618.49428327
  entropy T*S    EENTRO =        -0.00500571
  eigenvalues    EBANDS =     -3721.04852475
  atomic energy  EATOM  =     12065.27733323
  Solvation  Ediel_sol  =         0.00000000
  ---------------------------------------------------
  free energy    TOTEN  =      -647.34509067 eV

  energy without entropy =     -647.34008496  energy(sigma->0) =     -647.34258782


--------------------------------------------------------------------------------------------------------




--------------------------------------- Iteration      1(  10)  ---------------------------------------


    POTLOK:  cpu time    0.3860: real time    0.3894
    SETDIJ:  cpu time    0.0123: real time    0.0124
    EDDIAG:  cpu time    2.0573: real time    2.0726
  RMM-DIIS:  cpu time    8.6247: real time    8.6862
    ORTHCH:  cpu time    0.2859: real time    0.2867
       DOS:  cpu time    0.0009: real time    0.0009
    CHARGE:  cpu time    0.4499: real time    0.4585
    MIXING:  cpu time    0.0091: real time    0.0092
    --------------------------------------------
      LOOP:  cpu time   11.8260: real time   11.9159

 eigenvalue-minimisations  :  3008
 total energy-change (2. order) :-0.5043388E+00  (-0.3379211E+00)
 number of electron     292.9999980 magnetization       0.1987442
 augmentation part       13.7880232 magnetization       0.2223737

 Broyden mixing:
  rms(total) = 0.14686E+01    rms(broyden)= 0.14667E+01
  rms(prec ) = 0.18258E+01
  weight for this iteration     100.00

 eigenvalues of (default mixing * dielectric matrix)
  average eigenvalue GAMMA=   0.9313
  2.3536  1.1070  0.3499  0.3499  0.4961

 Free energy of the ion-electron system (eV)
  ---------------------------------------------------
  alpha Z        PSCENC =       157.24862080
  Ewald energy   TEWEN  =     30452.10550625
  -Hartree energ DENC   =    -40562.17239234
  -exchange      EXHF   =         0.00000000
  -V(xc)+E(xc)   XCENC  =      1021.95051745
  PAW double counting   =     30046.26823475   -30147.30144812
  entropy T*S    EENTRO =        -0.00109670
  eigenvalues    EBANDS =     -3681.22470482
  atomic energy  EATOM  =     12065.27733323
  Solvation  Ediel_sol  =         0.00000000
  ---------------------------------------------------
  free energy    TOTEN  =      -647.84942951 eV

  energy without entropy =     -647.84833281  energy(sigma->0) =     -647.84888116


--------------------------------------------------------------------------------------------------------




--------------------------------------- Iteration      1(  11)  ---------------------------------------


    POTLOK:  cpu time    0.4001: real time    0.4047
    SETDIJ:  cpu time    0.0127: real time    0.0132
    EDDIAG:  cpu time    2.0761: real time    2.0948
  RMM-DIIS:  cpu time    8.8501: real time    8.9167
    ORTHCH:  cpu time    0.3604: real time    0.3616
       DOS:  cpu time    0.0010: real time    0.0010
    CHARGE:  cpu time    0.4552: real time    0.4636
    MIXING:  cpu time    0.0090: real time    0.0090
    --------------------------------------------
      LOOP:  cpu time   12.1647: real time   12.2646

 eigenvalue-minimisations  :  3113
 total energy-change (2. order) : 0.1115113E+01  (-0.4390425E-01)
 number of electron     292.9999981 magnetization       0.1348867
 augmentation part       12.5344803 magnetization       0.1138392

 Broyden mixing:
  rms(total) = 0.76895E+00    rms(broyden)= 0.76631E+00
  rms(prec ) = 0.81823E+00
  weight for this iteration     100.00

 eigenvalues of (default mixing * dielectric matrix)
  average eigenvalue GAMMA=   0.9809
  2.0849  2.0849  0.6575  0.3476  0.3476  0.3630

 Free energy of the ion-electron system (eV)
  ---------------------------------------------------
  alpha Z        PSCENC =       157.24862080
  Ewald energy   TEWEN  =     30452.10550625
  -Hartree energ DENC   =    -40595.79547367
  -exchange      EXHF   =         0.00000000
  -V(xc)+E(xc)   XCENC  =      1022.38493185
  PAW double counting   =     30726.14971436   -30826.50756017
  entropy T*S    EENTRO =        -0.03133018
  eigenvalues    EBANDS =     -3647.56605902
  atomic energy  EATOM  =     12065.27733323
  Solvation  Ediel_sol  =         0.00000000
  ---------------------------------------------------
  free energy    TOTEN  =      -646.73431657 eV

  energy without entropy =     -646.70298639  energy(sigma->0) =     -646.71865148


--------------------------------------------------------------------------------------------------------




--------------------------------------- Iteration      1(  12)  ---------------------------------------


    POTLOK:  cpu time    0.3900: real time    0.3941
    SETDIJ:  cpu time    0.0128: real time    0.0128
    EDDIAG:  cpu time    2.1979: real time    2.2216
  RMM-DIIS:  cpu time    8.3422: real time    8.4018
    ORTHCH:  cpu time    0.2571: real time    0.2645
       DOS:  cpu time    0.0010: real time    0.0010
    CHARGE:  cpu time    0.4826: real time    0.4898
    MIXING:  cpu time    0.0088: real time    0.0089
    --------------------------------------------
      LOOP:  cpu time   11.6923: real time   11.7944

 eigenvalue-minimisations  :  2944
 total energy-change (2. order) : 0.1134880E+00  (-0.1586240E-01)
 number of electron     292.9999980 magnetization       0.1512171
 augmentation part       12.8884549 magnetization      -0.1983989

 Broyden mixing:
  rms(total) = 0.63386E+00    rms(broyden)= 0.63264E+00
  rms(prec ) = 0.65320E+00
  weight for this iteration     100.00

 eigenvalues of (default mixing * dielectric matrix)
  average eigenvalue GAMMA=   0.8640
  2.1255  2.1255  0.5816  0.3487  0.3487  0.3688  0.1495

 Free energy of the ion-electron system (eV)
  ---------------------------------------------------
  alpha Z        PSCENC =       157.24862080
  Ewald energy   TEWEN  =     30452.10550625
  -Hartree energ DENC   =    -40621.46085745
  -exchange      EXHF   =         0.00000000
  -V(xc)+E(xc)   XCENC  =      1021.94475916
  PAW double counting   =     31155.26660759   -31254.13792323
  entropy T*S    EENTRO =        -0.05142577
  eigenvalues    EBANDS =     -3622.81344912
  atomic energy  EATOM  =     12065.27733323
  Solvation  Ediel_sol  =         0.00000000
  ---------------------------------------------------
  free energy    TOTEN  =      -646.62082855 eV

  energy without entropy =     -646.56940278  energy(sigma->0) =     -646.59511567


--------------------------------------------------------------------------------------------------------




--------------------------------------- Iteration      1(  13)  ---------------------------------------


    POTLOK:  cpu time    0.3534: real time    0.3587
    SETDIJ:  cpu time    0.0127: real time    0.0128
    EDDIAG:  cpu time    2.0606: real time    2.0762
  RMM-DIIS:  cpu time    8.5545: real time    8.6181
    ORTHCH:  cpu time    0.4960: real time    0.6059
       DOS:  cpu time    0.0010: real time    0.0010
    CHARGE:  cpu time    0.4504: real time    0.4568
    MIXING:  cpu time    0.0090: real time    0.0090
    --------------------------------------------
      LOOP:  cpu time   11.9376: real time   12.1385

 eigenvalue-minimisations  :  2988
 total energy-change (2. order) :-0.7973088E-01  (-0.2571292E-02)
 number of electron     292.9999980 magnetization       0.0694214
 augmentation part       12.9366124 magnetization      -0.3988551

 Broyden mixing:
  rms(total) = 0.72246E+00    rms(broyden)= 0.72222E+00
  rms(prec ) = 0.74783E+00
  weight for this iteration     100.00

 eigenvalues of (default mixing * dielectric matrix)
  average eigenvalue GAMMA=   0.8701
  2.2017  2.2017  0.7101  0.3482  0.3482  0.5147  0.3346  0.3018

 Free energy of the ion-electron system (eV)
  ---------------------------------------------------
  alpha Z        PSCENC =       157.24862080
  Ewald energy   TEWEN  =     30452.10550625
  -Hartree energ DENC   =    -40623.24091247
  -exchange      EXHF   =         0.00000000
  -V(xc)+E(xc)   XCENC  =      1021.96452525
  PAW double counting   =     31157.90196006   -31256.69105519
  entropy T*S    EENTRO =        -0.02898709
  eigenvalues    EBANDS =     -3621.23755026
  atomic energy  EATOM  =     12065.27733323
  Solvation  Ediel_sol  =         0.00000000
  ---------------------------------------------------
  free energy    TOTEN  =      -646.70055943 eV

  energy without entropy =     -646.67157234  energy(sigma->0) =     -646.68606588


--------------------------------------------------------------------------------------------------------




--------------------------------------- Iteration      1(  14)  ---------------------------------------


    POTLOK:  cpu time    0.4002: real time    0.4032
    SETDIJ:  cpu time    0.0122: real time    0.0123
    EDDIAG:  cpu time    2.0450: real time    2.0607
  RMM-DIIS:  cpu time    8.4591: real time    8.5149
    ORTHCH:  cpu time    0.3776: real time    0.3786
       DOS:  cpu time    0.0009: real time    0.0009
    CHARGE:  cpu time    0.4496: real time    0.4565
    MIXING:  cpu time    0.0102: real time    0.0102
    --------------------------------------------
      LOOP:  cpu time   11.7547: real time   11.8373

 eigenvalue-minimisations  :  2968
 total energy-change (2. order) : 0.1800155E+00  (-0.2622346E-02)
 number of electron     292.9999980 magnetization       0.0529205
 augmentation part       13.0136429 magnetization      -0.3308608

 Broyden mixing:
  rms(total) = 0.73292E+00    rms(broyden)= 0.73288E+00
  rms(prec ) = 0.77747E+00
  weight for this iteration     100.00

 eigenvalues of (default mixing * dielectric matrix)
  average eigenvalue GAMMA=   0.8229
  2.2312  2.2312  0.7100  0.3479  0.3479  0.5088  0.3390  0.3452  0.3452

 Free energy of the ion-electron system (eV)
  ---------------------------------------------------
  alpha Z        PSCENC =       157.24862080
  Ewald energy   TEWEN  =     30452.10550625
  -Hartree energ DENC   =    -40628.29294246
  -exchange      EXHF   =         0.00000000
  -V(xc)+E(xc)   XCENC  =      1022.02290499
  PAW double counting   =     31238.91560870   -31337.58644512
  entropy T*S    EENTRO =        -0.04978735
  eigenvalues    EBANDS =     -3616.16134302
  atomic energy  EATOM  =     12065.27733323
  Solvation  Ediel_sol  =         0.00000000
  ---------------------------------------------------
  free energy    TOTEN  =      -646.52054398 eV

  energy without entropy =     -646.47075663  energy(sigma->0) =     -646.49565030


--------------------------------------------------------------------------------------------------------




--------------------------------------- Iteration      1(  15)  ---------------------------------------


    POTLOK:  cpu time    0.4385: real time    0.4427
    SETDIJ:  cpu time    0.0123: real time    0.0123
    EDDIAG:  cpu time    2.0537: real time    2.0697
  RMM-DIIS:  cpu time    9.0086: real time    9.0795
    ORTHCH:  cpu time    0.2790: real time    0.2800
       DOS:  cpu time    0.0010: real time    0.0010
    CHARGE:  cpu time    0.4536: real time    0.4618
    MIXING:  cpu time    0.0097: real time    0.0102
    --------------------------------------------
      LOOP:  cpu time   12.2564: real time   12.3571

 eigenvalue-minimisations  :  3162
 total energy-change (2. order) :-0.3475151E-03  (-0.3930386E-03)
 number of electron     292.9999980 magnetization       0.0412540
 augmentation part       13.0110219 magnetization      -0.2368750

 Broyden mixing:
  rms(total) = 0.64690E+00    rms(broyden)= 0.64681E+00
  rms(prec ) = 0.69607E+00
  weight for this iteration     100.00

 eigenvalues of (default mixing * dielectric matrix)
  average eigenvalue GAMMA=   0.8117
  2.2137  2.2137  0.7260  0.5004  0.5004  0.5401  0.3478  0.3478  0.3435  0.3841

 Free energy of the ion-electron system (eV)
  ---------------------------------------------------
  alpha Z        PSCENC =       157.24862080
  Ewald energy   TEWEN  =     30452.10550625
  -Hartree energ DENC   =    -40629.06470328
  -exchange      EXHF   =         0.00000000
  -V(xc)+E(xc)   XCENC  =      1022.02911821
  PAW double counting   =     31238.62848107   -31337.31700868
  entropy T*S    EENTRO =        -0.06420371
  eigenvalues    EBANDS =     -3615.36403538
  atomic energy  EATOM  =     12065.27733323
  Solvation  Ediel_sol  =         0.00000000
  ---------------------------------------------------
  free energy    TOTEN  =      -646.52089149 eV

  energy without entropy =     -646.45668778  energy(sigma->0) =     -646.48878964


--------------------------------------------------------------------------------------------------------




--------------------------------------- Iteration      1(  16)  ---------------------------------------


    POTLOK:  cpu time    0.4275: real time    0.4333
    SETDIJ:  cpu time    0.0115: real time    0.0116
    EDDIAG:  cpu time    2.0556: real time    2.0718
  RMM-DIIS:  cpu time    8.2967: real time    8.3550
    ORTHCH:  cpu time    0.2065: real time    0.2153
       DOS:  cpu time    0.0012: real time    0.0011
    CHARGE:  cpu time    0.4543: real time    0.4638
    MIXING:  cpu time    0.0086: real time    0.0091
    --------------------------------------------
      LOOP:  cpu time   11.4617: real time   11.5609

 eigenvalue-minimisations  :  2944
 total energy-change (2. order) :-0.5396036E-01  (-0.1568657E-02)
 number of electron     292.9999980 magnetization       0.0026699
 augmentation part       12.9818190 magnetization      -0.3361647

 Broyden mixing:
  rms(total) = 0.64912E+00    rms(broyden)= 0.64907E+00
  rms(prec ) = 0.68983E+00
  weight for this iteration     100.00

 eigenvalues of (default mixing * dielectric matrix)
  average eigenvalue GAMMA=   0.7404
  2.2133  2.2133  0.7241  0.4648  0.4648  0.5512  0.3478  0.3478  0.3437  0.3567
  0.1163

 Free energy of the ion-electron system (eV)
  ---------------------------------------------------
  alpha Z        PSCENC =       157.24862080
  Ewald energy   TEWEN  =     30452.10550625
  -Hartree energ DENC   =    -40643.11742746
  -exchange      EXHF   =         0.00000000
  -V(xc)+E(xc)   XCENC  =      1022.25223925
  PAW double counting   =     31194.81946315   -31293.54627078
  entropy T*S    EENTRO =        -0.04315809
  eigenvalues    EBANDS =     -3601.57115820
  atomic energy  EATOM  =     12065.27733323
  Solvation  Ediel_sol  =         0.00000000
  ---------------------------------------------------
  free energy    TOTEN  =      -646.57485185 eV

  energy without entropy =     -646.53169377  energy(sigma->0) =     -646.55327281


--------------------------------------------------------------------------------------------------------




--------------------------------------- Iteration      1(  17)  ---------------------------------------


    POTLOK:  cpu time    0.4441: real time    0.4485
    SETDIJ:  cpu time    0.0123: real time    0.0124
    EDDIAG:  cpu time    2.0676: real time    2.0852
  RMM-DIIS:  cpu time    8.3801: real time    8.4410
    ORTHCH:  cpu time    0.2820: real time    0.2826
       DOS:  cpu time    0.0019: real time    0.0025
    CHARGE:  cpu time    0.4767: real time    0.4844
    MIXING:  cpu time    0.0101: real time    0.0101
    --------------------------------------------
      LOOP:  cpu time   11.6748: real time   11.7666

 eigenvalue-minimisations  :  2955
 total energy-change (2. order) :-0.1339007E-02  (-0.6146061E-02)
 number of electron     292.9999980 magnetization      -0.0020638
 augmentation part       12.7866794 magnetization      -0.3276998

 Broyden mixing:
  rms(total) = 0.42912E+00    rms(broyden)= 0.42891E+00
  rms(prec ) = 0.43506E+00
  weight for this iteration     100.00

 eigenvalues of (default mixing * dielectric matrix)
  average eigenvalue GAMMA=   0.8779
  2.2121  2.2121  1.2509  1.2509  0.4460  0.6958  0.6486  0.3472  0.3472  0.3474
  0.3880  0.3880

 Free energy of the ion-electron system (eV)
  ---------------------------------------------------
  alpha Z        PSCENC =       157.24862080
  Ewald energy   TEWEN  =     30452.10550625
  -Hartree energ DENC   =    -40667.57729925
  -exchange      EXHF   =         0.00000000
  -V(xc)+E(xc)   XCENC  =      1022.56030771
  PAW double counting   =     31122.08900576   -31220.72313488
  entropy T*S    EENTRO =        -0.03364840
  eigenvalues    EBANDS =     -3577.52288207
  atomic energy  EATOM  =     12065.27733323
  Solvation  Ediel_sol  =         0.00000000
  ---------------------------------------------------
  free energy    TOTEN  =      -646.57619086 eV

  energy without entropy =     -646.54254246  energy(sigma->0) =     -646.55936666


--------------------------------------------------------------------------------------------------------




--------------------------------------- Iteration      1(  18)  ---------------------------------------


    POTLOK:  cpu time    0.4038: real time    0.4070
    SETDIJ:  cpu time    0.0119: real time    0.0119
    EDDIAG:  cpu time    2.0276: real time    2.0435
  RMM-DIIS:  cpu time    8.4125: real time    8.4690
    ORTHCH:  cpu time    0.3001: real time    0.3010
       DOS:  cpu time    0.0011: real time    0.0011
    CHARGE:  cpu time    0.4734: real time    0.4806
    MIXING:  cpu time    0.0092: real time    0.0093
    --------------------------------------------
      LOOP:  cpu time   11.6397: real time   11.7234

 eigenvalue-minimisations  :  2964
 total energy-change (2. order) :-0.6804605E-01  (-0.8049454E-02)
 number of electron     292.9999980 magnetization      -0.0455579
 augmentation part       12.8641544 magnetization      -0.4307239

 Broyden mixing:
  rms(total) = 0.37948E+00    rms(broyden)= 0.37940E+00
  rms(prec ) = 0.39894E+00
  weight for this iteration     100.00

 eigenvalues of (default mixing * dielectric matrix)
  average eigenvalue GAMMA=   0.8955
  2.2291  2.2291  1.4906  1.4906  0.4508  0.6850  0.6850  0.3474  0.3474  0.4766
  0.4766  0.3665  0.3665

 Free energy of the ion-electron system (eV)
  ---------------------------------------------------
  alpha Z        PSCENC =       157.24862080
  Ewald energy   TEWEN  =     30452.10550625
  -Hartree energ DENC   =    -40692.79465706
  -exchange      EXHF   =         0.00000000
  -V(xc)+E(xc)   XCENC  =      1022.86467490
  PAW double counting   =     31061.24790851   -31159.76622843
  entropy T*S    EENTRO =        -0.02925972
  eigenvalues    EBANDS =     -3552.79813539
  atomic energy  EATOM  =     12065.27733323
  Solvation  Ediel_sol  =         0.00000000
  ---------------------------------------------------
  free energy    TOTEN  =      -646.64423691 eV

  energy without entropy =     -646.61497719  energy(sigma->0) =     -646.62960705


--------------------------------------------------------------------------------------------------------




--------------------------------------- Iteration      1(  19)  ---------------------------------------


    POTLOK:  cpu time    0.3874: real time    0.3911
    SETDIJ:  cpu time    0.0123: real time    0.0124
    EDDIAG:  cpu time    2.0307: real time    2.0462
  RMM-DIIS:  cpu time    8.8627: real time    8.9221
    ORTHCH:  cpu time    0.2950: real time    0.2955
       DOS:  cpu time    0.0010: real time    0.0010
    CHARGE:  cpu time    0.4870: real time    0.4944
    MIXING:  cpu time    0.0098: real time    0.0099
    --------------------------------------------
      LOOP:  cpu time   12.0858: real time   12.1727

 eigenvalue-minimisations  :  3150
 total energy-change (2. order) : 0.3288843E-01  (-0.2686877E-02)
 number of electron     292.9999980 magnetization      -0.0446762
 augmentation part       12.7897654 magnetization      -0.4017234

 Broyden mixing:
  rms(total) = 0.32037E+00    rms(broyden)= 0.32029E+00
  rms(prec ) = 0.32554E+00
  weight for this iteration     100.00

 eigenvalues of (default mixing * dielectric matrix)
  average eigenvalue GAMMA=   0.8561
  2.2421  2.2421  1.4721  1.4721  0.4462  0.7048  0.7048  0.3474  0.3474  0.4359
  0.4359  0.3599  0.4259  0.3488

 Free energy of the ion-electron system (eV)
  ---------------------------------------------------
  alpha Z        PSCENC =       157.24862080
  Ewald energy   TEWEN  =     30452.10550625
  -Hartree energ DENC   =    -40705.48765370
  -exchange      EXHF   =         0.00000000
  -V(xc)+E(xc)   XCENC  =      1022.97668481
  PAW double counting   =     31055.80524234   -31154.24034466
  entropy T*S    EENTRO =        -0.03480131
  eigenvalues    EBANDS =     -3540.26193624
  atomic energy  EATOM  =     12065.27733323
  Solvation  Ediel_sol  =         0.00000000
  ---------------------------------------------------
  free energy    TOTEN  =      -646.61134848 eV

  energy without entropy =     -646.57654717  energy(sigma->0) =     -646.59394782


--------------------------------------------------------------------------------------------------------




--------------------------------------- Iteration      1(  20)  ---------------------------------------


    POTLOK:  cpu time    0.3830: real time    0.3864
    SETDIJ:  cpu time    0.0122: real time    0.0122
    EDDIAG:  cpu time    2.0105: real time    2.0323
  RMM-DIIS:  cpu time    9.0860: real time    9.1481
    ORTHCH:  cpu time    0.2185: real time    0.2196
       DOS:  cpu time    0.0010: real time    0.0010
    CHARGE:  cpu time    0.4829: real time    0.4934
    MIXING:  cpu time    0.0113: real time    0.0113
    --------------------------------------------
      LOOP:  cpu time   12.2054: real time   12.3044

 eigenvalue-minimisations  :  3231
 total energy-change (2. order) :-0.1213928E-01  (-0.4807188E-03)
 number of electron     292.9999980 magnetization      -0.1200617
 augmentation part       12.7891605 magnetization      -0.4743500

 Broyden mixing:
  rms(total) = 0.32139E+00    rms(broyden)= 0.32139E+00
  rms(prec ) = 0.32666E+00
  weight for this iteration     100.00

 eigenvalues of (default mixing * dielectric matrix)
  average eigenvalue GAMMA=   0.8661
  2.4731  2.4731  1.9095  0.4518  0.8915  0.8915  0.8639  0.6945  0.3474  0.3474
  0.4811  0.3498  0.3676  0.3676  0.0820

 Free energy of the ion-electron system (eV)
  ---------------------------------------------------
  alpha Z        PSCENC =       157.24862080
  Ewald energy   TEWEN  =     30452.10550625
  -Hartree energ DENC   =    -40705.40581116
  -exchange      EXHF   =         0.00000000
  -V(xc)+E(xc)   XCENC  =      1022.97184500
  PAW double counting   =     31055.62965670   -31154.06396183
  entropy T*S    EENTRO =        -0.03489854
  eigenvalues    EBANDS =     -3540.35177820
[...]
  Hartree 40019.08135 39976.19830-39219.10613    -0.73393    -1.12419     2.97131
  E(xc)   -1111.07795 -1110.75492 -1150.21961     0.00470     0.00011    -0.00055
  Local  -83781.78971-83736.13905 86096.58532     0.35098     2.01368    -6.04072
  n-local  -289.23032  -286.62798  -269.94965    -0.01158    -0.03521     0.00276
  augment    66.60153    64.97233    65.45427    -0.00561    -0.00467    -0.08936
  Kinetic  4383.31657  4370.94201  4985.01775    -0.23837     0.11542    -0.23112
  Fock        0.00000     0.00000     0.00000     0.00000     0.00000     0.00000
  vdW        -1.52571    -1.66128    -0.04214     0.00254     0.00055    -0.00400
  -------------------------------------------------------------------------------------
  Total      -1.53626    -1.29528    -3.48917     0.02301     0.00918     0.02094
  in kB      -0.86582    -0.73000    -1.96646     0.01297     0.00517     0.01180
  external pressure =       -1.19 kB  Pullay stress =        0.00 kB


 VOLUME and BASIS-vectors are now :
 -----------------------------------------------------------------------------
  energy-cutoff  :      440.00
  volume of cell :     2842.81
      direct lattice vectors                 reciprocal lattice vectors
    14.861163841 -0.003273593  0.000000000     0.067298117  0.039207262  0.000000000
    -7.430581921 12.754376365  0.000000000     0.000017273  0.078414524  0.000000000
     0.000000000  0.000000000 15.000000000     0.000000000  0.000000000  0.066666667

  length of vectors
    14.861164202 14.761018398 15.000000000     0.077886109  0.078414526  0.066666667


 FORCES acting on ions
    electron-ion (+dipol)            ewald-force                    non-local-force                 convergence-correction
 -----------------------------------------------------------------------------------------------
   0.260E+01 -.268E+00 0.788E+01   -.274E+01 0.291E+00 -.791E+01   0.142E+00 -.246E-01 0.295E-01   -.851E-05 0.493E-05 -.110E-04
   -.105E+01 -.394E-01 0.770E+01   0.116E+01 0.101E+00 -.773E+01   -.106E+00 -.566E-01 0.282E-01   0.539E-05 0.252E-06 -.106E-04
   -.153E+00 -.177E+01 0.733E+01   -.896E-02 0.206E+01 -.735E+01   0.149E+00 -.291E+00 0.266E-01   -.464E-05 0.749E-05 -.227E-06
   -.121E+01 -.135E+00 0.750E+01   0.123E+01 0.358E+00 -.750E+01   -.257E-01 -.211E+00 0.461E-02   -.249E-05 0.238E-04 -.254E-04
   -.121E+00 -.436E+01 0.654E+01   0.137E+00 0.478E+01 -.656E+01   -.167E-01 -.423E+00 0.186E-01   0.449E-05 -.413E-06 -.131E-05
   0.220E+01 -.186E+00 0.691E+01   -.225E+01 0.482E+00 -.692E+01   0.468E-01 -.303E+00 0.266E-02   0.165E-08 0.231E-04 -.266E-04
   -.177E+01 -.187E+01 0.773E+01   0.199E+01 0.199E+01 -.776E+01   -.206E+00 -.123E+00 0.313E-01   0.963E-05 -.140E-05 -.122E-04
   0.108E+01 -.727E+00 0.785E+01   -.113E+01 0.876E+00 -.788E+01   0.494E-01 -.143E+00 0.278E-01   -.235E-05 0.147E-05 -.112E-04
   -.323E+01 -.921E+00 0.745E+01   0.334E+01 0.873E+00 -.746E+01   -.109E+00 0.397E-01 0.623E-02   -.406E-05 -.174E-04 -.276E-04
   -.581E+00 0.407E-01 0.733E+01   0.537E+00 -.134E+00 -.735E+01   0.347E-01 0.970E-01 0.265E-01   -.570E-05 -.660E-05 -.154E-05
   0.220E+01 -.706E+00 0.697E+01   -.225E+01 0.594E+00 -.698E+01   0.421E-01 0.114E+00 0.787E-02   0.221E-05 -.236E-04 -.276E-04
   0.624E-01 0.489E+00 0.655E+01   -.475E-01 -.631E+00 -.657E+01   -.140E-01 0.141E+00 0.197E-01   0.508E-05 0.402E-05 -.168E-05
   0.140E+01 0.499E+01 0.679E+01   -.138E+01 -.513E+01 -.680E+01   -.131E-01 0.148E+00 0.780E-02   0.253E-05 0.537E-06 -.483E-05
   0.132E+01 0.520E+01 0.632E+01   -.116E+01 -.539E+01 -.634E+01   -.160E+00 0.201E+00 0.171E-01   0.125E-04 0.137E-04 -.160E-04
   0.114E+01 0.394E+01 0.878E+01   -.109E+01 -.380E+01 -.880E+01   -.520E-01 -.142E+00 0.244E-01   0.727E-05 0.237E-04 -.328E-04
   -.205E+01 0.806E+01 0.101E+02   0.264E+01 -.787E+01 -.102E+02   -.574E+00 -.185E+00 0.969E-01   0.291E-04 0.142E-04 -.755E-04
   0.303E+00 0.525E+01 0.729E+01   -.325E+00 -.480E+01 -.732E+01   0.154E-01 -.470E+00 0.250E-01   -.166E-06 0.269E-04 -.533E-04
   0.782E+00 0.682E+01 0.627E+01   -.761E+00 -.613E+01 -.588E+01   -.342E-01 -.702E+00 -.394E+00   0.368E-05 0.630E-04 -.114E-03
   -.246E+01 0.370E+01 0.820E+01   0.241E+01 -.350E+01 -.821E+01   0.570E-01 -.214E+00 0.142E-01   -.811E-05 0.324E-04 -.345E-04
   0.155E+01 0.703E+01 0.962E+01   -.208E+01 -.676E+01 -.972E+01   0.538E+00 -.271E+00 0.980E-01   -.333E-04 0.828E-05 -.785E-04
   -.905E+00 0.345E+01 0.781E+01   0.935E+00 -.351E+01 -.781E+01   -.340E-01 0.579E-01 0.831E-02   -.409E-05 -.766E-05 -.484E-05
   -.139E+01 0.424E+01 0.803E+01   0.124E+01 -.434E+01 -.806E+01   0.133E+00 0.110E+00 0.295E-01   -.159E-04 0.193E-04 -.158E-04
   -.153E-01 0.334E+01 0.599E+01   -.127E-01 -.351E+01 -.597E+01   0.285E-01 0.175E+00 -.147E-01   0.267E-05 -.767E-06 0.672E-05
   0.354E+00 0.446E+01 0.601E+01   -.441E+00 -.464E+01 -.604E+01   0.870E-01 0.203E+00 0.218E-01   0.418E-05 -.762E-06 0.880E-05
   0.149E+01 0.726E+01 0.521E+01   -.142E+01 -.782E+01 -.520E+01   -.655E-01 0.548E+00 -.174E-01   0.131E-04 0.129E-04 -.199E-05
   0.335E+01 0.126E+02 0.567E+01   -.327E+01 -.135E+02 -.571E+01   -.840E-01 0.885E+00 0.280E-01   0.217E-04 0.839E-05 -.116E-04
   0.246E+01 0.110E+02 0.686E+01   -.214E+01 -.113E+02 -.683E+01   -.337E+00 0.225E+00 -.331E-01   0.118E-04 0.283E-04 -.583E-04
   0.107E+02 0.103E+02 0.617E+01   -.978E+01 -.105E+02 -.630E+01   -.872E+00 0.214E+00 0.123E+00   0.166E-04 0.404E-04 -.802E-04
   -.219E+01 0.186E+02 0.123E+02   0.248E+01 -.176E+02 -.125E+02   -.308E+00 -.947E+00 0.229E+00   0.374E-04 0.863E-05 -.132E-03
   -.846E+01 0.348E+02 0.248E+02   0.148E+02 -.312E+02 -.238E+02   -.642E+01 -.357E+01 -.962E+00   0.635E-04 0.604E-04 -.161E-03
   0.115E+01 0.177E+02 0.116E+02   -.141E+01 -.167E+02 -.118E+02   0.276E+00 -.955E+00 0.235E+00   -.396E-04 0.545E-05 -.135E-03
   0.742E+01 0.353E+02 0.239E+02   -.137E+02 -.318E+02 -.229E+02   0.629E+01 -.354E+01 -.941E+00   -.730E-04 0.546E-04 -.163E-03
   -.337E+01 0.107E+02 0.785E+01   0.310E+01 -.108E+02 -.782E+01   0.276E+00 0.899E-01 -.303E-01   -.106E-04 0.184E-04 -.588E-04
   -.105E+02 0.691E+01 0.732E+01   0.101E+02 -.688E+01 -.743E+01   0.434E+00 -.103E-01 0.120E+00   -.688E-05 0.343E-04 -.783E-04
   -.124E+00 0.420E+01 0.664E+01   -.320E-01 -.446E+01 -.662E+01   0.159E+00 0.242E+00 -.164E-01   -.127E-04 0.202E-04 -.126E-05
   -.219E+01 0.778E+01 0.745E+01   0.155E+01 -.815E+01 -.749E+01   0.627E+00 0.367E+00 0.419E-01   -.202E-04 -.135E-05 -.103E-04
   0.670E+01 0.911E+01 0.630E+01   -.703E+01 -.105E+02 -.633E+01   0.336E+00 0.140E+01 0.252E-01   0.545E-05 -.847E-05 -.324E-05
   0.239E+02 0.136E+02 0.629E+01   -.293E+02 -.166E+02 -.631E+01   0.544E+01 0.308E+01 0.256E-01   0.237E-05 -.365E-05 -.276E-05
   -.170E+01 0.974E+01 0.402E+01   0.215E+01 -.111E+02 -.400E+01   -.461E+00 0.139E+01 -.228E-01   0.405E-04 0.106E-05 -.444E-04
   -.188E+02 0.131E+02 0.314E+01   0.244E+02 -.162E+02 -.296E+01   -.554E+01 0.309E+01 -.185E+00   0.438E-04 -.150E-04 -.441E-04
   0.203E+02 0.109E+02 0.135E+02   -.191E+02 -.115E+02 -.140E+02   -.120E+01 0.594E+00 0.501E+00   0.388E-05 0.892E-04 -.134E-03
   0.204E+02 -.888E+01 0.134E+02   -.189E+02 0.902E+01 -.138E+02   -.149E+01 -.128E+00 0.441E+00   0.125E-04 -.942E-04 -.135E-03
   -.242E+02 0.898E+01 0.129E+02   0.233E+02 -.945E+01 -.134E+02   0.949E+00 0.468E+00 0.524E+00   -.143E-04 0.898E-04 -.134E-03
   -.243E+02 -.871E+01 0.129E+02   0.233E+02 0.914E+01 -.134E+02   0.962E+00 -.435E+00 0.498E+00   -.176E-04 -.933E-04 -.135E-03
   -.113E+01 0.282E+01 0.669E+01   0.774E+00 -.298E+01 -.666E+01   0.367E+00 0.157E+00 -.249E-01   -.368E-04 -.349E-05 -.422E-04
   -.117E+01 -.102E+01 0.664E+01   0.501E+00 0.747E+00 -.659E+01   0.649E+00 0.290E+00 -.338E-01   -.419E-04 -.532E-05 -.415E-04
   0.752E+01 -.285E+01 0.719E+01   -.894E+01 0.329E+01 -.722E+01   0.144E+01 -.462E+00 0.294E-01   -.191E-04 -.469E-06 -.923E-05
   0.575E+01 -.715E+01 0.662E+01   -.653E+01 0.762E+01 -.660E+01   0.786E+00 -.465E+00 -.138E-01   -.796E-05 -.165E-04 -.367E-06
   0.408E+01 -.558E+01 0.669E+01   -.407E+01 0.592E+01 -.677E+01   -.202E-01 -.339E+00 0.838E-01   0.244E-04 -.529E-05 -.128E-04
   0.169E+01 -.298E+02 0.540E+01   -.159E+01 0.361E+02 -.543E+01   -.931E-01 -.632E+01 0.284E-01   0.122E-04 -.106E-04 -.242E-05
   0.757E+00 -.519E+01 0.580E+01   0.909E+00 0.547E+01 -.592E+01   -.168E+01 -.298E+00 0.113E+00   0.184E-04 -.418E-04 -.808E-04
   -.297E+01 -.142E+02 0.711E+01   0.393E+01 0.147E+02 -.706E+01   -.981E+00 -.449E+00 -.511E-01   0.113E-04 -.200E-04 -.612E-04
   -.996E+01 -.329E+02 0.242E+02   0.165E+02 0.292E+02 -.232E+02   -.658E+01 0.375E+01 -.928E+00   0.637E-04 -.616E-04 -.165E-03
   -.384E+01 -.188E+02 0.121E+02   0.427E+01 0.177E+02 -.123E+02   -.456E+00 0.103E+01 0.218E+00   0.393E-04 -.126E-04 -.135E-03
   0.783E+01 -.345E+02 0.239E+02   -.141E+02 0.309E+02 -.230E+02   0.630E+01 0.360E+01 -.910E+00   -.744E-04 -.597E-04 -.163E-03
   0.168E+01 -.185E+02 0.114E+02   -.194E+01 0.175E+02 -.116E+02   0.284E+00 0.987E+00 0.235E+00   -.415E-04 -.630E-05 -.136E-03
   -.969E+01 -.553E+01 0.740E+01   0.921E+01 0.544E+01 -.752E+01   0.489E+00 0.873E-01 0.119E+00   -.711E-05 -.402E-04 -.787E-04
   -.194E+01 -.109E+02 0.803E+01   0.153E+01 0.109E+02 -.799E+01   0.421E+00 -.330E-01 -.319E-01   -.114E-04 -.203E-04 -.587E-04
   0.211E+01 -.519E+01 0.804E+01   -.258E+01 0.547E+01 -.807E+01   0.470E+00 -.288E+00 0.308E-01   -.141E-04 -.189E-04 -.152E-04
   0.381E+00 -.538E+01 0.778E+01   -.457E+00 0.559E+01 -.779E+01   0.777E-01 -.214E+00 0.595E-02   -.850E-05 0.111E-04 -.438E-05
   0.389E+01 -.124E+02 0.617E+01   -.492E+01 0.133E+02 -.620E+01   0.104E+01 -.985E+00 0.291E-01   0.792E-06 -.191E-05 0.952E-05
   0.261E+01 -.544E+01 0.599E+01   -.263E+01 0.616E+01 -.598E+01   0.133E-01 -.703E+00 -.177E-01   0.586E-05 0.361E-05 0.767E-05
   -.291E+01 -.132E+02 0.646E+01   0.401E+01 0.142E+02 -.648E+01   -.110E+01 -.981E+00 0.244E-01   0.191E-04 -.110E-04 -.176E-04
   -.103E+01 -.696E+01 0.674E+01   0.105E+01 0.766E+01 -.675E+01   -.545E-02 -.677E+00 0.609E-02   0.463E-05 -.599E-06 -.572E-05
   -.586E+01 -.925E+01 0.103E+02   0.680E+01 0.921E+01 -.104E+02   -.940E+00 0.293E-01 0.950E-01   0.283E-04 -.112E-04 -.795E-04
   0.157E+00 -.565E+01 0.876E+01   -.646E-02 0.567E+01 -.877E+01   -.159E+00 -.182E-01 0.913E-02   0.109E-04 -.190E-04 -.362E-04
   -.319E+00 -.692E+01 0.597E+01   0.393E+00 0.624E+01 -.558E+01   -.875E-01 0.669E+00 -.391E+00   0.191E-05 -.599E-04 -.116E-03
   -.328E+00 -.667E+01 0.733E+01   0.358E+00 0.628E+01 -.736E+01   -.342E-01 0.397E+00 0.290E-01   -.334E-06 -.236E-04 -.549E-04
   0.262E+01 -.744E+01 0.971E+01   -.322E+01 0.721E+01 -.981E+01   0.611E+00 0.229E+00 0.948E-01   -.375E-04 -.369E-05 -.792E-04
   -.137E+01 -.505E+01 0.823E+01   0.129E+01 0.493E+01 -.825E+01   0.934E-01 0.133E+00 0.168E-01   -.118E-04 -.245E-04 -.352E-04
   -.606E+00 -.130E+01 -.625E+03   0.356E+00 0.121E+01 0.607E+03   0.278E+00 0.102E+00 0.181E+02   0.569E-05 0.798E-05 -.357E-03
 -----------------------------------------------------------------------------------------------
   -.139E+00 0.375E-01 -.176E+02   -.165E-13 0.533E-12 0.114E-12   0.138E+00 -.399E-01 0.176E+02   0.114E-04 0.870E-05 -.387E-02
 
 
 POSITION                                       TOTAL-FORCE (eV/Angst)
 -----------------------------------------------------------------------------------
     -7.42671     12.75292      7.46471         0.009747     -0.000407      0.001140
      0.00327      1.42087      7.46578         0.007254      0.004322     -0.000567
      2.48444      0.02022      7.46321        -0.012390      0.000227     -0.000053
      2.48128      1.44308      7.47392        -0.000422      0.013277      0.000810
      4.95316      0.01986      7.46625        -0.001380     -0.006560     -0.002932
      4.95472      1.44333      7.47592        -0.003957     -0.006116     -0.001220
     -0.00186     12.74553      7.46574         0.009230      0.001771     -0.000426
      7.43132      1.41525      7.46481        -0.002163      0.006343     -0.000129
      2.47752     12.72353      7.47401        -0.006831     -0.009321      0.000996
      9.91039      1.39099      7.46321        -0.008246      0.002451     -0.000477
      4.95465     12.72329      7.47575        -0.002394      0.000915     -0.001165
     12.38375      1.39143      7.46618         0.000264     -0.002302     -0.004058
     13.61850      2.10982      7.46738         0.000244      0.008643     -0.002301
     -1.24657      3.53162      7.47756         0.001576      0.011286     -0.003196
      1.23908      2.14373      7.47535         0.000777     -0.004268      0.002300
      1.23497      3.57029      7.50100         0.019341      0.003234     -0.000185
      3.71775      2.16863      7.49097        -0.006540     -0.017464     -0.003226
      3.71766      3.58838      7.53685        -0.013709     -0.002209     -0.006675
      6.19477      2.14072      7.47655         0.009165     -0.015989      0.001029
      6.19771      3.56509      7.50101         0.007549     -0.002743     -0.003193
      8.67708      2.10853      7.46287        -0.005580     -0.002430      0.000361
      8.68340      3.53006      7.47040        -0.017644      0.003490      0.002140
     11.14691      2.10209      7.46429         0.000582      0.006325     -0.002517
     11.14642      3.52346      7.46636         0.000477      0.016001     -0.006320
     12.37903      4.23696      7.47471         0.004175     -0.009176     -0.006785
     -2.48837      5.65895      7.48123        -0.003847      0.023968     -0.006988
     -0.01784      4.25126      7.50019        -0.015611     -0.017368     -0.001454
     -0.04422      5.67098      7.52515         0.009436     -0.010086     -0.005875
      2.47247      4.31103      7.55099        -0.003109      0.026818      0.008933
      2.42563      5.72421      7.64331        -0.019925      0.004276      0.021936
      4.96101      4.30628      7.55240         0.000872      0.015362     -0.002767
      5.00741      5.71983      7.64570         0.041210     -0.007989     -0.000031
      7.45032      4.24466      7.49494         0.010456     -0.017834      0.002998
      7.47580      5.66025      7.51886        -0.005981      0.013791      0.004140
      9.91787      4.24018      7.46864         0.003416     -0.015433     -0.001147
      9.92524      5.66727      7.47392        -0.011524     -0.003401      0.001173
     -3.70451      6.38511      7.47435         0.007140      0.005447     -0.003784
     -3.70144      7.80473      7.47483        -0.012626      0.006938     -0.001071
     -1.27784      6.38542      7.50414        -0.013211      0.000736     -0.004939
     -1.28172      7.80331      7.50526         0.000699      0.009488     -0.003818
      1.17452      6.36972      7.57868        -0.013337     -0.010808      0.003091
      1.16574      7.80072      7.57849         0.017442      0.023841      0.006715
      6.25562      6.36652      7.57900        -0.001608     -0.011277     -0.001133
      6.25976      7.80175      7.57863        -0.005253      0.003693     -0.002248
      8.70456      6.37451      7.49342         0.013549     -0.010334      0.007334
      8.71247      7.79307      7.49347        -0.013167      0.017732      0.008190
     -4.92655      8.51527      7.47454         0.025113     -0.021847      0.004181
     -4.94687      9.93650      7.46885         0.000594      0.002541      0.000129
     -2.48870      8.50987      7.48215        -0.009178     -0.000736     -0.001985
     -2.48188      9.92024      7.47477         0.001608     -0.003826     -0.004164
     -0.05426      8.51304      7.52503        -0.021128     -0.021127     -0.005195
     -0.01344      9.92596      7.49955        -0.019572      0.010089     -0.002130
      2.41717      8.44637      7.64285        -0.008326     -0.002898      0.031704
      2.47122      9.85725      7.55129        -0.010843     -0.010865      0.010758
      5.01130      8.44855      7.64488         0.026324      0.012186     -0.002893
      4.96160      9.85989      7.55290         0.005757     -0.015141     -0.002800
      7.48165      8.50744      7.51839        -0.001388     -0.000760      0.003267
      7.45098      9.92196      7.49447         0.011140      0.014714      0.002529
     -6.17689     10.64205      7.47031        -0.006557     -0.009465      0.001980
     -6.18149     12.06186      7.46290         0.000326      0.000900     -0.001225
     -3.71069     10.63452      7.46628         0.011665     -0.023507     -0.002848
     -3.70712     12.06026      7.46434        -0.013040      0.022450     -0.003410
     -1.25179     10.62807      7.47732        -0.008182     -0.015534     -0.003687
     -1.24954     12.05152      7.46747         0.016865      0.019414     -0.004675
      1.23378     10.60143      7.50040         0.009300     -0.006976     -0.002450
      1.23667     12.02718      7.47531        -0.005385     -0.001756     -0.001626
      3.71645     10.57866      7.53760        -0.013676     -0.016472     -0.003283
      3.71644     11.99790      7.49103        -0.004473      0.005872     -0.002171
      6.19924     10.60156      7.50073         0.011310     -0.005280     -0.004398
      6.19653     12.02561      7.47638         0.004535      0.010385     -0.000572
      3.72122      7.08393      8.31980         0.023066      0.010777      0.002356
 -----------------------------------------------------------------------------------
    total drift:                               -0.000184     -0.002351      0.000353


--------------------------------------------------------------------------------------------------------



  FREE ENERGIE OF THE ION-ELECTRON SYSTEM (eV)
  ---------------------------------------------------
  free  energy   TOTEN  =      -653.57077708 eV

  energy  without entropy=     -653.53706392  energy(sigma->0) =     -653.55392050
 
 d Force = 0.2587488E-03[ 0.108E-03, 0.410E-03]  d Energy = 0.2686825E-03-0.993E-05
 d Force =-0.2459697E+00[-0.247E+00,-0.245E+00]  d Ewald  =-0.2459700E+00 0.342E-06


--------------------------------------------------------------------------------------------------------


    POTLOK:  cpu time    0.4004: real time    0.4021


--------------------------------------------------------------------------------------------------------


 stress matrix after NEB project (eV)
     -1.53626      0.02301      0.02094
      0.02301     -1.29528      0.00918
      0.02094      0.00918     -3.48917
  FORCES: max atom, RMS     0.041977    0.017741
  FORCE total and by dimension    0.149489    0.041210
  Stress total and by dimension    4.026693    3.489173


--------------------------------------------------------------------------------------------------------


  
 reached required accuracy - stopping structural energy minimisation
     LOOP+:  cpu time  108.5119: real time  109.2796
    4ORBIT:  cpu time    0.0000: real time    0.0000

 total amount of memory used by VASP MPI-rank0   111609. kBytes
=======================================================================

   base      :      30000. kBytes
   nonlr-proj:       9924. kBytes
   fftplans  :      10852. kBytes
   grid      :      30996. kBytes
   one-center:        186. kBytes
   wavefun   :      29651. kBytes
 
  
  
 General timing and accounting informations for this job:
 ========================================================
  
                  Total CPU time used (sec):     1785.982
                            User time (sec):     1774.471
                          System time (sec):       11.511
                         Elapsed time (sec):     1806.360
  
                   Maximum memory used (kb):      487888.
                   Average memory used (kb):           0.
  
                          Minor page faults:      2182872
                          Major page faults:            0
                 Voluntary context switches:        11405
