       N       E                     dE             d eps       ncg     rms          rms(c)
DAV:   1     0.286154210430E+04    0.28615E+04   -0.11426E+05  4000   0.124E+03
DAV:   2    -0.299796615998E+02   -0.28915E+04   -0.27836E+04  4512   0.345E+02
DAV:   3    -0.463332062804E+03   -0.43335E+03   -0.42911E+03  3992   0.152E+02
DAV:   4    -0.477909775976E+03   -0.14578E+02   -0.14215E+02  4088   0.394E+01
DAV:   5    -0.478437753316E+03   -0.52798E+00   -0.52268E+00  4440   0.580E+00    0.578E+01
DAV:   6    -0.425512879391E+03    0.52925E+02   -0.58074E+01  4664   0.350E+01    0.392E+01
DAV:   7    -0.404095983648E+03    0.21417E+02   -0.98454E+01  4064   0.301E+01    0.211E+01
DAV:   8    -0.402446799922E+03    0.16492E+01   -0.14652E+01  4168   0.147E+01    0.152E+01
DAV:   9    -0.402756919399E+03   -0.31012E+00   -0.97952E+00  5248   0.213E+01    0.672E+00
DAV:  10    -0.401971468258E+03    0.78545E+00   -0.69300E+00  5168   0.137E+01    0.322E+00
DAV:  11    -0.401888780652E+03    0.82688E-01   -0.89570E-01  4880   0.418E+00    0.165E+00
DAV:  12    -0.401857843004E+03    0.30938E-01   -0.27344E-01  4448   0.196E+00    0.100E+00
DAV:  13    -0.401845690269E+03    0.12153E-01   -0.15317E-01  4064   0.126E+00    0.438E-01
DAV:  14    -0.401845198896E+03    0.49137E-03   -0.35882E-02  4232   0.713E-01    0.300E-01
DAV:  15    -0.401844848795E+03    0.35010E-03   -0.52063E-03  4888   0.356E-01    0.187E-01
DAV:  16    -0.401844852034E+03   -0.32384E-05   -0.10611E-03  4232   0.109E-01    0.952E-02
DAV:  17    -0.401844880700E+03   -0.28667E-04   -0.36911E-04  2472   0.642E-02
   1 F= -.40631098E+03 E0= -.40631098E+03  d E =0.000000E+00  mag=    -0.0000
