  71  71   0   0
  0.4011563E+02  0.1487831E-08  0.1477209E-08  0.1500000E-08  0.3000000E-15
  1.000000000000000E-004
  CAR 
 unknown system                          
      5.28869956    -48.60211515  301     -2.06621372      1.00000000
    -48.602  0.0000E+00  0.0000E+00  0.0000E+00  0.0000E+00
    -48.422  0.0000E+00  0.0000E+00  0.0000E+00  0.0000E+00
    -48.243  0.0000E+00  0.0000E+00  0.0000E+00  0.0000E+00
    -48.063  0.0000E+00  0.0000E+00  0.0000E+00  0.0000E+00
    -47.884  0.0000E+00  0.0000E+00  0.0000E+00  0.0000E+00
    -47.704  0.0000E+00  0.0000E+00  0.0000E+00  0.0000E+00
    -47.524  0.0000E+00  0.0000E+00  0.0000E+00  0.0000E+00
    -47.345  0.0000E+00  0.0000E+00  0.0000E+00  0.0000E+00
    -47.165  0.0000E+00  0.0000E+00  0.0000E+00  0.0000E+00
    -46.985  0.0000E+00  0.0000E+00  0.0000E+00  0.0000E+00
    -46.806  0.0000E+00  0.0000E+00  0.0000E+00  0.0000E+00
    -46.626  0.0000E+00  0.1475E-12  0.0000E+00  0.2650E-13
    -46.446  0.0000E+00  0.2243E-06  0.0000E+00  0.4029E-07
    -46.267  0.0000E+00  0.7371E-03  0.0000E+00  0.1324E-03
    -46.087  0.0000E+00  0.1078E-01  0.0000E+00  0.2069E-02
    -45.908  0.0000E+00  0.1127E-01  0.0000E+00  0.4094E-02
    -45.728  0.0000E+00  0.1792E-01  0.0000E+00  0.7313E-02
    -45.548  0.0000E+00  0.1042E-02  0.0000E+00  0.7500E-02
    -45.369  0.0000E+00  0.4025E-06  0.0000E+00  0.7500E-02
    -45.189  0.0000E+00  0.3658E-12  0.0000E+00  0.7500E-02
    -45.009  0.0000E+00  0.0000E+00  0.0000E+00  0.7500E-02
    -44.830  0.0000E+00  0.0000E+00  0.0000E+00  0.7500E-02
    -44.650  0.0000E+00  0.0000E+00  0.0000E+00  0.7500E-02
    -44.470  0.9405E-13  0.0000E+00  0.1689E-13  0.7500E-02
    -44.291  0.1681E-06  0.0000E+00  0.3019E-07  0.7500E-02
    -44.111  0.6438E-03  0.0000E+00  0.1157E-03  0.7500E-02
    -43.932  0.1065E-01  0.0000E+00  0.2028E-02  0.7500E-02
    -43.752  0.1044E-01  0.0000E+00  0.3904E-02  0.7500E-02
    -43.572  0.1666E-01  0.0000E+00  0.6896E-02  0.7500E-02
    -43.393  0.3355E-02  0.0000E+00  0.7499E-02  0.7500E-02
    -43.213  0.7862E-05  0.0000E+00  0.7500E-02  0.7500E-02
    -43.033  0.4711E-10  0.0000E+00  0.7500E-02  0.7500E-02
    -42.854  0.0000E+00  0.0000E+00  0.7500E-02  0.7500E-02
    -42.674  0.0000E+00  0.0000E+00  0.7500E-02  0.7500E-02
    -42.494  0.0000E+00  0.0000E+00  0.7500E-02  0.7500E-02
    -42.315  0.0000E+00  0.0000E+00  0.7500E-02  0.7500E-02
    -42.135  0.0000E+00  0.0000E+00  0.7500E-02  0.7500E-02
    -41.956  0.0000E+00  0.0000E+00  0.7500E-02  0.7500E-02
    -41.776  0.0000E+00  0.0000E+00  0.7500E-02  0.7500E-02
    -41.596  0.0000E+00  0.0000E+00  0.7500E-02  0.7500E-02
    -41.417  0.0000E+00  0.0000E+00  0.7500E-02  0.7500E-02
    -41.237  0.0000E+00  0.0000E+00  0.7500E-02  0.7500E-02
    -41.057  0.0000E+00  0.0000E+00  0.7500E-02  0.7500E-02
    -40.878  0.0000E+00  0.0000E+00  0.7500E-02  0.7500E-02
    -40.698  0.0000E+00  0.0000E+00  0.7500E-02  0.7500E-02
    -40.518  0.0000E+00  0.0000E+00  0.7500E-02  0.7500E-02
    -40.339  0.0000E+00  0.0000E+00  0.7500E-02  0.7500E-02
    -40.159  0.0000E+00  0.0000E+00  0.7500E-02  0.7500E-02
    -39.980  0.0000E+00  0.0000E+00  0.7500E-02  0.7500E-02
    -39.800  0.0000E+00  0.0000E+00  0.7500E-02  0.7500E-02
    -39.620  0.0000E+00  0.0000E+00  0.7500E-02  0.7500E-02
    -39.441  0.0000E+00  0.0000E+00  0.7500E-02  0.7500E-02
    -39.261  0.0000E+00  0.0000E+00  0.7500E-02  0.7500E-02
    -39.081  0.0000E+00  0.0000E+00  0.7500E-02  0.7500E-02
    -38.902  0.0000E+00  0.0000E+00  0.7500E-02  0.7500E-02
    -38.722  0.0000E+00  0.0000E+00  0.7500E-02  0.7500E-02
    -38.542  0.0000E+00  0.0000E+00  0.7500E-02  0.7500E-02
    -38.363  0.0000E+00  0.0000E+00  0.7500E-02  0.7500E-02
    -38.183  0.0000E+00  0.0000E+00  0.7500E-02  0.7500E-02
    -38.004  0.0000E+00  0.0000E+00  0.7500E-02  0.7500E-02
    -37.824  0.0000E+00  0.0000E+00  0.7500E-02  0.7500E-02
    -37.644  0.0000E+00  0.0000E+00  0.7500E-02  0.7500E-02
    -37.465  0.0000E+00  0.0000E+00  0.7500E-02  0.7500E-02
    -37.285  0.0000E+00  0.0000E+00  0.7500E-02  0.7500E-02
    -37.105  0.0000E+00  0.0000E+00  0.7500E-02  0.7500E-02
    -36.926  0.0000E+00  0.0000E+00  0.7500E-02  0.7500E-02
    -36.746  0.0000E+00  0.0000E+00  0.7500E-02  0.7500E-02
    -36.566  0.0000E+00  0.0000E+00  0.7500E-02  0.7500E-02
    -36.387  0.0000E+00  0.0000E+00  0.7500E-02  0.7500E-02
    -36.207  0.0000E+00  0.0000E+00  0.7500E-02  0.7500E-02
    -36.028  0.0000E+00  0.0000E+00  0.7500E-02  0.7500E-02
    -35.848  0.0000E+00  0.0000E+00  0.7500E-02  0.7500E-02
    -35.668  0.0000E+00  0.0000E+00  0.7500E-02  0.7500E-02
    -35.489  0.0000E+00  0.0000E+00  0.7500E-02  0.7500E-02
    -35.309  0.0000E+00  0.0000E+00  0.7500E-02  0.7500E-02
    -35.129  0.0000E+00  0.0000E+00  0.7500E-02  0.7500E-02
    -34.950  0.0000E+00  0.0000E+00  0.7500E-02  0.7500E-02
    -34.770  0.0000E+00  0.0000E+00  0.7500E-02  0.7500E-02
    -34.591  0.0000E+00  0.0000E+00  0.7500E-02  0.7500E-02
    -34.411  0.0000E+00  0.0000E+00  0.7500E-02  0.7500E-02
    -34.231  0.0000E+00  0.0000E+00  0.7500E-02  0.7500E-02
    -34.052  0.0000E+00  0.0000E+00  0.7500E-02  0.7500E-02
    -33.872  0.0000E+00  0.0000E+00  0.7500E-02  0.7500E-02
    -33.692  0.0000E+00  0.0000E+00  0.7500E-02  0.7500E-02
    -33.513  0.0000E+00  0.0000E+00  0.7500E-02  0.7500E-02
    -33.333  0.0000E+00  0.0000E+00  0.7500E-02  0.7500E-02
    -33.153  0.0000E+00  0.0000E+00  0.7500E-02  0.7500E-02
    -32.974  0.0000E+00  0.0000E+00  0.7500E-02  0.7500E-02
    -32.794  0.0000E+00  0.0000E+00  0.7500E-02  0.7500E-02
    -32.615  0.0000E+00  0.0000E+00  0.7500E-02  0.7500E-02
    -32.435  0.0000E+00  0.0000E+00  0.7500E-02  0.7500E-02
    -32.255  0.0000E+00  0.0000E+00  0.7500E-02  0.7500E-02
    -32.076  0.0000E+00  0.0000E+00  0.7500E-02  0.7500E-02
    -31.896  0.0000E+00  0.0000E+00  0.7500E-02  0.7500E-02
    -31.716  0.0000E+00  0.0000E+00  0.7500E-02  0.7500E-02
    -31.537  0.0000E+00  0.0000E+00  0.7500E-02  0.7500E-02
    -31.357  0.0000E+00  0.0000E+00  0.7500E-02  0.7500E-02
    -31.177  0.0000E+00  0.0000E+00  0.7500E-02  0.7500E-02
    -30.998  0.0000E+00  0.0000E+00  0.7500E-02  0.7500E-02
    -30.818  0.0000E+00  0.0000E+00  0.7500E-02  0.7500E-02
    -30.639  0.0000E+00  0.0000E+00  0.7500E-02  0.7500E-02
    -30.459  0.0000E+00  0.0000E+00  0.7500E-02  0.7500E-02
    -30.279  0.0000E+00  0.0000E+00  0.7500E-02  0.7500E-02
    -30.100  0.0000E+00  0.0000E+00  0.7500E-02  0.7500E-02
    -29.920  0.0000E+00  0.0000E+00  0.7500E-02  0.7500E-02
    -29.740  0.0000E+00  0.0000E+00  0.7500E-02  0.7500E-02
    -29.561  0.0000E+00  0.0000E+00  0.7500E-02  0.7500E-02
    -29.381  0.0000E+00  0.0000E+00  0.7500E-02  0.7500E-02
    -29.201  0.0000E+00  0.0000E+00  0.7500E-02  0.7500E-02
    -29.022  0.0000E+00  0.0000E+00  0.7500E-02  0.7500E-02
    -28.842  0.0000E+00  0.0000E+00  0.7500E-02  0.7500E-02
    -28.663  0.0000E+00  0.0000E+00  0.7500E-02  0.7500E-02
    -28.483  0.0000E+00  0.0000E+00  0.7500E-02  0.7500E-02
    -28.303  0.0000E+00  0.0000E+00  0.7500E-02  0.7500E-02
    -28.124  0.0000E+00  0.0000E+00  0.7500E-02  0.7500E-02
    -27.944  0.0000E+00  0.0000E+00  0.7500E-02  0.7500E-02
    -27.764  0.0000E+00  0.0000E+00  0.7500E-02  0.7500E-02
    -27.585  0.0000E+00  0.0000E+00  0.7500E-02  0.7500E-02
    -27.405  0.0000E+00  0.0000E+00  0.7500E-02  0.7500E-02
    -27.225  0.0000E+00  0.0000E+00  0.7500E-02  0.7500E-02
    -27.046  0.0000E+00  0.0000E+00  0.7500E-02  0.7500E-02
    -26.866  0.0000E+00  0.0000E+00  0.7500E-02  0.7500E-02
    -26.687  0.0000E+00  0.0000E+00  0.7500E-02  0.7500E-02
    -26.507  0.0000E+00  0.0000E+00  0.7500E-02  0.7500E-02
    -26.327  0.0000E+00  0.0000E+00  0.7500E-02  0.7500E-02
    -26.148  0.0000E+00  0.0000E+00  0.7500E-02  0.7500E-02
    -25.968  0.0000E+00  0.0000E+00  0.7500E-02  0.7500E-02
    -25.788  0.0000E+00  0.0000E+00  0.7500E-02  0.7500E-02
    -25.609  0.0000E+00  0.0000E+00  0.7500E-02  0.7500E-02
    -25.429  0.0000E+00  0.0000E+00  0.7500E-02  0.7500E-02
    -25.249  0.0000E+00  0.0000E+00  0.7500E-02  0.7500E-02
    -25.070  0.0000E+00  0.0000E+00  0.7500E-02  0.7500E-02
    -24.890  0.0000E+00  0.0000E+00  0.7500E-02  0.7500E-02
    -24.711  0.1395E-12  0.1127E-12  0.7500E-02  0.7500E-02
    -24.531  0.2164E-06  0.1888E-06  0.7500E-02  0.7500E-02
    -24.351  0.7249E-03  0.6800E-03  0.7630E-02  0.7622E-02
    -24.172  0.1069E-01  0.1062E-01  0.9550E-02  0.9530E-02
    -23.992  0.2500E-02  0.2615E-02  0.9999E-02  0.9999E-02
    -23.812  0.3814E-05  0.4277E-05  0.1000E-01  0.1000E-01
    -23.633  0.1403E-10  0.1697E-10  0.1000E-01  0.1000E-01
    -23.453  0.0000E+00  0.0000E+00  0.1000E-01  0.1000E-01
    -23.273  0.0000E+00  0.0000E+00  0.1000E-01  0.1000E-01
    -23.094  0.0000E+00  0.0000E+00  0.1000E-01  0.1000E-01
    -22.914  0.0000E+00  0.0000E+00  0.1000E-01  0.1000E-01
    -22.735  0.0000E+00  0.0000E+00  0.1000E-01  0.1000E-01
    -22.555  0.0000E+00  0.0000E+00  0.1000E-01  0.1000E-01
    -22.375  0.0000E+00  0.0000E+00  0.1000E-01  0.1000E-01
    -22.196  0.0000E+00  0.0000E+00  0.1000E-01  0.1000E-01
    -22.016  0.1984E-15  0.1740E-15  0.1000E-01  0.1000E-01
    -21.836  0.2357E-08  0.2151E-08  0.1000E-01  0.1000E-01
    -21.657  0.5948E-04  0.5650E-04  0.1001E-01  0.1001E-01
    -21.477  0.5774E-02  0.5671E-02  0.1105E-01  0.1103E-01
    -21.297  0.1529E-01  0.1527E-01  0.1380E-01  0.1377E-01
    -21.118  0.1526E-01  0.1517E-01  0.1654E-01  0.1650E-01
    -20.938  0.1058E-01  0.1061E-01  0.1844E-01  0.1840E-01
    -20.759  0.1088E-01  0.1085E-01  0.2039E-01  0.2035E-01
    -20.579  0.1672E-01  0.1658E-01  0.2340E-01  0.2333E-01
    -20.399  0.1475E-01  0.1485E-01  0.2605E-01  0.2600E-01
    -20.220  0.8999E-02  0.9109E-02  0.2766E-01  0.2763E-01
    -20.040  0.1272E-01  0.1238E-01  0.2995E-01  0.2986E-01
    -19.860  0.1483E-01  0.1483E-01  0.3261E-01  0.3252E-01
    -19.681  0.1953E-01  0.1967E-01  0.3612E-01  0.3606E-01
    -19.501  0.8766E-02  0.8870E-02  0.3769E-01  0.3765E-01
    -19.321  0.1075E-01  0.1053E-01  0.3963E-01  0.3954E-01
    -19.142  0.1542E-01  0.1537E-01  0.4240E-01  0.4230E-01
    -18.962  0.1525E-01  0.1517E-01  0.4513E-01  0.4503E-01
    -18.783  0.1350E-01  0.1362E-01  0.4756E-01  0.4747E-01
    -18.603  0.1456E-01  0.1462E-01  0.5017E-01  0.5010E-01
    -18.423  0.1266E-01  0.1260E-01  0.5245E-01  0.5236E-01
    -18.244  0.1827E-01  0.1791E-01  0.5573E-01  0.5558E-01
    -18.064  0.1504E-01  0.1518E-01  0.5843E-01  0.5831E-01
    -17.884  0.1232E-01  0.1271E-01  0.6065E-01  0.6059E-01
    -17.705  0.9165E-02  0.9259E-02  0.6229E-01  0.6225E-01
    -17.525  0.1715E-01  0.1665E-01  0.6538E-01  0.6524E-01
    -17.345  0.1716E-01  0.1728E-01  0.6846E-01  0.6835E-01
    -17.166  0.1663E-01  0.1646E-01  0.7144E-01  0.7131E-01
    -16.986  0.1754E-01  0.1779E-01  0.7460E-01  0.7450E-01
    -16.807  0.1663E-01  0.1672E-01  0.7758E-01  0.7750E-01
    -16.627  0.1337E-01  0.1331E-01  0.7998E-01  0.7989E-01
    -16.447  0.9575E-02  0.9341E-02  0.8170E-01  0.8157E-01
    -16.268  0.1476E-01  0.1498E-01  0.8436E-01  0.8426E-01
    -16.088  0.1537E-01  0.1527E-01  0.8712E-01  0.8700E-01
    -15.908  0.1688E-01  0.1631E-01  0.9015E-01  0.8993E-01
    -15.729  0.1248E-01  0.1275E-01  0.9239E-01  0.9222E-01
    -15.549  0.8577E-02  0.9053E-02  0.9393E-01  0.9385E-01
    -15.369  0.8759E-02  0.8881E-02  0.9550E-01  0.9545E-01
    -15.190  0.1086E-01  0.1082E-01  0.9745E-01  0.9739E-01
    -15.010  0.1608E-01  0.1605E-01  0.1003E+00  0.1003E+00
    -14.831  0.1510E-01  0.1502E-01  0.1031E+00  0.1030E+00
    -14.651  0.1540E-01  0.1480E-01  0.1058E+00  0.1056E+00
    -14.471  0.1759E-01  0.1802E-01  0.1090E+00  0.1089E+00
    -14.292  0.1517E-01  0.1532E-01  0.1117E+00  0.1116E+00
    -14.112  0.1565E-01  0.1567E-01  0.1145E+00  0.1144E+00
    -13.932  0.1294E-01  0.1252E-01  0.1168E+00  0.1167E+00
    -13.753  0.2072E-01  0.2096E-01  0.1206E+00  0.1204E+00
    -13.573  0.1023E-01  0.1047E-01  0.1224E+00  0.1223E+00
    -13.393  0.1853E-01  0.1797E-01  0.1257E+00  0.1256E+00
    -13.214  0.9501E-02  0.9760E-02  0.1274E+00  0.1273E+00
    -13.034  0.1231E-01  0.1271E-01  0.1297E+00  0.1296E+00
    -12.855  0.1315E-01  0.1288E-01  0.1320E+00  0.1319E+00
    -12.675  0.2293E-01  0.2280E-01  0.1361E+00  0.1360E+00
    -12.495  0.1403E-01  0.1428E-01  0.1387E+00  0.1386E+00
    -12.316  0.7983E-02  0.8092E-02  0.1401E+00  0.1400E+00
    -12.136  0.1045E-01  0.1047E-01  0.1420E+00  0.1419E+00
    -11.956  0.1678E-01  0.1641E-01  0.1450E+00  0.1449E+00
    -11.777  0.2092E-01  0.2084E-01  0.1487E+00  0.1486E+00
    -11.597  0.2820E-01  0.2799E-01  0.1538E+00  0.1536E+00
    -11.417  0.1643E-01  0.1725E-01  0.1568E+00  0.1567E+00
    -11.238  0.2158E-02  0.2130E-02  0.1571E+00  0.1571E+00
    -11.058  0.2175E-01  0.2116E-01  0.1610E+00  0.1609E+00
    -10.879  0.1533E-01  0.1584E-01  0.1638E+00  0.1637E+00
    -10.699  0.1903E-01  0.1867E-01  0.1672E+00  0.1671E+00
    -10.519  0.1921E-01  0.1925E-01  0.1707E+00  0.1706E+00
    -10.340  0.3201E-01  0.3235E-01  0.1764E+00  0.1764E+00
    -10.160  0.1735E-01  0.1726E-01  0.1795E+00  0.1795E+00
     -9.980  0.2288E-01  0.2244E-01  0.1837E+00  0.1835E+00
     -9.801  0.2207E-01  0.2249E-01  0.1876E+00  0.1875E+00
     -9.621  0.2029E-01  0.2005E-01  0.1913E+00  0.1911E+00
     -9.441  0.3924E-01  0.3941E-01  0.1983E+00  0.1982E+00
     -9.262  0.2764E-01  0.2785E-01  0.2033E+00  0.2032E+00
     -9.082  0.2729E-01  0.2716E-01  0.2082E+00  0.2081E+00
     -8.903  0.3033E-01  0.3024E-01  0.2136E+00  0.2135E+00
     -8.723  0.3928E-01  0.3901E-01  0.2207E+00  0.2205E+00
     -8.543  0.4770E-01  0.4748E-01  0.2293E+00  0.2291E+00
     -8.364  0.5435E-01  0.5477E-01  0.2390E+00  0.2389E+00
     -8.184  0.2936E-01  0.2926E-01  0.2443E+00  0.2442E+00
     -8.004  0.2597E-01  0.2586E-01  0.2490E+00  0.2488E+00
     -7.825  0.3437E-01  0.3466E-01  0.2551E+00  0.2550E+00
     -7.645  0.2432E-01  0.2447E-01  0.2595E+00  0.2594E+00
     -7.465  0.3781E-01  0.3761E-01  0.2663E+00  0.2662E+00
     -7.286  0.3072E-01  0.3099E-01  0.2718E+00  0.2718E+00
     -7.106  0.3264E-01  0.3300E-01  0.2777E+00  0.2777E+00
     -6.927  0.3598E-01  0.3590E-01  0.2841E+00  0.2841E+00
     -6.747  0.1933E-01  0.1907E-01  0.2876E+00  0.2876E+00
     -6.567  0.1549E-01  0.1590E-01  0.2904E+00  0.2904E+00
     -6.388  0.2077E-01  0.2211E-01  0.2941E+00  0.2944E+00
     -6.208  0.4066E-01  0.4033E-01  0.3014E+00  0.3016E+00
     -6.028  0.2877E-01  0.2755E-01  0.3066E+00  0.3066E+00
     -5.849  0.2606E-01  0.2617E-01  0.3113E+00  0.3113E+00
     -5.669  0.2230E-01  0.2498E-01  0.3153E+00  0.3158E+00
     -5.489  0.2202E-01  0.1986E-01  0.3192E+00  0.3193E+00
     -5.310  0.1145E-01  0.1309E-01  0.3213E+00  0.3217E+00
     -5.130  0.2056E-01  0.2238E-01  0.3250E+00  0.3257E+00
     -4.951  0.2398E-01  0.3041E-01  0.3293E+00  0.3312E+00
     -4.771  0.3205E-01  0.2858E-01  0.3350E+00  0.3363E+00
     -4.591  0.3611E-01  0.3407E-01  0.3415E+00  0.3424E+00
     -4.412  0.1533E-01  0.1117E-01  0.3443E+00  0.3444E+00
     -4.232  0.3554E-02  0.4854E-02  0.3449E+00  0.3453E+00
     -4.052  0.1298E-01  0.1804E-01  0.3473E+00  0.3485E+00
     -3.873  0.1575E-01  0.2534E-01  0.3501E+00  0.3531E+00
     -3.693  0.1455E-01  0.1205E-01  0.3527E+00  0.3553E+00
     -3.513  0.1990E-01  0.9695E-02  0.3563E+00  0.3570E+00
     -3.334  0.1189E-01  0.1446E-01  0.3584E+00  0.3596E+00
     -3.154  0.8637E-02  0.1707E-01  0.3600E+00  0.3627E+00
     -2.975  0.7075E-02  0.6405E-02  0.3612E+00  0.3638E+00
     -2.795  0.3408E-02  0.1065E-01  0.3618E+00  0.3657E+00
     -2.615  0.1519E-03  0.4232E-02  0.3619E+00  0.3665E+00
     -2.436  0.3455E-03  0.2385E-02  0.3619E+00  0.3669E+00
     -2.256  0.3104E-02  0.3168E-02  0.3625E+00  0.3675E+00
     -2.076  0.7542E-02  0.5507E-02  0.3638E+00  0.3685E+00
     -1.897  0.9014E-02  0.1597E-02  0.3655E+00  0.3688E+00
     -1.717  0.8693E-03  0.7113E-02  0.3656E+00  0.3700E+00
     -1.537  0.1016E-02  0.1727E-01  0.3658E+00  0.3731E+00
     -1.358  0.9654E-02  0.1716E-01  0.3675E+00  0.3762E+00
     -1.178  0.3251E-02  0.6437E-02  0.3681E+00  0.3774E+00
     -0.999  0.6566E-02  0.5052E-02  0.3693E+00  0.3783E+00
     -0.819  0.2916E-01  0.1725E-01  0.3745E+00  0.3814E+00
     -0.639  0.2638E-01  0.1747E-01  0.3793E+00  0.3845E+00
     -0.460  0.2717E-01  0.1282E-01  0.3842E+00  0.3868E+00
     -0.280  0.2122E-01  0.1724E-01  0.3880E+00  0.3899E+00
     -0.100  0.1860E-01  0.1396E-01  0.3913E+00  0.3924E+00
      0.079  0.9986E-02  0.1267E-01  0.3931E+00  0.3947E+00
      0.259  0.2344E-01  0.2139E-01  0.3973E+00  0.3986E+00
      0.439  0.2541E-01  0.1826E-01  0.4019E+00  0.4018E+00
      0.618  0.1388E-01  0.1436E-01  0.4044E+00  0.4044E+00
      0.798  0.4453E-02  0.9239E-02  0.4052E+00  0.4061E+00
      0.977  0.1364E-01  0.1983E-01  0.4076E+00  0.4096E+00
      1.157  0.2161E-01  0.1385E-01  0.4115E+00  0.4121E+00
      1.337  0.1402E-01  0.1549E-01  0.4140E+00  0.4149E+00
      1.516  0.2095E-01  0.2024E-01  0.4178E+00  0.4185E+00
      1.696  0.2152E-01  0.2290E-01  0.4217E+00  0.4227E+00
      1.876  0.2646E-01  0.2585E-01  0.4264E+00  0.4273E+00
      2.055  0.3092E-01  0.3639E-01  0.4320E+00  0.4338E+00
      2.235  0.2853E-01  0.2684E-01  0.4371E+00  0.4387E+00
      2.415  0.1835E-01  0.2015E-01  0.4404E+00  0.4423E+00
      2.594  0.4277E-01  0.4096E-01  0.4481E+00  0.4496E+00
      2.774  0.5401E-01  0.4871E-01  0.4578E+00  0.4584E+00
      2.953  0.1215E-01  0.8847E-02  0.4600E+00  0.4600E+00
      3.133  0.2640E-03  0.1183E-03  0.4600E+00  0.4600E+00
      3.313  0.6013E-07  0.1119E-07  0.4600E+00  0.4600E+00
      3.492  0.3734E-13  0.2689E-14  0.4600E+00  0.4600E+00
      3.672  0.0000E+00  0.0000E+00  0.4600E+00  0.4600E+00
      3.852  0.0000E+00  0.0000E+00  0.4600E+00  0.4600E+00
      4.031  0.0000E+00  0.0000E+00  0.4600E+00  0.4600E+00
      4.211  0.0000E+00  0.0000E+00  0.4600E+00  0.4600E+00
      4.391  0.0000E+00  0.0000E+00  0.4600E+00  0.4600E+00
      4.570  0.0000E+00  0.0000E+00  0.4600E+00  0.4600E+00
      4.750  0.0000E+00  0.0000E+00  0.4600E+00  0.4600E+00
      4.929  0.0000E+00  0.0000E+00  0.4600E+00  0.4600E+00
      5.109  0.0000E+00  0.0000E+00  0.4600E+00  0.4600E+00
      5.289  0.0000E+00  0.0000E+00  0.4600E+00  0.4600E+00
