 vasp.5.4.4.18Apr17-6-g9f103f2a35 (build Nov  8 2022 18:58:45) complex           
 executed on             LinuxGNU date 2023.04.13  15:54:37
 running on   48 total cores
 distrk:  each k-point on   48 cores,    1 groups
 distr:  one band on NCORES_PER_BAND=  12 cores,    4 groups


--------------------------------------------------------------------------------------------------------


 INCAR:
 POTCAR:    PAW_PBE C 08Apr2002                   
 POTCAR:    PAW_PBE N 08Apr2002                   
 POTCAR:    PAW_PBE Ge_d 03Jul2007                
 POTCAR:    PAW_PBE C 08Apr2002                   
 POTCAR:    PAW_PBE O 08Apr2002                   
 POTCAR:    PAW_PBE C 08Apr2002                   
   SHA256 =  253f7b50bb8d59471dbedb8285d89021f4a42ed1a2c5d38a03a736e69125dd95 C/
   COPYR  = (c) Copyright 08Apr2002 Georg Kresse                                
   COPYR  = This file is part of the software VASP. Any use, copying, and all ot
   COPYR  = If you do not have a valid VASP license, you may not use, copy or di
   VRHFIN =C: s2p2                                                              
   LEXCH  = PE                                                                  
   EATOM  =   147.1560 eV,   10.8157 Ry                                         
                                                                                
   TITEL  = PAW_PBE C 08Apr2002                                                 
   LULTRA =        F    use ultrasoft PP ?                                      
   IUNSCR =        1    unscreen: 0-lin 1-nonlin 2-no                           
   RPACOR =    1.200    partial core radius                                     
   POMASS =   12.011; ZVAL   =    4.000    mass and valenz                      
   RCORE  =    1.500    outmost cutoff radius                                   
   RWIGS  =    1.630; RWIGS  =    0.863    wigner-seitz radius (au A)           
   ENMAX  =  400.000; ENMIN  =  300.000 eV                                      
   ICORE  =        2    local potential                                         
   LCOR   =        T    correct aug charges                                     
   LPAW   =        T    paw PP                                                  
   EAUG   =  644.873                                                            
   DEXC   =    0.000                                                            
   RMAX   =    1.529    core radius for proj-oper                               
   RAUG   =    1.300    factor for augmentation sphere                          
   RDEP   =    1.501    radius for radial grids                                 
   RDEPT  =    1.300    core radius for aug-charge                              
                                                                                
   Atomic configuration                                                         
    4 entries                                                                   
     n  l   j            E        occ.                                          
     1  0  0.50      -273.3789   2.0000                                         
     2  0  0.50       -13.7508   2.0000                                         
     2  1  0.50        -5.2854   2.0000                                         
     3  2  1.50        -5.4423   0.0000                                         
   Description                                                                  
     l       E           TYP  RCUT    TYP  RCUT                                 
     0    -13.7508458     23  1.200                                             
     0     -8.2022199     23  1.200                                             
     1     -5.2854383     23  1.500                                             
     1     34.0145650     23  1.500                                             
     2     -5.4423304      7  1.500                                             
  local pseudopotential read in
  partial core-charges read in
  partial kinetic energy density read in
  atomic valenz-charges read in
  non local Contribution for L=           0  read in
    real space projection operators read in
  non local Contribution for L=           0  read in
    real space projection operators read in
  non local Contribution for L=           1  read in
    real space projection operators read in
  non local Contribution for L=           1  read in
    real space projection operators read in
    PAW grid and wavefunctions read in

   number of l-projection  operators is LMAX  =           4
   number of lm-projection operators is LMMAX =           8

 POTCAR:    PAW_PBE N 08Apr2002                   
   SHA256 =  e053789ff3a61a86a1b75d8a110fcc91f86041011e7b0817c7c99e4e8a6349d7 N/
   COPYR  = (c) Copyright 08Apr2002 Georg Kresse                                
   COPYR  = This file is part of the software VASP. Any use, copying, and all ot
   COPYR  = If you do not have a valid VASP license, you may not use, copy or di
   VRHFIN =N: s2p3                                                              
   LEXCH  = PE                                                                  
   EATOM  =   264.5486 eV,   19.4438 Ry                                         
                                                                                
   TITEL  = PAW_PBE N 08Apr2002                                                 
   LULTRA =        F    use ultrasoft PP ?                                      
   IUNSCR =        1    unscreen: 0-lin 1-nonlin 2-no                           
   RPACOR =    1.200    partial core radius                                     
   POMASS =   14.001; ZVAL   =    5.000    mass and valenz                      
   RCORE  =    1.500    outmost cutoff radius                                   
   RWIGS  =    1.400; RWIGS  =    0.741    wigner-seitz radius (au A)           
   ENMAX  =  400.000; ENMIN  =  300.000 eV                                      
   ICORE  =        2    local potential                                         
   LCOR   =        T    correct aug charges                                     
   LPAW   =        T    paw PP                                                  
   EAUG   =  627.112                                                            
   DEXC   =    0.000                                                            
   RMAX   =    1.529    core radius for proj-oper                               
   RAUG   =    1.300    factor for augmentation sphere                          
   RDEP   =    1.514    radius for radial grids                                 
   RDEPT  =    1.338    core radius for aug-charge                              
                                                                                
   Atomic configuration                                                         
    4 entries                                                                   
     n  l   j            E        occ.                                          
     1  0  0.50      -384.7179   2.0000                                         
     2  0  0.50       -18.5828   2.0000                                         
     2  1  0.50        -7.0898   3.0000                                         
     3  2  1.50        -6.8029   0.0000                                         
   Description                                                                  
     l       E           TYP  RCUT    TYP  RCUT                                 
     0    -18.5828119     23  1.200                                             
     0    -13.5018863     23  1.200                                             
     1     -7.0897853     23  1.500                                             
     1      9.5240782     23  1.500                                             
     2     -6.8029130      7  1.500                                             
  local pseudopotential read in
  partial core-charges read in
  partial kinetic energy density read in
  atomic valenz-charges read in
  non local Contribution for L=           0  read in
    real space projection operators read in
  non local Contribution for L=           0  read in
    real space projection operators read in
  non local Contribution for L=           1  read in
    real space projection operators read in
  non local Contribution for L=           1  read in
    real space projection operators read in
    PAW grid and wavefunctions read in

   number of l-projection  operators is LMAX  =           4
   number of lm-projection operators is LMMAX =           8

 POTCAR:    PAW_PBE Ge_d 03Jul2007                
   SHA256 =  944b26c40d2d7c4f4eb1ff3a2e8dbfdd7129146276cd341854bfd5c0e57780ed Ge
   COPYR  = (c) Copyright 03Jul2007 Georg Kresse                                
   COPYR  = This file is part of the software VASP. Any use, copying, and all ot
   COPYR  = If you do not have a valid VASP license, you may not use, copy or di
   VRHFIN =Ge: 3d4s4p                                                           
   LEXCH  = PE                                                                  
   EATOM  =  2596.2402 eV,  190.8183 Ry                                         
                                                                                
   TITEL  = PAW_PBE Ge_d 03Jul2007                                              
   LULTRA =        F    use ultrasoft PP ?                                      
   IUNSCR =        1    unscreen: 0-lin 1-nonlin 2-no                           
   RPACOR =    2.000    partial core radius                                     
   POMASS =   72.610; ZVAL   =   14.000    mass and valenz                      
   RCORE  =    2.300    outmost cutoff radius                                   
   RWIGS  =    2.300; RWIGS  =    1.217    wigner-seitz radius (au A)           
   ENMAX  =  310.294; ENMIN  =  232.720 eV                                      
   ICORE  =        3    local potential                                         
   LCOR   =        T    correct aug charges                                     
   LPAW   =        T    paw PP                                                  
   EAUG   =  531.356                                                            
   DEXC   =    0.000                                                            
   RMAX   =    2.342    core radius for proj-oper                               
   RAUG   =    1.300    factor for augmentation sphere                          
   RDEP   =    2.318    radius for radial grids                                 
   RDEPT  =    1.783    core radius for aug-charge                              
                                                                                
   Atomic configuration                                                         
    9 entries                                                                   
     n  l   j            E        occ.                                          
     1  0  0.50    -10959.8463   2.0000                                         
     2  0  0.50     -1371.6056   2.0000                                         
     2  1  1.50     -1198.4791   6.0000                                         
     3  0  0.50      -168.4733   2.0000                                         
     3  1  1.50      -115.6019   6.0000                                         
     3  2  2.50       -29.3106  10.0000                                         
     4  0  0.50       -11.7309   2.0000                                         
     4  1  0.50        -3.8952   2.0000                                         
     4  3  2.50        -4.0817   0.0000                                         
   Description                                                                  
     l       E           TYP  RCUT    TYP  RCUT                                 
     2    -29.3105938     23  2.200                                             
     2    -13.6058260     23  2.200                                             
     0    -11.7309493     23  2.300                                             
     0     -7.4578696     23  2.300                                             
     1     -3.8952261     23  2.300                                             
     1      6.1178114     23  2.300                                             
     3     -1.3605826     23  2.300                                             
  local pseudopotential read in
  partial core-charges read in
  partial kinetic energy density read in
  atomic valenz-charges read in
  non local Contribution for L=           2  read in
    real space projection operators read in
  non local Contribution for L=           2  read in
    real space projection operators read in
  non local Contribution for L=           0  read in
    real space projection operators read in
  non local Contribution for L=           0  read in
    real space projection operators read in
  non local Contribution for L=           1  read in
    real space projection operators read in
  non local Contribution for L=           1  read in
    real space projection operators read in
    PAW grid and wavefunctions read in

   number of l-projection  operators is LMAX  =           6
   number of lm-projection operators is LMMAX =          18

 POTCAR:    PAW_PBE C 08Apr2002                   
   SHA256 =  253f7b50bb8d59471dbedb8285d89021f4a42ed1a2c5d38a03a736e69125dd95 C/
   COPYR  = (c) Copyright 08Apr2002 Georg Kresse                                
   COPYR  = This file is part of the software VASP. Any use, copying, and all ot
   COPYR  = If you do not have a valid VASP license, you may not use, copy or di
   VRHFIN =C: s2p2                                                              
   LEXCH  = PE                                                                  
   EATOM  =   147.1560 eV,   10.8157 Ry                                         
                                                                                
   TITEL  = PAW_PBE C 08Apr2002                                                 
   LULTRA =        F    use ultrasoft PP ?                                      
   IUNSCR =        1    unscreen: 0-lin 1-nonlin 2-no                           
   RPACOR =    1.200    partial core radius                                     
   POMASS =   12.011; ZVAL   =    4.000    mass and valenz                      
   RCORE  =    1.500    outmost cutoff radius                                   
   RWIGS  =    1.630; RWIGS  =    0.863    wigner-seitz radius (au A)           
   ENMAX  =  400.000; ENMIN  =  300.000 eV                                      
   ICORE  =        2    local potential                                         
   LCOR   =        T    correct aug charges                                     
   LPAW   =        T    paw PP                                                  
   EAUG   =  644.873                                                            
   DEXC   =    0.000                                                            
   RMAX   =    1.529    core radius for proj-oper                               
   RAUG   =    1.300    factor for augmentation sphere                          
   RDEP   =    1.501    radius for radial grids                                 
   RDEPT  =    1.300    core radius for aug-charge                              
                                                                                
   Atomic configuration                                                         
    4 entries                                                                   
     n  l   j            E        occ.                                          
     1  0  0.50      -273.3789   2.0000                                         
     2  0  0.50       -13.7508   2.0000                                         
     2  1  0.50        -5.2854   2.0000                                         
     3  2  1.50        -5.4423   0.0000                                         
   Description                                                                  
     l       E           TYP  RCUT    TYP  RCUT                                 
     0    -13.7508458     23  1.200                                             
     0     -8.2022199     23  1.200                                             
     1     -5.2854383     23  1.500                                             
     1     34.0145650     23  1.500                                             
     2     -5.4423304      7  1.500                                             
  local pseudopotential read in
  partial core-charges read in
  partial kinetic energy density read in
  atomic valenz-charges read in
  non local Contribution for L=           0  read in
    real space projection operators read in
  non local Contribution for L=           0  read in
    real space projection operators read in
  non local Contribution for L=           1  read in
    real space projection operators read in
  non local Contribution for L=           1  read in
    real space projection operators read in
    PAW grid and wavefunctions read in

   number of l-projection  operators is LMAX  =           4
   number of lm-projection operators is LMMAX =           8

 POTCAR:    PAW_PBE O 08Apr2002                   
   SHA256 =  818f92134a0a090dccd8ba1447fa70422a3b330e708bb4f08108d8ae51209ddf O/
   COPYR  = (c) Copyright 08Apr2002 Georg Kresse                                
   COPYR  = This file is part of the software VASP. Any use, copying, and all ot
   COPYR  = If you do not have a valid VASP license, you may not use, copy or di
   VRHFIN =O: s2p4                                                              
   LEXCH  = PE                                                                  
   EATOM  =   432.3788 eV,   31.7789 Ry                                         
                                                                                
   TITEL  = PAW_PBE O 08Apr2002                                                 
   LULTRA =        F    use ultrasoft PP ?                                      
   IUNSCR =        1    unscreen: 0-lin 1-nonlin 2-no                           
   RPACOR =    1.200    partial core radius                                     
   POMASS =   16.000; ZVAL   =    6.000    mass and valenz                      
   RCORE  =    1.520    outmost cutoff radius                                   
   RWIGS  =    1.550; RWIGS  =    0.820    wigner-seitz radius (au A)           
   ENMAX  =  400.000; ENMIN  =  300.000 eV                                      
   ICORE  =        2    local potential                                         
   LCOR   =        T    correct aug charges                                     
   LPAW   =        T    paw PP                                                  
   EAUG   =  605.392                                                            
   DEXC   =    0.000                                                            
   RMAX   =    1.553    core radius for proj-oper                               
   RAUG   =    1.300    factor for augmentation sphere                          
   RDEP   =    1.550    radius for radial grids                                 
   RDEPT  =    1.329    core radius for aug-charge                              
                                                                                
   Atomic configuration                                                         
    4 entries                                                                   
     n  l   j            E        occ.                                          
     1  0  0.50      -514.6923   2.0000                                         
     2  0  0.50       -23.9615   2.0000                                         
     2  1  0.50        -9.0305   4.0000                                         
     3  2  1.50        -9.5241   0.0000                                         
   Description                                                                  
     l       E           TYP  RCUT    TYP  RCUT                                 
     0    -23.9615318     23  1.200                                             
     0     -9.5240782     23  1.200                                             
     1     -9.0304911     23  1.520                                             
     1      8.1634956     23  1.520                                             
     2     -9.5240782      7  1.500                                             
  local pseudopotential read in
  partial core-charges read in
  partial kinetic energy density read in
  kinetic energy density of atom read in
  atomic valenz-charges read in
  non local Contribution for L=           0  read in
    real space projection operators read in
  non local Contribution for L=           0  read in
    real space projection operators read in
  non local Contribution for L=           1  read in
    real space projection operators read in
  non local Contribution for L=           1  read in
    real space projection operators read in
    PAW grid and wavefunctions read in

   number of l-projection  operators is LMAX  =           4
   number of lm-projection operators is LMMAX =           8


 ----------------------------------------------------------------------------- 
|                                                                             |
|  ADVICE TO THIS USER RUNNING 'VASP/VAMP'   (HEAR YOUR MASTER'S VOICE ...):  |
|                                                                             |
|      You have a (more or less) 'large supercell' and for larger cells       |
|      it might be more efficient to use real space projection opertators     |
|      So try LREAL= Auto  in the INCAR   file.                               |
|      Mind:          For very  accurate calculation you might also keep the  |
|      reciprocal projection scheme          (i.e. LREAL=.FALSE.)             |
|                                                                             |
 ----------------------------------------------------------------------------- 

  PAW_PBE C 08Apr2002                   :
 energy of atom  1       EATOM= -147.1560
 kinetic energy error for atom=    0.0132 (will be added to EATOM!!)
  PAW_PBE N 08Apr2002                   :
 energy of atom  2       EATOM= -264.5486
 kinetic energy error for atom=    0.0298 (will be added to EATOM!!)
  PAW_PBE Ge_d 03Jul2007                :
 energy of atom  3       EATOM=-2596.2402
 kinetic energy error for atom=    0.0090 (will be added to EATOM!!)
  PAW_PBE C 08Apr2002                   :
 energy of atom  4       EATOM= -147.1560
 kinetic energy error for atom=    0.0132 (will be added to EATOM!!)
  PAW_PBE O 08Apr2002                   :
 energy of atom  5       EATOM= -432.3788
 kinetic energy error for atom=    0.0458 (will be added to EATOM!!)


 POSCAR: POSCAR-c3n4                             
  positions in cartesian coordinates
  No initial velocities read in
 exchange correlation table for  LEXCH =        8
   RHO(1)=    0.500       N(1)  =     2000
   RHO(2)=  100.500       N(2)  =     4000



--------------------------------------------------------------------------------------------------------


 ion  position               nearest neighbor table
   1  0.106  0.214  0.436-  26 1.55  46 1.56  25 1.64
   2  0.288  0.399  0.443-  29 1.53  35 1.61  25 1.66
   3  0.104  0.392  0.437-  44 1.53  39 1.60  25 1.66
   4  0.447  0.064  0.516-  30 1.53  27 1.55  48 1.63
   5  0.453  0.401  0.422-  28 1.54  29 1.55  56 1.65
   6  0.112  0.053  0.459-  26 1.53  31 1.55  32 1.62
   7  0.096  0.712  0.494-  54 1.54  34 1.57  33 1.63
   8  0.284  0.890  0.511-  27 1.55  37 1.57  33 1.64
   9  0.109  0.895  0.508-  31 1.54  52 1.56  33 1.66
  10  0.448  0.548  0.512-  38 1.54  56 1.57  35 1.58
  11  0.445  0.885  0.499-  37 1.55  36 1.55  48 1.61
  12  0.087  0.542  0.491-  34 1.53  40 1.56  39 1.57
  13  0.616  0.223  0.483-  42 1.57  30 1.57  41 1.63
  14  0.780  0.390  0.410-  45 1.56  51 1.58  41 1.63
  15  0.610  0.394  0.445-  28 1.55  55 1.56  41 1.68
  16  0.940  0.052  0.471-  46 1.53  43 1.55  32 1.62
  17  0.941  0.387  0.404-  45 1.53  44 1.56  40 1.65
  18  0.623  0.066  0.522-  42 1.54  47 1.55  48 1.63
  19  0.613  0.711  0.541-  50 1.54  38 1.58  49 1.63
  20  0.790  0.897  0.533-  43 1.54  53 1.56  49 1.68
  21  0.609  0.892  0.531-  47 1.55  36 1.56  49 1.67
  22  0.938  0.563  0.430-  51 1.52  54 1.56  40 1.65
  23  0.954  0.902  0.545-  52 1.55  53 1.56  32 1.62
  24  0.621  0.555  0.500-  55 1.53  50 1.54  56 1.64
  25  0.167  0.335  0.435-   1 1.64   3 1.66   2 1.66
  26  0.165  0.161  0.431-   6 1.53   1 1.55
  27  0.336  0.002  0.532-   8 1.55   4 1.55
  28  0.512  0.352  0.402-   5 1.54  15 1.55
  29  0.345  0.361  0.400-   2 1.53   5 1.55
  30  0.506  0.177  0.503-   4 1.53  13 1.57
  31  0.159  0.988  0.457-   9 1.54   6 1.55
  32  0.002  0.002  0.493-  16 1.62  23 1.62   6 1.62
  33  0.165  0.831  0.510-   7 1.63   8 1.64   9 1.66
  34  0.134  0.645  0.528-  12 1.53   7 1.57
  35  0.334  0.491  0.501-  10 1.58   2 1.61
  36  0.503  0.831  0.500-  11 1.55  21 1.56
  37  0.333  0.829  0.489-  11 1.55   8 1.57
  38  0.499  0.648  0.555-  10 1.54  19 1.58
  39  0.142  0.484  0.495-  12 1.57   3 1.60
  40  0.988  0.496  0.446-  12 1.56  22 1.65  17 1.65
  41  0.667  0.330  0.439-  13 1.63  14 1.63  15 1.68
  42  0.680  0.178  0.505-  18 1.54  13 1.57
  43  0.827  0.986  0.478-  20 1.54  16 1.55
  44  0.011  0.348  0.389-   3 1.53  17 1.56
  45  0.830  0.330  0.389-  17 1.53  14 1.56
  46  0.993  0.161  0.445-  16 1.53   1 1.56
  47  0.669  0.005  0.549-  21 1.55  18 1.55
  48  0.505  0.004  0.508-  11 1.61  18 1.63   4 1.63
  49  0.668  0.832  0.544-  19 1.63  21 1.67  20 1.68
  50  0.675  0.666  0.522-  19 1.54  24 1.54
  51  0.832  0.507  0.406-  22 1.52  14 1.58
  52  0.016  0.853  0.559-  23 1.55   9 1.56
  53  0.849  0.860  0.576-  20 1.56  23 1.56
  54  0.004  0.677  0.444-   7 1.54  22 1.56
  55  0.668  0.491  0.494-  24 1.53  15 1.56
  56  0.506  0.502  0.477-  10 1.57  24 1.64   5 1.65
  57  0.287  0.593  0.568-
  58  0.287  0.593  0.966-  59 1.35
  59  0.232  0.530  0.023-  58 1.35


IMPORTANT INFORMATION: All symmetrisations will be switched off!
NOSYMM: (Re-)initialisation of all symmetry stuff for point group C_1.



 KPOINTS: K-Points                                

Automatic generation of k-mesh.
Space group operators:
 irot       det(A)        alpha          n_x          n_y          n_z        tau_x        tau_y        tau_z
    1     1.000000     0.000001     1.000000     0.000000     0.000000     0.000000     0.000000     0.000000
 
 Subroutine IBZKPT returns following result:
 ===========================================
 
 Found      5 irreducible k-points:
 
 Following reciprocal coordinates:
            Coordinates               Weight
  0.000000  0.000000  0.000000      1.000000
  0.333333  0.000000  0.000000      2.000000
  0.000000  0.333333  0.000000      2.000000
  0.333333  0.333333  0.000000      2.000000
 -0.333333  0.333333  0.000000      2.000000
 
 Following cartesian coordinates:
            Coordinates               Weight
  0.000000  0.000000  0.000000      1.000000
  0.024277  0.014368  0.000000      2.000000
  0.000396  0.028736  0.000000      2.000000
  0.024673  0.043104  0.000000      2.000000
 -0.023881  0.014368  0.000000      2.000000
 
 TETIRR: Found     24 inequivalent tetrahedra from       54


--------------------------------------------------------------------------------------------------------




 Dimension of arrays:
   k-points           NKPTS =      5   k-points in BZ     NKDIM =      5   number of bands    NBANDS=    172
   number of dos      NEDOS =   4000   number of ions     NIONS =     59
   non local maximal  LDIM  =      6   non local SUM 2l+1 LMDIM =     18
   total plane-waves  NPLWV = 635040
   max r-space proj   IRMAX =      1   max aug-charges    IRDMAX=   5879
   dimension x,y,z NGX =    84 NGY =   84 NGZ =   90
   dimension x,y,z NGXF=   168 NGYF=  168 NGZF=  180
   support grid    NGXF=   168 NGYF=  168 NGZF=  180
   ions per type =              24  32   1   1   1
   NGX,Y,Z   is equivalent  to a cutoff of   8.70,  8.86,  8.60 a.u.
   NGXF,Y,Z  is equivalent  to a cutoff of  17.39, 17.72, 17.20 a.u.

 SYSTEM =  unknown system                          
 POSCAR =  POSCAR-c3n4                             

 Startparameter for this run:
   NWRITE =      2    write-flag & timer
   PREC   = normal    normal or accurate (medium, high low for compatibility)
   ISTART =      0    job   : 0-new  1-cont  2-samecut
   ICHARG =      2    charge: 1-file 2-atom 10-const
   ISPIN  =      2    spin polarized calculation?
   LNONCOLLINEAR =      F non collinear calculations
   LSORBIT =      F    spin-orbit coupling
   INIWAV =      1    electr: 0-lowe 1-rand  2-diag
   LASPH  =      F    aspherical Exc in radial PAW
   METAGGA=      F    non-selfconsistent MetaGGA calc.

 Electronic Relaxation 1
   ENCUT  =  440.0 eV  32.34 Ry    5.69 a.u.  27.47 26.96 29.76*2*pi/ulx,y,z
   ENINI  =  440.0     initial cutoff
   ENAUG  =  644.9 eV  augmentation charge cutoff
   NELM   =    100;   NELMIN=  2; NELMDL= -5     # of ELM steps 
   EDIFF  = 0.1E-03   stopping-criterion for ELM
   LREAL  =      F    real-space projection
   NLSPLINE    = F    spline interpolate recip. space projectors
   LCOMPAT=      F    compatible to vasp.4.4
   GGA_COMPAT  = T    GGA compatible to vasp.4.4-vasp.4.6
   LMAXPAW     = -100 max onsite density
   LMAXMIX     =    2 max onsite mixed and CHGCAR
   VOSKOWN=      0    Vosko Wilk Nusair interpolation
   ROPT   =    0.00000   0.00000   0.00000   0.00000
   ROPT   =    0.00000
 Ionic relaxation
   EDIFFG = -.1E-01   stopping-criterion for IOM
   NSW    =      0    number of steps for IOM
   NBLOCK =      1;   KBLOCK =      1    inner block; outer block 
   IBRION =     -1    ionic relax: 0-MD 1-quasi-New 2-CG
   NFREE  =      0    steps in history (QN), initial steepest desc. (CG)
   ISIF   =      2    stress and relaxation
   IWAVPR =     10    prediction:  0-non 1-charg 2-wave 3-comb
   ISYM   =      0    0-nonsym 1-usesym 2-fastsym
   LCORR  =      T    Harris-Foulkes like correction to forces

   POTIM  = 0.5000    time-step for ionic-motion
   TEIN   =    0.0    initial temperature
   TEBEG  =    0.0;   TEEND  =   0.0 temperature during run
   SMASS  =  -3.00    Nose mass-parameter (am)
   estimated Nose-frequenzy (Omega)   =  0.10E-29 period in steps =****** mass=  -0.589E-26a.u.
   SCALEE = 1.0000    scale energy and forces
   NPACO  =    256;   APACO  = 16.0  distance and # of slots for P.C.
   PSTRESS=    0.0 pullay stress

  Mass of Ions in am
   POMASS =  12.01 14.00 72.61 12.01 16.00
  Ionic Valenz
   ZVAL   =   4.00  5.00 14.00  4.00  6.00
  Atomic Wigner-Seitz radii
   RWIGS  =  -1.00 -1.00 -1.00 -1.00 -1.00
  virtual crystal weights 
   VCA    =   1.00  1.00  1.00  1.00  1.00
   NELECT =     280.0000    total number of electrons
   NUPDOWN=      -1.0000    fix difference up-down

 DOS related values:
   EMIN   = -14.00;   EMAX   =  6.00  energy-range for DOS
   EFERMI =   0.00
   ISMEAR =    -5;   SIGMA  =   0.20  broadening in eV -4-tet -1-fermi 0-gaus

 Electronic relaxation 2 (details)
   IALGO  =     38    algorithm
   LDIAG  =      T    sub-space diagonalisation (order eigenvalues)
   LSUBROT=      F    optimize rotation matrix (better conditioning)
   TURBO    =      0    0=normal 1=particle mesh
   IRESTART =      0    0=no restart 2=restart with 2 vectors
   NREBOOT  =      0    no. of reboots
   NMIN     =      0    reboot dimension
   EREF     =   0.00    reference energy to select bands
   IMIX   =      4    mixing-type and parameters
     AMIX     =   0.25;   BMIX     =  0.00
     AMIX_MAG =   1.00;   BMIX_MAG =  0.00
     AMIN     =   0.10
     WC   =   100.;   INIMIX=   1;  MIXPRE=   1;  MAXMIX= -45

 Intra band minimization:
   WEIMIN = 0.0000     energy-eigenvalue tresh-hold
   EBREAK =  0.15E-06  absolut break condition
   DEPER  =   0.30     relativ break condition  

   TIME   =   0.40     timestep for ELM

  volume/ion in A,a.u.               =      63.72       430.04
  Fermi-wavevector in a.u.,A,eV,Ry     =   0.688770  1.301586  6.454658  0.474404
  Thomas-Fermi vector in A             =   1.769665

 Write flags
   LWAVE        =      F    write WAVECAR
   LDOWNSAMPLE  =      F    k-point downsampling of WAVECAR
   LCHARG       =      F    write CHGCAR
   LVTOT        =      F    write LOCPOT, total local potential
   LVHAR        =      F    write LOCPOT, Hartree potential only
   LELF         =      F    write electronic localiz. function (ELF)
   LORBIT       =     11    0 simple, 1 ext, 2 COOP (PROOUT), +10 PAW based schemes


 Dipole corrections
   LMONO  =      F    monopole corrections only (constant potential shift)
   LDIPOL =      F    correct potential (dipole corrections)
   IDIPOL =      0    1-x, 2-y, 3-z, 4-all directions 
   EPSILON=  1.0000000 bulk dielectric constant

 Exchange correlation treatment:
   GGA     =    --    GGA type
   LEXCH   =     8    internal setting for exchange type
   VOSKOWN=      0    Vosko Wilk Nusair interpolation
   LHFCALC =     F    Hartree Fock is set to
   LHFONE  =     F    Hartree Fock one center treatment
   AEXX    =    0.0000 exact exchange contribution

 Linear response parameters
   LEPSILON=     F    determine dielectric tensor
   LRPA    =     F    only Hartree local field effects (RPA)
   LNABLA  =     F    use nabla operator in PAW spheres
   LVEL    =     F    velocity operator in full k-point grid
   LINTERFAST=   F  fast interpolation
   KINTER  =     0    interpolate to denser k-point grid
   CSHIFT  =0.1000    complex shift for real part using Kramers Kronig
   OMEGAMAX=  -1.0    maximum frequency
   DEG_THRESHOLD= 0.2000000E-02 threshold for treating states as degnerate
   RTIME   =   -0.100 relaxation time in fs
  (WPLASMAI=    0.000 imaginary part of plasma frequency in eV, 0.658/RTIME)
   DFIELD  = 0.0000000 0.0000000 0.0000000 field for delta impulse in time

 Orbital magnetization related:
   ORBITALMAG=     F  switch on orbital magnetization
   LCHIMAG   =     F  perturbation theory with respect to B field
   DQ        =  0.001000  dq finite difference perturbation B field
   LLRAUG    =     F  two centre corrections for induced B field



--------------------------------------------------------------------------------------------------------


 Static calculation
 charge density and potential will be updated during run
 spin polarized calculation
 Variant of blocked Davidson
 Davidson routine will perform the subspace rotation
 perform sub-space diagonalisation
    after iterative eigenvector-optimisation
 modified Broyden-mixing scheme, WC =      100.0
 initial mixing is a Kerker type mixing with AMIX =  0.2500 and BMIX =      0.0001
 Hartree-type preconditioning will be used
 using additional bands           32
 reciprocal scheme for non local part
 use partial core corrections
 calculate Harris-corrections to forces   (improved forces if not selfconsistent)
 use gradient corrections 
 use of overlap-Matrix (Vanderbilt PP)
 Fermi weights with tetrahedron method with Bloechl corrections


--------------------------------------------------------------------------------------------------------


  energy-cutoff  :      440.00
  volume of cell :     3759.76
      direct lattice vectors                 reciprocal lattice vectors
    16.058372112 -0.221258950  0.000000000     0.062784801  0.037158719 -0.000000000
    -8.029186056 13.566421553  0.000000000     0.001023977  0.074317438 -0.000000000
     0.000000000  0.000000000 17.400000000    -0.000000000 -0.000000000  0.057471264

  length of vectors
    16.059896339 15.764378278 17.400000000     0.072956848  0.074324493  0.057471264



 k-points in units of 2pi/SCALE and weight: K-Points                                
   0.00000000  0.00000000  0.00000000       0.111
   0.02427679  0.01436804  0.00000000       0.222
   0.00039594  0.02873608  0.00000000       0.222
   0.02467273  0.04310411  0.00000000       0.222
  -0.02388085  0.01436804  0.00000000       0.222

 k-points in reciprocal lattice and weights: K-Points                                
   0.00000000  0.00000000  0.00000000       0.111
   0.33333333  0.00000000  0.00000000       0.222
   0.00000000  0.33333333  0.00000000       0.222
   0.33333333  0.33333333  0.00000000       0.222
  -0.33333333  0.33333333  0.00000000       0.222

 position of ions in fractional coordinates (direct lattice) 
   0.10567936  0.21351909  0.43638452
   0.28750403  0.39866334  0.44307848
   0.10379301  0.39177313  0.43720774
   0.44732828  0.06383887  0.51561413
   0.45258916  0.40124889  0.42244582
   0.11203481  0.05273921  0.45860169
   0.09638015  0.71191070  0.49382164
   0.28433946  0.89006364  0.51112159
   0.10941441  0.89537413  0.50804572
   0.44792521  0.54827090  0.51182417
   0.44544784  0.88520183  0.49889037
   0.08690842  0.54210436  0.49059155
   0.61614813  0.22292684  0.48262487
   0.78023735  0.38968276  0.40980308
   0.61037743  0.39432339  0.44538198
   0.93951642  0.05229783  0.47062057
   0.94071854  0.38652888  0.40380040
   0.62278394  0.06558106  0.52195204
   0.61322902  0.71118454  0.54116914
   0.78984871  0.89727295  0.53280047
   0.60944297  0.89248269  0.53124739
   0.93832005  0.56283419  0.43042990
   0.95436023  0.90171878  0.54458488
   0.62130548  0.55465507  0.49978063
   0.16668926  0.33545237  0.43494871
   0.16473950  0.16097029  0.43087242
   0.33626584  0.00180669  0.53207802
   0.51175722  0.35246859  0.40230650
   0.34471728  0.36074551  0.39967324
   0.50565751  0.17673507  0.50307206
   0.15873210  0.98821904  0.45657691
   0.00214731  0.00186372  0.49276218
   0.16462634  0.83083069  0.51017993
   0.13400723  0.64526801  0.52770834
   0.33371346  0.49116238  0.50147098
   0.50288345  0.83078126  0.49964378
   0.33307237  0.82932770  0.48929409
   0.49902190  0.64803204  0.55475412
   0.14173676  0.48364631  0.49503647
   0.98839512  0.49595573  0.44590834
   0.66736443  0.33015381  0.43923807
   0.67970142  0.17802103  0.50515807
   0.82720183  0.98622484  0.47776955
   0.01097216  0.34809993  0.38872280
   0.83047981  0.33016544  0.38944898
   0.99296173  0.16101876  0.44505124
   0.66886761  0.00524437  0.54940128
   0.50484899  0.00388347  0.50822952
   0.66830364  0.83227641  0.54411956
   0.67536455  0.66551462  0.52238502
   0.83211404  0.50666912  0.40566699
   0.01584380  0.85299492  0.55859758
   0.84924332  0.85956436  0.57597004
   0.00424175  0.67726383  0.44447513
   0.66753141  0.49127771  0.49374111
   0.50565566  0.50179634  0.47708161
   0.28676550  0.59288202  0.56771515
   0.28676550  0.59288202  0.96638181
   0.23209909  0.52992702  0.02273763

 position of ions in cartesian coordinates  (Angst):
  -0.01734595  2.87330742  7.59309058
   1.41590452  5.34482207  7.70956551
  -1.47887266  5.29199432  7.60741459
   6.67078983  0.76708959  8.97168587
   4.04614305  5.34337223  7.35055735
   1.37564375  0.69069370  7.97966933
  -4.16835518  9.63675571  8.59249647
  -2.58045775 12.01206588  8.89351561
  -5.43210826 12.12281400  8.83999558
   2.79078069  7.33896671  8.90574060
   0.04571702 11.91046189  8.68069243
  -2.95704911  7.33518707  8.53629299
   8.10441487  2.88799121  8.39767276
   9.40050626  5.11396614  7.13057365
   6.63557196  5.21450591  7.74964640
  14.66719534  0.50161795  8.18879786
  12.00289611  5.03567137  7.02612690
   9.47433372  0.75190372  9.08196552
   4.13722686  9.51254690  9.41634307
   5.47931300 11.99802203  9.27072817
   2.62075239 11.97295163  9.24370453
  10.54879207  7.42803422  7.48948035
   8.08540377 12.02193638  9.47577688
   5.52372588  7.38721514  8.69618298
  -0.01665132  4.51400680  7.56810760
   1.35298785  2.14734067  7.49718016
   5.38537568 -0.04989154  9.25815757
   5.38795205  4.66850657  7.00013308
   2.63910550  4.81775390  6.95431434
   6.70099763  2.28578128  8.75345388
  -5.38561550 13.37147520  7.94443819
   0.01951817  0.02480889  8.57406189
  -4.02726306 11.23497429  8.87713073
  -3.02903894  8.72432751  9.18212514
   1.41526086  6.58947876  8.72559512
   1.40499230 11.15946126  8.69380176
  -1.31022637 11.17731392  8.51371712
   2.81030955  8.68106278  9.65272163
  -1.60722458  6.52998914  8.61363451
  11.88989583  6.50965328  7.75880514
   8.06591999  4.33134545  7.64274235
   9.48553441  2.26471830  8.78975048
   5.36493213 13.19651610  8.31319021
  -2.61876408  4.72004264  6.76377680
  10.68519404  4.29541245  6.77641217
  14.65249931  1.96474670  7.74389157
  10.69881706 -0.07684566  9.55958228
   8.07587187 -0.05901757  8.84319372
   4.04936647 11.14314443  9.46768031
   5.50171450  8.87922145  9.08949940
   9.29425619  6.68957422  7.05860570
  -6.59442934 11.56858311  9.71959784
   6.73586306 11.47330984 10.02187876
  -5.36976176  9.18710813  7.73386735
   6.77490756  6.51718323  8.59109534
   4.09099054  6.69569989  8.30122004
  -0.15537297  7.97983804  9.87824357
  -0.15537297  7.97983804 16.81504357
  -0.52774915  7.13785936  0.39563470



--------------------------------------------------------------------------------------------------------


 k-point  1 :   0.0000 0.0000 0.0000  plane waves:   78775
 k-point  2 :   0.3333 0.0000 0.0000  plane waves:   78780
 k-point  3 :   0.0000 0.3333 0.0000  plane waves:   78881
 k-point  4 :   0.3333 0.3333 0.0000  plane waves:   78786
 k-point  5 :  -0.3333 0.3333 0.0000  plane waves:   78788

 maximum and minimum number of plane-waves per node :      6593     6539

 maximum number of plane-waves:     78881
 maximum index in each direction: 
   IXMAX=   27   IYMAX=   26   IZMAX=   29
   IXMIN=  -27   IYMIN=  -27   IZMIN=  -29


 parallel 3D FFT for wavefunctions:
    minimum data exchange during FFTs selected (reduces bandwidth)
 parallel 3D FFT for charge:
    minimum data exchange during FFTs selected (reduces bandwidth)


 total amount of memory used by VASP MPI-rank0   128048. kBytes
=======================================================================

   base      :      30000. kBytes
   nonl-proj :      29826. kBytes
   fftplans  :       5599. kBytes
   grid      :      16950. kBytes
   one-center:        155. kBytes
   wavefun   :      45518. kBytes

     INWAV:  cpu time    0.0000: real time    0.0000
 Broyden mixing: mesh for mixing (old mesh)
   NGX = 55   NGY = 53   NGZ = 59
  (NGX  =168   NGY  =168   NGZ  =180)
  gives a total of 171985 points

 initial charge density was supplied:
 charge density of overlapping atoms calculated
 number of electron     280.0000000 magnetization       2.0000000
 keeping initial charge density in first step


--------------------------------------------------------------------------------------------------------


 Maximum index for augmentation-charges          341 (set IRDMAX)


--------------------------------------------------------------------------------------------------------


 First call to EWALD:  gamma=   0.114
 Maximum number of real-space cells 3x 3x 3
 Maximum number of reciprocal cells 3x 3x 3

    FEWALD:  cpu time    0.0164: real time    0.0164


--------------------------------------- Iteration      1(   1)  ---------------------------------------


    POTLOK:  cpu time    0.2482: real time    0.2576
    SETDIJ:  cpu time    0.0114: real time    0.0114
     EDDAV:  cpu time   19.8532: real time   19.8571
 BZINTS: Fermi energy:  7.015452;280.000000 electrons
         Band energy:***********;  BLOECHL correction: -0.004635
       DOS:  cpu time    0.0724: real time    0.0725
    --------------------------------------------
      LOOP:  cpu time   20.1853: real time   20.1986

 eigenvalue-minimisations  :  3960
 total energy-change (2. order) : 0.2389390E+04  (-0.9201399E+04)
 number of electron     280.0000000 magnetization       2.0000000
 augmentation part      280.0000000 magnetization       2.0000000

 Free energy of the ion-electron system (eV)
  ---------------------------------------------------
  alpha Z        PSCENC =        99.10745193
  Ewald energy   TEWEN  =     22194.86340447
  -Hartree energ DENC   =    -34481.31936937
  -exchange      EXHF   =         0.00000000
  -V(xc)+E(xc)   XCENC  =      1016.32919287
  PAW double counting   =     11453.83848114   -11942.90478952
  entropy T*S    EENTRO =         0.00000000
  eigenvalues    EBANDS =     -1122.26076261
  atomic energy  EATOM  =     15171.73615219
  Solvation  Ediel_sol  =         0.00000000
  ---------------------------------------------------
  free energy    TOTEN  =      2389.38976109 eV

  energy without entropy =     2389.38976109  energy(sigma->0) =     2389.38976109


--------------------------------------------------------------------------------------------------------




--------------------------------------- Iteration      1(   2)  ---------------------------------------


     EDDAV:  cpu time   24.1167: real time   24.1211
 BZINTS: Fermi energy: -0.346509;280.000000 electrons
         Band energy:***********;  BLOECHL correction:  0.000000
       DOS:  cpu time    0.0162: real time    0.0162
    --------------------------------------------
      LOOP:  cpu time   24.1329: real time   24.1373

 eigenvalue-minimisations  :  5048
 total energy-change (2. order) :-0.2216196E+04  (-0.2123034E+04)
 number of electron     280.0000000 magnetization       2.0000000
 augmentation part      280.0000000 magnetization       2.0000000

 Free energy of the ion-electron system (eV)
  ---------------------------------------------------
  alpha Z        PSCENC =        99.10745193
  Ewald energy   TEWEN  =     22194.86340447
  -Hartree energ DENC   =    -34481.31936937
  -exchange      EXHF   =         0.00000000
  -V(xc)+E(xc)   XCENC  =      1016.32919287
  PAW double counting   =     11453.83848114   -11942.90478952
  entropy T*S    EENTRO =         0.00000000
  eigenvalues    EBANDS =     -3338.45629603
  atomic energy  EATOM  =     15171.73615219
  Solvation  Ediel_sol  =         0.00000000
  ---------------------------------------------------
  free energy    TOTEN  =       173.19422768 eV

  energy without entropy =      173.19422768  energy(sigma->0) =      173.19422768


--------------------------------------------------------------------------------------------------------




--------------------------------------- Iteration      1(   3)  ---------------------------------------


     EDDAV:  cpu time   21.1390: real time   21.1440
 BZINTS: Fermi energy: -3.712116;280.000000 electrons
         Band energy:***********;  BLOECHL correction:  0.000000
       DOS:  cpu time    0.0173: real time    0.0173
    --------------------------------------------
      LOOP:  cpu time   21.1562: real time   21.1612

 eigenvalue-minimisations  :  4272
 total energy-change (2. order) :-0.5915057E+03  (-0.5858457E+03)
 number of electron     280.0000000 magnetization       2.0000000
 augmentation part      280.0000000 magnetization       2.0000000

 Free energy of the ion-electron system (eV)
  ---------------------------------------------------
  alpha Z        PSCENC =        99.10745193
  Ewald energy   TEWEN  =     22194.86340447
  -Hartree energ DENC   =    -34481.31936937
  -exchange      EXHF   =         0.00000000
  -V(xc)+E(xc)   XCENC  =      1016.32919287
  PAW double counting   =     11453.83848114   -11942.90478952
  entropy T*S    EENTRO =         0.00000000
  eigenvalues    EBANDS =     -3929.96202472
  atomic energy  EATOM  =     15171.73615219
  Solvation  Ediel_sol  =         0.00000000
  ---------------------------------------------------
  free energy    TOTEN  =      -418.31150101 eV

  energy without entropy =     -418.31150101  energy(sigma->0) =     -418.31150101


--------------------------------------------------------------------------------------------------------




--------------------------------------- Iteration      1(   4)  ---------------------------------------


     EDDAV:  cpu time   20.6491: real time   20.6509
 BZINTS: Fermi energy: -4.146287;280.000000 electrons
         Band energy:***********;  BLOECHL correction:  0.000000
       DOS:  cpu time    0.0167: real time    0.0167
    --------------------------------------------
      LOOP:  cpu time   20.6658: real time   20.6676

 eigenvalue-minimisations  :  4160
 total energy-change (2. order) :-0.3200414E+02  (-0.3102397E+02)
 number of electron     280.0000000 magnetization       2.0000000
 augmentation part      280.0000000 magnetization       2.0000000

 Free energy of the ion-electron system (eV)
  ---------------------------------------------------
  alpha Z        PSCENC =        99.10745193
  Ewald energy   TEWEN  =     22194.86340447
  -Hartree energ DENC   =    -34481.31936937
  -exchange      EXHF   =         0.00000000
  -V(xc)+E(xc)   XCENC  =      1016.32919287
  PAW double counting   =     11453.83848114   -11942.90478952
  entropy T*S    EENTRO =         0.00000000
  eigenvalues    EBANDS =     -3961.96616792
  atomic energy  EATOM  =     15171.73615219
  Solvation  Ediel_sol  =         0.00000000
  ---------------------------------------------------
  free energy    TOTEN  =      -450.31564422 eV

  energy without entropy =     -450.31564422  energy(sigma->0) =     -450.31564422


--------------------------------------------------------------------------------------------------------




--------------------------------------- Iteration      1(   5)  ---------------------------------------


     EDDAV:  cpu time   24.5304: real time   24.5390
 BZINTS: Fermi energy: -4.190048;280.000000 electrons
         Band energy:***********;  BLOECHL correction:  0.000000
       DOS:  cpu time    0.0167: real time    0.0167
    CHARGE:  cpu time    0.5944: real time    0.5946
    MIXING:  cpu time    0.0051: real time    0.0052
    --------------------------------------------
      LOOP:  cpu time   25.1467: real time   25.1556

 eigenvalue-minimisations  :  5184
 total energy-change (2. order) :-0.1885450E+01  (-0.1860694E+01)
 number of electron     280.0000133 magnetization      -0.0000000
 augmentation part       17.1985759 magnetization       0.0396891

 Broyden mixing:
  rms(total) = 0.32598E+01    rms(broyden)= 0.32556E+01
  rms(prec ) = 0.36085E+01
  weight for this iteration     100.00

 Free energy of the ion-electron system (eV)
  ---------------------------------------------------
  alpha Z        PSCENC =        99.10745193
  Ewald energy   TEWEN  =     22194.86340447
  -Hartree energ DENC   =    -34481.31936937
  -exchange      EXHF   =         0.00000000
  -V(xc)+E(xc)   XCENC  =      1016.32919287
  PAW double counting   =     11453.83848114   -11942.90478952
  entropy T*S    EENTRO =         0.00000000
  eigenvalues    EBANDS =     -3963.85161828
  atomic energy  EATOM  =     15171.73615219
  Solvation  Ediel_sol  =         0.00000000
  ---------------------------------------------------
  free energy    TOTEN  =      -452.20109458 eV

  energy without entropy =     -452.20109458  energy(sigma->0) =     -452.20109458


--------------------------------------------------------------------------------------------------------




--------------------------------------- Iteration      1(   6)  ---------------------------------------


    POTLOK:  cpu time    0.2228: real time    0.2231
    SETDIJ:  cpu time    0.0117: real time    0.0117
     EDDAV:  cpu time   22.4991: real time   22.5008
 BZINTS: Fermi energy: -4.576394;280.000000 electrons
         Band energy:***********;  BLOECHL correction:  0.000000
       DOS:  cpu time    0.0166: real time    0.0166
    CHARGE:  cpu time    0.5842: real time    0.5842
    MIXING:  cpu time    0.0058: real time    0.0096
    --------------------------------------------
      LOOP:  cpu time   23.3401: real time   23.3460

 eigenvalue-minimisations  :  4656
 total energy-change (2. order) : 0.1704335E+02  (-0.7797216E+01)
 number of electron     280.0000103 magnetization      -0.0000001
 augmentation part       15.6987495 magnetization       0.0171773

 Broyden mixing:
  rms(total) = 0.18262E+01    rms(broyden)= 0.18249E+01
  rms(prec ) = 0.19562E+01
  weight for this iteration     100.00

 eigenvalues of (default mixing * dielectric matrix)
  average eigenvalue GAMMA=   1.0239
  1.0239

 Free energy of the ion-electron system (eV)
  ---------------------------------------------------
  alpha Z        PSCENC =        99.10745193
  Ewald energy   TEWEN  =     22194.86340447
  -Hartree energ DENC   =    -34600.54232782
  -exchange      EXHF   =         0.00000000
  -V(xc)+E(xc)   XCENC  =      1025.40951270
  PAW double counting   =     13222.29043838   -13710.75759885
  entropy T*S    EENTRO =         0.00000000
  eigenvalues    EBANDS =     -3837.26477317
  atomic energy  EATOM  =     15171.73615219
  Solvation  Ediel_sol  =         0.00000000
  ---------------------------------------------------
  free energy    TOTEN  =      -435.15774017 eV

  energy without entropy =     -435.15774017  energy(sigma->0) =     -435.15774017


--------------------------------------------------------------------------------------------------------




--------------------------------------- Iteration      1(   7)  ---------------------------------------


    POTLOK:  cpu time    0.2165: real time    0.2217
    SETDIJ:  cpu time    0.0116: real time    0.0116
     EDDAV:  cpu time   20.8884: real time   20.8901
 BZINTS: Fermi energy: -4.445111;280.000000 electrons
         Band energy:***********;  BLOECHL correction:  0.000000
       DOS:  cpu time    0.0163: real time    0.0163
    CHARGE:  cpu time    0.5919: real time    0.5920
    MIXING:  cpu time    0.0051: real time    0.0054
    --------------------------------------------
      LOOP:  cpu time   21.7298: real time   21.7371

 eigenvalue-minimisations  :  4216
 total energy-change (2. order) : 0.7112372E+00  (-0.2359579E+01)
 number of electron     280.0000100 magnetization      -0.0000001
 augmentation part       15.7330459 magnetization       0.0095187

 Broyden mixing:
  rms(total) = 0.13318E+01    rms(broyden)= 0.13313E+01
  rms(prec ) = 0.14442E+01
  weight for this iteration     100.00

 eigenvalues of (default mixing * dielectric matrix)
  average eigenvalue GAMMA=   1.1427
  0.8375  1.4479

 Free energy of the ion-electron system (eV)
  ---------------------------------------------------
  alpha Z        PSCENC =        99.10745193
  Ewald energy   TEWEN  =     22194.86340447
  -Hartree energ DENC   =    -34660.44276463
  -exchange      EXHF   =         0.00000000
  -V(xc)+E(xc)   XCENC  =      1027.79529113
  PAW double counting   =     14548.71874625   -15037.13118825
  entropy T*S    EENTRO =         0.00000000
  eigenvalues    EBANDS =     -3779.09359602
  atomic energy  EATOM  =     15171.73615219
  Solvation  Ediel_sol  =         0.00000000
  ---------------------------------------------------
  free energy    TOTEN  =      -434.44650294 eV

  energy without entropy =     -434.44650294  energy(sigma->0) =     -434.44650294


--------------------------------------------------------------------------------------------------------




--------------------------------------- Iteration      1(   8)  ---------------------------------------


    POTLOK:  cpu time    0.2148: real time    0.2233
    SETDIJ:  cpu time    0.0115: real time    0.0115
     EDDAV:  cpu time   20.6211: real time   20.6261
 BZINTS: Fermi energy: -4.416354;280.000000 electrons
         Band energy:***********;  BLOECHL correction:  0.000000
       DOS:  cpu time    0.0167: real time    0.0167
    CHARGE:  cpu time    0.5839: real time    0.5840
    MIXING:  cpu time    0.0057: real time    0.0057
    --------------------------------------------
      LOOP:  cpu time   21.4537: real time   21.4674

 eigenvalue-minimisations  :  4160
 total energy-change (2. order) : 0.4213355E+00  (-0.1931978E+01)
 number of electron     280.0000099 magnetization      -0.0000000
 augmentation part       15.5256106 magnetization       0.0047874

 Broyden mixing:
  rms(total) = 0.99185E+00    rms(broyden)= 0.99157E+00
  rms(prec ) = 0.11214E+01
  weight for this iteration     100.00

 eigenvalues of (default mixing * dielectric matrix)
  average eigenvalue GAMMA=   1.3339
  2.4585  1.0056  0.5377

 Free energy of the ion-electron system (eV)
  ---------------------------------------------------
  alpha Z        PSCENC =        99.10745193
  Ewald energy   TEWEN  =     22194.86340447
  -Hartree energ DENC   =    -34693.37375098
  -exchange      EXHF   =         0.00000000
  -V(xc)+E(xc)   XCENC  =      1029.60027736
  PAW double counting   =     15769.67416862   -16258.81441935
  entropy T*S    EENTRO =         0.00000000
  eigenvalues    EBANDS =     -3746.81845169
  atomic energy  EATOM  =     15171.73615219
  Solvation  Ediel_sol  =         0.00000000
  ---------------------------------------------------
  free energy    TOTEN  =      -434.02516744 eV

  energy without entropy =     -434.02516744  energy(sigma->0) =     -434.02516744


--------------------------------------------------------------------------------------------------------




--------------------------------------- Iteration      1(   9)  ---------------------------------------


    POTLOK:  cpu time    0.2259: real time    0.2264
    SETDIJ:  cpu time    0.0119: real time    0.0119
     EDDAV:  cpu time   23.9992: real time   24.0040
 BZINTS: Fermi energy: -4.296324;280.000000 electrons
         Band energy:***********;  BLOECHL correction:  0.000000
       DOS:  cpu time    0.0171: real time    0.0171
    CHARGE:  cpu time    0.5893: real time    0.5893
    MIXING:  cpu time    0.0058: real time    0.0058
    --------------------------------------------
      LOOP:  cpu time   24.8493: real time   24.8545

 eigenvalue-minimisations  :  5080
 total energy-change (2. order) :-0.2685294E+00  (-0.2430054E+01)
 number of electron     280.0000106 magnetization       0.0000000
 augmentation part       15.7208198 magnetization       0.0008700

 Broyden mixing:
  rms(total) = 0.70811E+00    rms(broyden)= 0.70763E+00
  rms(prec ) = 0.88869E+00
  weight for this iteration     100.00

 eigenvalues of (default mixing * dielectric matrix)
  average eigenvalue GAMMA=   1.3366
  3.2807  1.0306  0.5176  0.5176

 Free energy of the ion-electron system (eV)
  ---------------------------------------------------
  alpha Z        PSCENC =        99.10745193
  Ewald energy   TEWEN  =     22194.86340447
  -Hartree energ DENC   =    -34724.20345818
  -exchange      EXHF   =         0.00000000
  -V(xc)+E(xc)   XCENC  =      1030.78716589
  PAW double counting   =     17168.36288061   -17660.70430668
  entropy T*S    EENTRO =         0.00000000
  eigenvalues    EBANDS =     -3714.24298705
  atomic energy  EATOM  =     15171.73615219
  Solvation  Ediel_sol  =         0.00000000
  ---------------------------------------------------
  free energy    TOTEN  =      -434.29369683 eV

  energy without entropy =     -434.29369683  energy(sigma->0) =     -434.29369683


--------------------------------------------------------------------------------------------------------




--------------------------------------- Iteration      1(  10)  ---------------------------------------


    POTLOK:  cpu time    0.2245: real time    0.2250
    SETDIJ:  cpu time    0.0115: real time    0.0115
     EDDAV:  cpu time   23.5588: real time   23.5622
 BZINTS: Fermi energy: -3.856214;280.000000 electrons
         Band energy:***********;  BLOECHL correction:  0.000000
       DOS:  cpu time    0.0169: real time    0.0169
    CHARGE:  cpu time    0.5878: real time    0.5878
    MIXING:  cpu time    0.0058: real time    0.0058
    --------------------------------------------
      LOOP:  cpu time   24.4054: real time   24.4093

 eigenvalue-minimisations  :  4960
 total energy-change (2. order) : 0.1110781E+01  (-0.7564774E+00)
 number of electron     280.0000098 magnetization       0.0000000
 augmentation part       15.7141286 magnetization      -0.0018561

 Broyden mixing:
  rms(total) = 0.34272E+00    rms(broyden)= 0.34157E+00
  rms(prec ) = 0.45321E+00
  weight for this iteration     100.00

 eigenvalues of (default mixing * dielectric matrix)
  average eigenvalue GAMMA=   1.2557
  3.6050  1.0386  0.7172  0.4589  0.4589

 Free energy of the ion-electron system (eV)
  ---------------------------------------------------
  alpha Z        PSCENC =        99.10745193
  Ewald energy   TEWEN  =     22194.86340447
  -Hartree energ DENC   =    -34749.28479241
  -exchange      EXHF   =         0.00000000
  -V(xc)+E(xc)   XCENC  =      1032.36429960
  PAW double counting   =     18439.69540705   -18932.26552709
  entropy T*S    EENTRO =         0.00000000
  eigenvalues    EBANDS =     -3689.39931124
  atomic energy  EATOM  =     15171.73615219
  Solvation  Ediel_sol  =         0.00000000
  ---------------------------------------------------
  free energy    TOTEN  =      -433.18291550 eV

  energy without entropy =     -433.18291550  energy(sigma->0) =     -433.18291550


--------------------------------------------------------------------------------------------------------




--------------------------------------- Iteration      1(  11)  ---------------------------------------


    POTLOK:  cpu time    0.2244: real time    0.2259
    SETDIJ:  cpu time    0.0119: real time    0.0119
     EDDAV:  cpu time   21.9431: real time   21.9448
 BZINTS: Fermi energy: -3.889972;280.000000 electrons
         Band energy:***********;  BLOECHL correction:  0.000000
       DOS:  cpu time    0.0166: real time    0.0166
    CHARGE:  cpu time    0.5837: real time    0.5855
    MIXING:  cpu time    0.0062: real time    0.0062
    --------------------------------------------
      LOOP:  cpu time   22.7859: real time   22.7909

 eigenvalue-minimisations  :  4512
 total energy-change (2. order) : 0.1267222E+00  (-0.3667846E+00)
 number of electron     280.0000105 magnetization       0.0000000
 augmentation part       15.7026087 magnetization      -0.0021692

 Broyden mixing:
  rms(total) = 0.27313E+00    rms(broyden)= 0.27252E+00
  rms(prec ) = 0.37241E+00
  weight for this iteration     100.00

 eigenvalues of (default mixing * dielectric matrix)
  average eigenvalue GAMMA=   1.1615
  3.6104  1.0147  0.7592  0.7592  0.4127  0.4127

 Free energy of the ion-electron system (eV)
  ---------------------------------------------------
  alpha Z        PSCENC =        99.10745193
  Ewald energy   TEWEN  =     22194.86340447
  -Hartree energ DENC   =    -34757.31497019
  -exchange      EXHF   =         0.00000000
  -V(xc)+E(xc)   XCENC  =      1032.83443210
  PAW double counting   =     18924.79811169   -19417.01372688
  entropy T*S    EENTRO =         0.00000000
  eigenvalues    EBANDS =     -3682.06704862
  atomic energy  EATOM  =     15171.73615219
  Solvation  Ediel_sol  =         0.00000000
  ---------------------------------------------------
  free energy    TOTEN  =      -433.05619332 eV

  energy without entropy =     -433.05619332  energy(sigma->0) =     -433.05619332


--------------------------------------------------------------------------------------------------------




--------------------------------------- Iteration      1(  12)  ---------------------------------------


    POTLOK:  cpu time    0.2256: real time    0.2260
    SETDIJ:  cpu time    0.0114: real time    0.0114
     EDDAV:  cpu time   21.6278: real time   21.6291
 BZINTS: Fermi energy: -3.849962;280.000000 electrons
         Band energy:***********;  BLOECHL correction:  0.000000
       DOS:  cpu time    0.0164: real time    0.0165
    CHARGE:  cpu time    0.5890: real time    0.5891
    MIXING:  cpu time    0.0070: real time    0.0070
    --------------------------------------------
      LOOP:  cpu time   22.4773: real time   22.4792

 eigenvalue-minimisations  :  4440
 total energy-change (2. order) : 0.1408721E+00  (-0.1597637E+00)
 number of electron     280.0000101 magnetization       0.0000000
 augmentation part       15.6448188 magnetization      -0.0017161

 Broyden mixing:
  rms(total) = 0.12573E+00    rms(broyden)= 0.12508E+00
  rms(prec ) = 0.14660E+00
  weight for this iteration     100.00

 eigenvalues of (default mixing * dielectric matrix)
  average eigenvalue GAMMA=   1.1272
  3.5612  1.1002  1.1002  0.6559  0.6559  0.4195  0.3972

 Free energy of the ion-electron system (eV)
  ---------------------------------------------------
  alpha Z        PSCENC =        99.10745193
  Ewald energy   TEWEN  =     22194.86340447
  -Hartree energ DENC   =    -34756.46632959
  -exchange      EXHF   =         0.00000000
  -V(xc)+E(xc)   XCENC  =      1032.84030756
  PAW double counting   =     18995.47199334   -19487.19287587
  entropy T*S    EENTRO =         0.00000000
  eigenvalues    EBANDS =     -3683.27542525
  atomic energy  EATOM  =     15171.73615219
  Solvation  Ediel_sol  =         0.00000000
  ---------------------------------------------------
  free energy    TOTEN  =      -432.91532122 eV

  energy without entropy =     -432.91532122  energy(sigma->0) =     -432.91532122


--------------------------------------------------------------------------------------------------------




--------------------------------------- Iteration      1(  13)  ---------------------------------------


    POTLOK:  cpu time    0.2180: real time    0.2194
    SETDIJ:  cpu time    0.0113: real time    0.0113
     EDDAV:  cpu time   21.3313: real time   21.3327
 BZINTS: Fermi energy: -3.859965;280.000000 electrons
         Band energy:***********;  BLOECHL correction:  0.000000
       DOS:  cpu time    0.0170: real time    0.0170
    CHARGE:  cpu time    0.5863: real time    0.5863
    MIXING:  cpu time    0.0071: real time    0.0071
    --------------------------------------------
      LOOP:  cpu time   22.1709: real time   22.1738

 eigenvalue-minimisations  :  4360
 total energy-change (2. order) : 0.1017793E-01  (-0.1793084E-01)
 number of electron     280.0000101 magnetization       0.0000000
 augmentation part       15.6381697 magnetization      -0.0010349

 Broyden mixing:
  rms(total) = 0.79048E-01    rms(broyden)= 0.79018E-01
  rms(prec ) = 0.85657E-01
  weight for this iteration     100.00

 eigenvalues of (default mixing * dielectric matrix)
  average eigenvalue GAMMA=   1.1544
  3.5025  1.8331  0.9911  0.6795  0.6795  0.7427  0.4035  0.4035

 Free energy of the ion-electron system (eV)
  ---------------------------------------------------
  alpha Z        PSCENC =        99.10745193
  Ewald energy   TEWEN  =     22194.86340447
  -Hartree energ DENC   =    -34751.20133793
  -exchange      EXHF   =         0.00000000
  -V(xc)+E(xc)   XCENC  =      1032.62244996
  PAW double counting   =     19018.38032676   -19509.97047028
  entropy T*S    EENTRO =         0.00000000
  eigenvalues    EBANDS =     -3688.44312039
  atomic energy  EATOM  =     15171.73615219
  Solvation  Ediel_sol  =         0.00000000
  ---------------------------------------------------
  free energy    TOTEN  =      -432.90514329 eV

  energy without entropy =     -432.90514329  energy(sigma->0) =     -432.90514329


--------------------------------------------------------------------------------------------------------




--------------------------------------- Iteration      1(  14)  ---------------------------------------


    POTLOK:  cpu time    0.2245: real time    0.2250
    SETDIJ:  cpu time    0.0115: real time    0.0116
     EDDAV:  cpu time   20.6751: real time   20.6784
 BZINTS: Fermi energy: -3.876219;280.000000 electrons
         Band energy:***********;  BLOECHL correction:  0.000000
       DOS:  cpu time    0.0176: real time    0.0176
    CHARGE:  cpu time    0.5791: real time    0.5792
    MIXING:  cpu time    0.0080: real time    0.0080
    --------------------------------------------
      LOOP:  cpu time   21.5159: real time   21.5198

 eigenvalue-minimisations  :  4184
 total energy-change (2. order) : 0.3880848E-02  (-0.5497261E-02)
 number of electron     280.0000101 magnetization       0.0000000
 augmentation part       15.6440959 magnetization      -0.0009336

 Broyden mixing:
  rms(total) = 0.54369E-01    rms(broyden)= 0.54330E-01
  rms(prec ) = 0.63247E-01
  weight for this iteration     100.00

 eigenvalues of (default mixing * dielectric matrix)
  average eigenvalue GAMMA=   1.2088
  3.5807  2.4259  0.9285  0.9285  0.8808  0.6657  0.6657  0.4015  0.4015

 Free energy of the ion-electron system (eV)
  ---------------------------------------------------
  alpha Z        PSCENC =        99.10745193
  Ewald energy   TEWEN  =     22194.86340447
  -Hartree energ DENC   =    -34746.31225776
  -exchange      EXHF   =         0.00000000
  -V(xc)+E(xc)   XCENC  =      1032.39994209
  PAW double counting   =     19052.87286478   -19544.35232406
  entropy T*S    EENTRO =         0.00000000
  eigenvalues    EBANDS =     -3693.21649608
  atomic energy  EATOM  =     15171.73615219
  Solvation  Ediel_sol  =         0.00000000
  ---------------------------------------------------
  free energy    TOTEN  =      -432.90126244 eV

  energy without entropy =     -432.90126244  energy(sigma->0) =     -432.90126244


--------------------------------------------------------------------------------------------------------




--------------------------------------- Iteration      1(  15)  ---------------------------------------


    POTLOK:  cpu time    0.2251: real time    0.2265
    SETDIJ:  cpu time    0.0117: real time    0.0117
     EDDAV:  cpu time   22.3651: real time   22.3682
 BZINTS: Fermi energy: -3.886222;280.000000 electrons
         Band energy:***********;  BLOECHL correction:  0.000000
       DOS:  cpu time    0.0170: real time    0.0170
    CHARGE:  cpu time    0.5938: real time    0.5940
    MIXING:  cpu time    0.0079: real time    0.0079
    --------------------------------------------
      LOOP:  cpu time   23.2205: real time   23.2253

 eigenvalue-minimisations  :  4640
 total energy-change (2. order) :-0.2450992E-02  (-0.9883610E-02)
 number of electron     280.0000102 magnetization       0.0000000
 augmentation part       15.6502444 magnetization      -0.0003569

 Broyden mixing:
  rms(total) = 0.63366E-01    rms(broyden)= 0.63203E-01
  rms(prec ) = 0.84593E-01
  weight for this iteration     100.00

 eigenvalues of (default mixing * dielectric matrix)
  average eigenvalue GAMMA=   1.2003
  3.6236  2.7249  0.9579  0.9579  0.6964  0.6964  0.8242  0.7140  0.4207  0.3874

 Free energy of the ion-electron system (eV)
  ---------------------------------------------------
  alpha Z        PSCENC =        99.10745193
  Ewald energy   TEWEN  =     22194.86340447
  -Hartree energ DENC   =    -34744.16579861
  -exchange      EXHF   =         0.00000000
  -V(xc)+E(xc)   XCENC  =      1032.29228197
  PAW double counting   =     19111.86850761   -19603.32236483
  entropy T*S    EENTRO =         0.00000000
  eigenvalues    EBANDS =     -3695.28334816
  atomic energy  EATOM  =     15171.73615219
  Solvation  Ediel_sol  =         0.00000000
  ---------------------------------------------------
  free energy    TOTEN  =      -432.90371343 eV

  energy without entropy =     -432.90371343  energy(sigma->0) =     -432.90371343


--------------------------------------------------------------------------------------------------------




--------------------------------------- Iteration      1(  16)  ---------------------------------------


    POTLOK:  cpu time    0.2264: real time    0.2279
    SETDIJ:  cpu time    0.0119: real time    0.0119
     EDDAV:  cpu time   21.7348: real time   21.7364
 BZINTS: Fermi energy: -3.886222;280.000000 electrons
         Band energy:***********;  BLOECHL correction:  0.000000
       DOS:  cpu time    0.0169: real time    0.0169
    CHARGE:  cpu time    0.5864: real time    0.5864
    MIXING:  cpu time    0.0080: real time    0.0080
    --------------------------------------------
      LOOP:  cpu time   22.5844: real time   22.5875

 eigenvalue-minimisations  :  4480
 total energy-change (2. order) : 0.2627365E-02  (-0.1092591E-01)
 number of electron     280.0000101 magnetization       0.0000000
 augmentation part       15.6471727 magnetization      -0.0026226

 Broyden mixing:
  rms(total) = 0.40751E-01    rms(broyden)= 0.40522E-01
  rms(prec ) = 0.51596E-01
  weight for this iteration     100.00

 eigenvalues of (default mixing * dielectric matrix)
  average eigenvalue GAMMA=   1.0943
  3.6241  2.7228  0.9557  0.9557  0.6945  0.6945  0.8465  0.7056  0.4204  0.3877
  0.0302

 Free energy of the ion-electron system (eV)
  ---------------------------------------------------
  alpha Z        PSCENC =        99.10745193
  Ewald energy   TEWEN  =     22194.86340447
  -Hartree energ DENC   =    -34743.54212296
  -exchange      EXHF   =         0.00000000
  -V(xc)+E(xc)   XCENC  =      1032.26535179
  PAW double counting   =     19133.27657354   -19624.68041025
  entropy T*S    EENTRO =         0.00000000
  eigenvalues    EBANDS =     -3695.92748678
  atomic energy  EATOM  =     15171.73615219
  Solvation  Ediel_sol  =         0.00000000
  ---------------------------------------------------
  free energy    TOTEN  =      -432.90108607 eV

  energy without entropy =     -432.90108607  energy(sigma->0) =     -432.90108607


--------------------------------------------------------------------------------------------------------




--------------------------------------- Iteration      1(  17)  ---------------------------------------


    POTLOK:  cpu time    0.2239: real time    0.2278
    SETDIJ:  cpu time    0.0115: real time    0.0115
     EDDAV:  cpu time   20.4645: real time   20.4675
 BZINTS: Fermi energy: -3.886222;280.000000 electrons
         Band energy:***********;  BLOECHL correction:  0.000000
       DOS:  cpu time    0.0167: real time    0.0167
    CHARGE:  cpu time    0.5913: real time    0.5914
    MIXING:  cpu time    0.0086: real time    0.0086
    --------------------------------------------
      LOOP:  cpu time   21.3164: real time   21.3234

 eigenvalue-minimisations  :  4144
 total energy-change (2. order) :-0.1040632E-02  (-0.1443358E-02)
 number of electron     280.0000101 magnetization       0.0000000
 augmentation part       15.6485433 magnetization      -0.0039263

 Broyden mixing:
  rms(total) = 0.39162E-01    rms(broyden)= 0.39124E-01
  rms(prec ) = 0.41971E-01
  weight for this iteration     100.00

 eigenvalues of (default mixing * dielectric matrix)
  average eigenvalue GAMMA=   1.1772
  3.7270  3.0309  0.7843  1.0736  1.0736  1.0962  0.6853  0.6853  0.6728  0.3787
  0.4680  0.4508

 Free energy of the ion-electron system (eV)
  ---------------------------------------------------
  alpha Z        PSCENC =        99.10745193
  Ewald energy   TEWEN  =     22194.86340447
  -Hartree energ DENC   =    -34743.47402891
  -exchange      EXHF   =         0.00000000
  -V(xc)+E(xc)   XCENC  =      1032.26527180
  PAW double counting   =     19138.69293927   -19630.10964180
  entropy T*S    EENTRO =         0.00000000
  eigenvalues    EBANDS =     -3695.98367564
  atomic energy  EATOM  =     15171.73615219
  Solvation  Ediel_sol  =         0.00000000
  ---------------------------------------------------
  free energy    TOTEN  =      -432.90212670 eV

  energy without entropy =     -432.90212670  energy(sigma->0) =     -432.90212670


--------------------------------------------------------------------------------------------------------




--------------------------------------- Iteration      1(  18)  ---------------------------------------


    POTLOK:  cpu time    0.2264: real time    0.2269
    SETDIJ:  cpu time    0.0121: real time    0.0121
     EDDAV:  cpu time   21.0029: real time   21.0065
 BZINTS: Fermi energy: -3.886222;280.000000 electrons
         Band energy:***********;  BLOECHL correction:  0.000000
       DOS:  cpu time    0.0172: real time    0.0172
    CHARGE:  cpu time    0.5863: real time    0.5864
    MIXING:  cpu time    0.0093: real time    0.0093
    --------------------------------------------
      LOOP:  cpu time   21.8543: real time   21.8584

 eigenvalue-minimisations  :  4264
 total energy-change (2. order) : 0.3779963E-02  (-0.1895887E-02)
 number of electron     280.0000101 magnetization       0.0000000
 augmentation part       15.6487665 magnetization      -0.0013630

 Broyden mixing:
  rms(total) = 0.22203E-01    rms(broyden)= 0.22121E-01
  rms(prec ) = 0.25058E-01
  weight for this iteration     100.00

 eigenvalues of (default mixing * dielectric matrix)
  average eigenvalue GAMMA=   1.1438
  3.7060  2.9149  0.9331  1.2341  1.0467  1.0467  0.6856  0.6856  0.6712  0.5658
  0.5658  0.4338  0.3804

 Free energy of the ion-electron system (eV)
  ---------------------------------------------------
  alpha Z        PSCENC =        99.10745193
  Ewald energy   TEWEN  =     22194.86340447
  -Hartree energ DENC   =    -34743.04185035
  -exchange      EXHF   =         0.00000000
  -V(xc)+E(xc)   XCENC  =      1032.24550391
  PAW double counting   =     19145.85123395   -19637.26503865
  entropy T*S    EENTRO =         0.00000000
  eigenvalues    EBANDS =     -3696.39520419
  atomic energy  EATOM  =     15171.73615219
  Solvation  Ediel_sol  =         0.00000000
  ---------------------------------------------------
  free energy    TOTEN  =      -432.89834674 eV

  energy without entropy =     -432.89834674  energy(sigma->0) =     -432.89834674


--------------------------------------------------------------------------------------------------------




--------------------------------------- Iteration      1(  19)  ---------------------------------------


    POTLOK:  cpu time    0.2252: real time    0.2256
    SETDIJ:  cpu time    0.0115: real time    0.0115
     EDDAV:  cpu time   21.2963: real time   21.2992
 BZINTS: Fermi energy: -3.886222;280.000000 electrons
         Band energy:***********;  BLOECHL correction:  0.000000
       DOS:  cpu time    0.0172: real time    0.0172
    CHARGE:  cpu time    0.5897: real time    0.5898
    MIXING:  cpu time    0.0095: real time    0.0095
    --------------------------------------------
      LOOP:  cpu time   22.1494: real time   22.1528

 eigenvalue-minimisations  :  4328
 total energy-change (2. order) :-0.3234801E-03  (-0.6269807E-03)
 number of electron     280.0000101 magnetization       0.0000000
 augmentation part       15.6484690 magnetization       0.0001333

 Broyden mixing:
  rms(total) = 0.11563E-01    rms(broyden)= 0.11425E-01
  rms(prec ) = 0.12107E-01
  weight for this iteration     100.00

 eigenvalues of (default mixing * dielectric matrix)
  average eigenvalue GAMMA=   1.1763
  3.7245  2.7262  1.9535  0.9066  0.9949  0.9949  0.9783  0.6962  0.6962  0.8098
  0.6608  0.3800  0.4364  0.5101

 Free energy of the ion-electron system (eV)
  ---------------------------------------------------
  alpha Z        PSCENC =        99.10745193
  Ewald energy   TEWEN  =     22194.86340447
  -Hartree energ DENC   =    -34743.37052712
  -exchange      EXHF   =         0.00000000
  -V(xc)+E(xc)   XCENC  =      1032.26190222
  PAW double counting   =     19142.25030241   -19633.67722989
  entropy T*S    EENTRO =         0.00000000
  eigenvalues    EBANDS =     -3696.07012644
  atomic energy  EATOM  =     15171.73615219
  Solvation  Ediel_sol  =         0.00000000
  ---------------------------------------------------
  free energy    TOTEN  =      -432.89867022 eV

  energy without entropy =     -432.89867022  energy(sigma->0) =     -432.89867022


--------------------------------------------------------------------------------------------------------




--------------------------------------- Iteration      1(  20)  ---------------------------------------


    POTLOK:  cpu time    0.2208: real time    0.2298
[...]
   -.115E+02 0.391E+02 0.138E+03   0.123E+02 -.402E+02 -.138E+03   -.505E+00 0.140E+01 0.122E+01   -.765E-02 0.361E-02 0.736E-02
   -.460E+02 -.121E+02 0.668E+02   0.470E+02 0.127E+02 -.669E+02   -.180E+01 -.749E+00 0.629E+00   -.735E-03 0.197E-02 0.160E-02
   0.297E+02 -.248E+02 -.256E+02   -.304E+02 0.196E+02 0.238E+02   0.381E+00 0.321E+01 0.660E+00   0.310E-02 0.768E-02 0.287E-02
   0.229E+02 -.100E+02 -.343E+02   -.176E+02 0.133E+02 0.337E+02   -.336E+01 -.177E+01 0.286E+00   -.114E-02 -.233E-02 0.504E-02
   -.871E+01 0.162E+01 -.421E+02   0.339E+01 0.164E+01 0.415E+02   0.336E+01 -.167E+01 0.277E-01   0.769E-03 0.291E-03 0.157E-02
   -.181E+02 0.131E+02 -.500E+02   0.183E+02 -.115E+02 0.506E+02   0.933E+00 -.148E+01 -.126E+01   -.293E-02 0.448E-03 0.140E-04
   -.261E+01 0.143E+02 0.341E+02   0.255E+01 -.154E+02 -.330E+02   -.185E-01 0.231E+01 -.324E+00   0.468E-02 -.736E-02 0.752E-02
   0.237E+02 0.122E+02 -.470E+02   -.236E+02 -.103E+02 0.468E+02   -.104E+01 -.167E+01 -.107E+01   0.146E-01 0.128E-01 0.108E-01
   -.262E+01 -.158E+02 -.873E+01   0.262E+01 0.102E+02 0.107E+02   -.110E+00 0.364E+01 -.102E+01   -.697E-02 -.231E-02 0.106E-02
   0.321E+02 0.230E+02 0.132E+03   -.272E+02 -.202E+02 -.132E+03   -.288E+01 -.181E+01 0.545E+00   -.982E-02 -.377E-02 0.582E-02
   -.136E+02 0.188E+02 0.606E+02   0.862E+01 -.157E+02 -.594E+02   0.301E+01 -.148E+01 -.668E+00   -.183E-01 0.249E-02 0.323E-02
   0.476E+02 -.111E+02 0.460E+02   -.486E+02 0.118E+02 -.458E+02   0.187E+01 -.729E+00 0.331E+00   -.112E-02 -.309E-02 0.251E-02
   0.355E+01 0.552E+02 0.147E+03   -.426E+01 -.563E+02 -.147E+03   0.156E+00 0.162E+01 0.114E+01   0.563E-02 -.822E-02 -.229E-02
   -.472E+02 -.428E+02 -.689E+02   0.480E+02 0.434E+02 0.689E+02   -.175E+01 -.982E+00 -.412E+00   0.318E-02 -.925E-02 0.454E-02
   -.250E+02 -.241E+02 -.988E+02   0.255E+02 0.189E+02 0.973E+02   0.937E-02 0.299E+01 0.352E+00   -.169E-02 -.207E-02 0.108E-02
   0.113E+02 0.819E+00 -.770E+02   -.587E+01 0.235E+01 0.756E+02   -.321E+01 -.160E+01 0.230E+00   -.319E-02 -.560E-02 0.185E-02
   -.250E+02 -.660E+01 -.626E+02   0.197E+02 0.100E+02 0.610E+02   0.316E+01 -.182E+01 0.755E+00   0.307E-02 -.789E-02 0.413E-02
   0.535E+02 -.512E+02 0.951E+02   -.551E+02 0.513E+02 -.947E+02   0.168E+01 -.125E+01 -.121E-01   -.393E-02 0.161E-01 0.175E-02
   -.750E+01 0.317E+02 -.132E+03   0.745E+01 -.332E+02 0.132E+03   0.469E-02 0.222E+01 -.120E+01   -.516E-02 -.175E-02 0.721E-03
   -.615E+02 -.188E+02 -.427E+02   0.629E+02 0.188E+02 0.431E+02   -.188E+01 -.384E+00 -.693E+00   -.111E-01 0.641E-03 0.136E-02
   -.107E+02 0.288E+02 0.114E+03   0.108E+02 -.296E+02 -.116E+03   -.264E+00 0.274E+00 0.196E+01   0.281E-01 0.433E-02 0.656E-03
   -.138E+03 -.197E+02 0.155E+03   0.163E+03 0.338E+02 -.165E+03   -.289E+02 -.161E+02 0.114E+02   0.391E-02 0.444E-02 0.351E-02
   0.110E+03 -.110E+03 -.166E+03   -.136E+03 0.123E+03 0.175E+03   0.289E+02 -.152E+02 -.112E+02   -.413E-02 -.144E-03 0.160E-02
   0.193E+01 0.121E+03 0.274E+03   0.221E+00 -.145E+03 -.292E+03   -.274E+01 0.271E+02 0.217E+02   -.148E-01 0.883E-02 0.125E-01
   -.296E+02 0.100E+03 0.287E+03   0.268E+02 -.122E+03 -.308E+03   0.271E+01 0.248E+02 0.240E+02   0.337E-02 0.844E-02 0.150E-01
   0.136E+03 -.695E+02 -.795E+02   -.161E+03 0.864E+02 0.794E+02   0.281E+02 -.198E+02 -.485E+00   -.129E-01 -.767E-03 0.949E-03
   -.102E+03 -.574E+02 0.176E+03   0.127E+03 0.647E+02 -.192E+03   -.281E+02 -.836E+01 0.190E+02   -.202E-02 0.521E-02 0.317E-02
   -.330E+01 0.372E-02 -.172E+02   0.340E+01 0.199E+00 0.181E+02   -.170E+00 -.112E+00 -.107E+01   -.270E-02 0.191E-03 0.730E-03
   0.125E+02 -.176E+02 -.666E+02   -.129E+02 0.179E+02 0.709E+02   0.140E+00 -.427E+00 -.492E+01   0.163E-02 0.309E-03 0.562E-02
   0.156E+01 -.446E+02 -.211E+03   0.161E+02 0.548E+02 0.230E+03   -.198E+02 -.118E+02 -.221E+02   0.176E-01 0.580E-02 0.217E-02
   0.353E+01 0.492E+02 -.522E+02   -.198E+02 -.454E+02 0.614E+02   0.191E+02 -.403E+01 -.105E+02   0.578E-02 0.964E-02 0.524E-02
   -.121E+02 0.770E+02 0.866E+02   0.148E+02 -.105E+03 -.950E+02   -.320E+01 0.321E+02 0.996E+01   0.683E-02 -.151E-01 0.131E-01
   -.474E-02 0.746E+02 0.962E+02   -.190E+01 -.103E+03 -.105E+03   0.229E+01 0.320E+02 0.101E+02   0.753E-02 -.120E-01 0.127E-01
   0.257E+02 -.434E+02 -.231E+03   -.470E+02 0.541E+02 0.245E+03   0.238E+02 -.125E+02 -.173E+02   -.565E-02 -.364E-03 -.855E-02
   0.262E+00 0.559E+02 -.749E+02   0.144E+02 -.527E+02 0.871E+02   -.172E+02 -.332E+01 -.142E+02   0.171E-01 0.199E-01 0.145E-01
   0.374E+02 0.130E+02 0.507E+02   -.410E+02 -.155E+02 -.498E+02   0.472E+01 0.313E+01 -.464E+00   0.865E-02 0.154E-01 0.117E-01
   0.103E+02 0.274E+02 0.102E+03   -.121E+02 -.292E+02 -.107E+03   0.194E+01 0.203E+01 0.528E+01   -.330E-01 -.804E-02 0.423E-02
   -.133E+03 -.729E+02 -.867E+02   0.159E+03 0.893E+02 0.870E+02   -.287E+02 -.190E+02 -.739E+00   0.689E-02 -.139E-01 0.728E-02
   0.105E+03 -.486E+02 0.137E+03   -.131E+03 0.555E+02 -.151E+03   0.293E+02 -.784E+01 0.167E+02   -.643E-03 -.398E-02 0.642E-02
   0.109E+02 0.117E+03 0.296E+03   -.622E+01 -.139E+03 -.315E+03   -.486E+01 0.255E+02 0.228E+02   0.191E-01 -.162E-01 -.834E-02
   0.436E+01 0.167E+03 0.249E+03   -.579E+01 -.196E+03 -.257E+03   0.217E+01 0.328E+02 0.106E+02   0.124E-01 -.252E-01 -.474E-02
   0.138E+03 -.204E+02 0.939E+02   -.164E+03 0.356E+02 -.983E+02   0.297E+02 -.174E+02 0.536E+01   0.389E-02 -.789E-02 0.485E-02
   -.100E+03 -.112E+03 -.203E+03   0.125E+03 0.126E+03 0.215E+03   -.274E+02 -.151E+02 -.145E+02   0.468E-02 -.953E-02 0.563E-03
   0.575E+00 -.248E+02 -.909E+01   -.469E+00 0.259E+02 0.689E+01   -.110E+00 -.140E+01 0.256E+01   0.392E-02 -.462E-02 0.720E-02
   -.122E+02 -.191E+02 -.130E+03   0.123E+02 0.206E+02 0.135E+03   0.185E+00 -.180E+01 -.665E+01   -.283E-02 -.133E-01 0.415E-02
   -.160E+03 -.452E+02 -.650E+02   0.186E+03 0.612E+02 0.652E+02   -.291E+02 -.181E+02 -.394E+00   -.143E-01 -.167E-02 0.124E-02
   0.126E+03 -.104E+03 0.212E+03   -.153E+03 0.117E+03 -.217E+03   0.302E+02 -.145E+02 0.744E+01   -.152E-01 0.310E-01 0.618E-02
   0.128E+01 0.104E+03 -.268E+03   0.263E+01 -.127E+03 0.286E+03   -.451E+01 0.266E+02 -.220E+02   -.584E-02 -.402E-03 0.129E-03
   -.257E+02 0.798E+02 -.301E+03   0.243E+02 -.102E+03 0.322E+03   0.162E+01 0.242E+02 -.252E+02   -.666E-02 -.603E-02 -.419E-02
   0.135E+03 -.898E+02 0.163E+03   -.155E+03 0.109E+03 -.174E+03   0.229E+02 -.219E+02 0.126E+02   -.154E-02 0.168E-01 0.438E-02
   -.119E+03 -.518E+02 -.130E+03   0.145E+03 0.589E+02 0.142E+03   -.305E+02 -.782E+01 -.141E+02   -.258E-01 0.972E-02 0.262E-02
   -.352E+02 0.154E+02 0.305E+02   0.376E+02 -.171E+02 -.320E+02   -.324E+01 0.222E+01 0.231E+01   -.309E-02 -.131E-03 0.406E-02
   0.322E+02 -.866E+02 -.690E+03   -.328E+02 0.951E+02 0.699E+03   0.646E+00 -.996E+01 -.109E+02   0.660E-01 0.143E-01 -.566E-02
   -.484E+02 -.110E+03 0.106E+03   0.525E+02 0.120E+03 -.116E+03   -.728E+01 -.165E+02 0.192E+02   0.178E-02 0.147E-02 -.428E-02
   0.416E+02 0.938E+02 -.621E+02   -.512E+02 -.116E+03 0.875E+02   0.128E+02 0.290E+02 -.338E+02   0.397E-02 0.441E-02 -.810E-02
 -----------------------------------------------------------------------------------------------
   -.474E+01 -.204E+02 0.953E+01   0.320E-12 0.270E-12 0.668E-12   0.468E+01 0.204E+02 -.972E+01   0.643E-01 0.159E-01 0.180E+00


 POSITION                                       TOTAL-FORCE (eV/Angst)
 -----------------------------------------------------------------------------------
     -0.01735      2.87331      7.59309         0.013350     -2.334776      0.901823
      1.41590      5.34482      7.70957         2.461336      0.356865      0.435132
     -1.47887      5.29199      7.60741        -2.482992      0.324199      0.096994
      6.67079      0.76709      8.97169         0.816405     -0.265870     -0.549093
      4.04614      5.34337      7.35056         0.250411      0.305510      0.983008
      1.37564      0.69069      7.97967        -0.781407     -0.122232      0.563616
     -4.16836      9.63676      8.59250        -0.259694     -1.979683     -1.082882
     -2.58046     12.01207      8.89352         1.970112      1.558613     -0.334992
     -5.43211     12.12281      8.84000        -1.962804      1.587462     -0.498775
      2.79078      7.33897      8.90574         1.145402      0.119496     -0.661400
      0.04572     11.91046      8.68069        -0.081214      1.219856      0.790277
     -2.95705      7.33519      8.53629        -0.990560      0.275488     -1.308949
      8.10441      2.88799      8.39767        -0.115537     -1.999362      0.974059
      9.40051      5.11397      7.13057         2.015128      0.983684      0.468847
      6.63557      5.21451      7.74965        -1.970026      1.583988      0.600777
     14.66720      0.50162      8.18880         0.881192     -0.036696      0.471592
     12.00290      5.03567      7.02613        -0.556257      0.502087      0.930792
      9.47433      0.75190      9.08197        -0.919665     -0.422205     -0.494611
      4.13723      9.51255      9.41634         0.520378     -2.203024     -1.144799
      5.47931     11.99802      9.27073         2.180743      1.565412     -1.148570
      2.62075     11.97295      9.24370        -2.138060      1.594288     -0.837889
     10.54879      7.42803      7.48948         0.057844     -1.144981      0.434272
      8.08540     12.02194      9.47578        -0.044303      0.671358     -1.197429
      5.52373      7.38722      8.69618        -0.501263     -0.343073     -0.341583
     -0.01665      4.51401      7.56811        -0.167348     -0.472600      0.310405
      1.35299      2.14734      7.49718        -3.271773     -2.038079      1.699138
      5.38538     -0.04989      9.25816         3.225180     -1.872486     -2.109742
      5.38795      4.66851      7.00013        -0.597956      3.027769      3.094319
      2.63911      4.81775      6.95431        -0.066173      2.477771      3.344297
      6.70100      2.28578      8.75345         3.220360     -2.885593     -0.604553
     -5.38562     13.37148      7.94444        -3.304598     -1.105042      2.847669
      0.01952      0.02481      8.57406        -0.075133      0.090068     -0.179189
     -4.02726     11.23497      8.87713        -0.264835     -0.153118     -0.528970
     -3.02904      8.72433      9.18213        -2.081675     -1.666218     -3.539936
      1.41526      6.58948      8.72560         2.834179     -0.237851     -1.328022
      1.40499     11.15946      8.69380        -0.487130      3.707857      1.596286
     -1.31023     11.17731      8.51372         0.388265      3.738566      1.621688
      2.81031      8.68106      9.65272         2.505034     -1.834220     -3.111695
     -1.60722      6.52999      8.61363        -2.532514     -0.064356     -2.003191
     11.88990      6.50965      7.75881         1.196817      0.614785      0.407040
      8.06592      4.33135      7.64274         0.166122      0.214502      0.628223
      9.48553      2.26472      8.78975        -3.333897     -2.648669     -0.425864
      5.36493     13.19652      8.31319         3.471280     -0.973394      2.638710
     -2.61876      4.72004      6.76378        -0.131841      2.699221      3.345924
     10.68519      4.29541      6.77641         0.743756      4.066144      2.058595
     14.65250      1.96475      7.74389         3.401537     -2.278015      0.962885
     10.69882     -0.07685      9.55958        -2.917543     -1.880085     -2.402598
      8.07587     -0.05902      8.84319        -0.000302     -0.352140      0.364918
      4.04937     11.14314      9.46768         0.283075     -0.272616     -0.746911
      5.50171      8.87922      9.08950        -3.626939     -2.074667     -0.206953
      9.29426      6.68957      7.05861         4.017947     -1.140907      2.153967
     -6.59443     11.56858      9.71960        -0.603089      2.992104     -3.066077
      6.73586     11.47331     10.02188         0.179261      2.361009     -3.606228
     -5.36976      9.18711      7.73387         3.020618     -2.353909      1.934096
      6.77491      6.51718      8.59110        -3.919097     -0.691352     -2.101820
      4.09099      6.69570      8.30122        -0.894477      0.595885      0.740655
     -0.15537      7.97984      9.87824         0.114555     -1.387632     -1.837379
     -0.15537      7.97984     16.81504        -3.180918     -7.192059      8.371603
     -0.52775      7.13786      0.39563         3.180735      7.192920     -8.371505
 -----------------------------------------------------------------------------------
    total drift:                               -0.001266      0.004870     -0.008838


--------------------------------------------------------------------------------------------------------



  FREE ENERGIE OF THE ION-ELECTRON SYSTEM (eV)
  ---------------------------------------------------
  free  energy   TOTEN  =      -436.11964537 eV

  energy  without entropy=     -436.11964537  energy(sigma->0) =     -436.11964537



--------------------------------------------------------------------------------------------------------


    POTLOK:  cpu time    0.3010: real time    0.3022


--------------------------------------------------------------------------------------------------------


     LOOP+:  cpu time  487.3546: real time  487.4918
    4ORBIT:  cpu time    0.0000: real time    0.0000



 total charge     

# of ion       s       p       d       tot
------------------------------------------
    1        0.803   1.346   0.000   2.149
    2        0.797   1.336   0.000   2.132
    3        0.798   1.340   0.000   2.138
    4        0.818   1.344   0.000   2.162
    5        0.813   1.344   0.000   2.157
    6        0.818   1.351   0.000   2.169
    7        0.803   1.342   0.000   2.145
    8        0.804   1.337   0.000   2.142
    9        0.807   1.340   0.000   2.147
   10        0.812   1.366   0.000   2.178
   11        0.817   1.348   0.000   2.165
   12        0.813   1.373   0.000   2.185
   13        0.805   1.337   0.000   2.142
   14        0.801   1.346   0.000   2.147
   15        0.799   1.345   0.000   2.144
   16        0.817   1.354   0.000   2.172
   17        0.812   1.352   0.000   2.164
   18        0.817   1.342   0.000   2.159
   19        0.804   1.339   0.000   2.144
   20        0.807   1.338   0.000   2.145
   21        0.805   1.332   0.000   2.137
   22        0.818   1.344   0.000   2.162
   23        0.820   1.335   0.000   2.155
   24        0.816   1.356   0.000   2.172
   25        1.184   2.341   0.000   3.525
   26        1.283   2.264   0.000   3.547
   27        1.281   2.264   0.000   3.544
   28        1.287   2.241   0.000   3.528
   29        1.281   2.257   0.000   3.538
   30        1.282   2.260   0.000   3.542
   31        1.286   2.261   0.000   3.547
   32        1.217   2.355   0.000   3.573
   33        1.187   2.353   0.000   3.540
   34        1.273   2.282   0.000   3.555
   35        1.246   2.294   0.000   3.540
   36        1.281   2.261   0.000   3.542
   37        1.280   2.262   0.000   3.542
   38        1.274   2.274   0.000   3.548
   39        1.246   2.298   0.000   3.544
   40        1.213   2.370   0.000   3.583
   41        1.189   2.339   0.000   3.528
   42        1.284   2.251   0.000   3.535
   43        1.284   2.266   0.000   3.550
   44        1.281   2.258   0.000   3.539
   45        1.285   2.246   0.000   3.531
   46        1.282   2.268   0.000   3.550
   47        1.282   2.257   0.000   3.539
   48        1.215   2.357   0.000   3.573
   49        1.193   2.327   0.000   3.520
   50        1.280   2.269   0.000   3.548
   51        1.283   2.259   0.000   3.542
   52        1.288   2.244   0.000   3.532
   53        1.287   2.247   0.000   3.534
   54        1.282   2.254   0.000   3.536
   55        1.287   2.255   0.000   3.542
   56        1.213   2.365   0.000   3.579
   57        1.366   0.532   9.985  11.883
   58        1.023   1.113   0.000   2.136
   59        1.617   3.286   0.000   4.903
--------------------------------------------------
tot         63.744 110.316   9.985 184.045



 magnetization (x)

# of ion       s       p       d       tot
------------------------------------------
    1       -0.000   0.000   0.000   0.000
    2        0.000   0.001   0.000   0.001
    3       -0.000  -0.001   0.000  -0.001
    4       -0.000  -0.000   0.000  -0.000
    5        0.000   0.001   0.000   0.001
    6       -0.000  -0.000   0.000  -0.000
    7       -0.000  -0.000   0.000  -0.000
    8       -0.000  -0.000   0.000  -0.000
    9       -0.000  -0.000   0.000  -0.000
   10        0.000  -0.000   0.000  -0.000
   11       -0.000   0.000   0.000   0.000
   12        0.000   0.000   0.000   0.000
   13       -0.000  -0.000   0.000  -0.000
   14       -0.000  -0.001   0.000  -0.001
   15        0.000   0.001   0.000   0.001
   16        0.000   0.000   0.000   0.000
   17       -0.000  -0.000   0.000  -0.001
   18       -0.000  -0.000   0.000  -0.000
   19        0.000   0.000   0.000   0.000
   20        0.000   0.000   0.000   0.000
   21        0.000   0.000   0.000   0.000
   22       -0.000  -0.000   0.000  -0.000
   23        0.000   0.000   0.000   0.000
   24        0.000   0.000   0.000   0.001
   25       -0.000  -0.000   0.000  -0.000
   26       -0.000   0.000   0.000   0.000
   27       -0.000   0.000   0.000   0.000
   28       -0.000  -0.000   0.000  -0.000
   29       -0.000  -0.000   0.000  -0.000
   30       -0.000   0.000   0.000   0.000
   31       -0.000   0.000   0.000   0.000
   32       -0.000   0.000   0.000  -0.000
   33       -0.000  -0.000   0.000  -0.000
   34       -0.000  -0.000   0.000  -0.000
   35        0.000   0.000   0.000   0.000
   36       -0.000   0.000   0.000   0.000
   37       -0.000  -0.000   0.000  -0.000
   38        0.000   0.000   0.000   0.000
   39        0.000   0.000   0.000   0.000
   40        0.000  -0.000   0.000  -0.000
   41       -0.000  -0.000   0.000  -0.000
   42       -0.000   0.000   0.000   0.000
   43        0.000  -0.000   0.000  -0.000
   44       -0.000   0.000   0.000   0.000
   45       -0.000   0.000   0.000   0.000
   46       -0.000   0.000   0.000   0.000
   47        0.000   0.000   0.000   0.000
   48       -0.000  -0.000   0.000  -0.000
   49        0.000  -0.000   0.000  -0.000
   50        0.000  -0.000   0.000  -0.000
   51       -0.000   0.000   0.000   0.000
   52       -0.000  -0.000   0.000  -0.000
   53        0.000   0.000   0.000   0.000
   54        0.000   0.000   0.000   0.000
   55        0.000  -0.000   0.000  -0.000
   56        0.000   0.001   0.000   0.001
   57       -0.000  -0.001  -0.000  -0.001
   58        0.000   0.000   0.000   0.000
   59       -0.000  -0.000   0.000  -0.000
--------------------------------------------------
tot          0.000   0.000  -0.000   0.001

 BZINTS: Fermi energy: -3.884971;280.000000 electrons
         Band energy:***********;  BLOECHL correction:  0.000000

 total amount of memory used by VASP MPI-rank0   128048. kBytes
=======================================================================

   base      :      30000. kBytes
   nonl-proj :      29826. kBytes
   fftplans  :       5599. kBytes
   grid      :      16950. kBytes
   one-center:        155. kBytes
   wavefun   :      45518. kBytes

  
  
 General timing and accounting informations for this job:
 ========================================================
  
                  Total CPU time used (sec):      505.216
                            User time (sec):      504.308
                          System time (sec):        0.908
                         Elapsed time (sec):      505.682
  
                   Maximum memory used (kb):      192292.
                   Average memory used (kb):           0.
  
                          Minor page faults:        94442
                          Major page faults:            0
                 Voluntary context switches:          738
