 vasp.5.4.4.18Apr17-6-g9f103f2a35 (build Jan 14 2022 15:04:31) complex          
  
 executed on             LinuxIFC date 2023.04.05  13:01:15
 running on   48 total cores
 distrk:  each k-point on   48 cores,    1 groups
 distr:  one band on NCORES_PER_BAND=  12 cores,    4 groups


--------------------------------------------------------------------------------------------------------


 INCAR:
 POTCAR:    PAW_PBE C 08Apr2002                   
 POTCAR:    PAW_PBE N 08Apr2002                   
 POTCAR:    PAW_PBE Ge_d 03Jul2007                
 POTCAR:    PAW_PBE C 08Apr2002                   
   SHA256 =  253f7b50bb8d59471dbedb8285d89021f4a42ed1a2c5d38a03a736e69125dd95 C/
   COPYR  = (c) Copyright 08Apr2002 Georg Kresse                                
   COPYR  = This file is part of the software VASP. Any use, copying, and all ot
   COPYR  = If you do not have a valid VASP license, you may not use, copy or di
   VRHFIN =C: s2p2                                                              
   LEXCH  = PE                                                                  
   EATOM  =   147.1560 eV,   10.8157 Ry                                         
                                                                                
   TITEL  = PAW_PBE C 08Apr2002                                                 
   LULTRA =        F    use ultrasoft PP ?                                      
   IUNSCR =        1    unscreen: 0-lin 1-nonlin 2-no                           
   RPACOR =    1.200    partial core radius                                     
   POMASS =   12.011; ZVAL   =    4.000    mass and valenz                      
   RCORE  =    1.500    outmost cutoff radius                                   
   RWIGS  =    1.630; RWIGS  =    0.863    wigner-seitz radius (au A)           
   ENMAX  =  400.000; ENMIN  =  300.000 eV                                      
   ICORE  =        2    local potential                                         
   LCOR   =        T    correct aug charges                                     
   LPAW   =        T    paw PP                                                  
   EAUG   =  644.873                                                            
   DEXC   =    0.000                                                            
   RMAX   =    1.529    core radius for proj-oper                               
   RAUG   =    1.300    factor for augmentation sphere                          
   RDEP   =    1.501    radius for radial grids                                 
   RDEPT  =    1.300    core radius for aug-charge                              
                                                                                
   Atomic configuration                                                         
    4 entries                                                                   
     n  l   j            E        occ.                                          
     1  0  0.50      -273.3789   2.0000                                         
     2  0  0.50       -13.7508   2.0000                                         
     2  1  0.50        -5.2854   2.0000                                         
     3  2  1.50        -5.4423   0.0000                                         
   Description                                                                  
     l       E           TYP  RCUT    TYP  RCUT                                 
     0    -13.7508458     23  1.200                                             
     0     -8.2022199     23  1.200                                             
     1     -5.2854383     23  1.500                                             
     1     34.0145650     23  1.500                                             
     2     -5.4423304      7  1.500                                             
  local pseudopotential read in
  partial core-charges read in
  partial kinetic energy density read in
  atomic valenz-charges read in
  non local Contribution for L=           0  read in
    real space projection operators read in
  non local Contribution for L=           0  read in
    real space projection operators read in
  non local Contribution for L=           1  read in
    real space projection operators read in
  non local Contribution for L=           1  read in
    real space projection operators read in
    PAW grid and wavefunctions read in
 
   number of l-projection  operators is LMAX  =           4
   number of lm-projection operators is LMMAX =           8
 
 POTCAR:    PAW_PBE N 08Apr2002                   
   SHA256 =  e053789ff3a61a86a1b75d8a110fcc91f86041011e7b0817c7c99e4e8a6349d7 N/
   COPYR  = (c) Copyright 08Apr2002 Georg Kresse                                
   COPYR  = This file is part of the software VASP. Any use, copying, and all ot
   COPYR  = If you do not have a valid VASP license, you may not use, copy or di
   VRHFIN =N: s2p3                                                              
   LEXCH  = PE                                                                  
   EATOM  =   264.5486 eV,   19.4438 Ry                                         
                                                                                
   TITEL  = PAW_PBE N 08Apr2002                                                 
   LULTRA =        F    use ultrasoft PP ?                                      
   IUNSCR =        1    unscreen: 0-lin 1-nonlin 2-no                           
   RPACOR =    1.200    partial core radius                                     
   POMASS =   14.001; ZVAL   =    5.000    mass and valenz                      
   RCORE  =    1.500    outmost cutoff radius                                   
   RWIGS  =    1.400; RWIGS  =    0.741    wigner-seitz radius (au A)           
   ENMAX  =  400.000; ENMIN  =  300.000 eV                                      
   ICORE  =        2    local potential                                         
   LCOR   =        T    correct aug charges                                     
   LPAW   =        T    paw PP                                                  
   EAUG   =  627.112                                                            
   DEXC   =    0.000                                                            
   RMAX   =    1.529    core radius for proj-oper                               
   RAUG   =    1.300    factor for augmentation sphere                          
   RDEP   =    1.514    radius for radial grids                                 
   RDEPT  =    1.338    core radius for aug-charge                              
                                                                                
   Atomic configuration                                                         
    4 entries                                                                   
     n  l   j            E        occ.                                          
     1  0  0.50      -384.7179   2.0000                                         
     2  0  0.50       -18.5828   2.0000                                         
     2  1  0.50        -7.0898   3.0000                                         
     3  2  1.50        -6.8029   0.0000                                         
   Description                                                                  
     l       E           TYP  RCUT    TYP  RCUT                                 
     0    -18.5828119     23  1.200                                             
     0    -13.5018863     23  1.200                                             
     1     -7.0897853     23  1.500                                             
     1      9.5240782     23  1.500                                             
     2     -6.8029130      7  1.500                                             
  local pseudopotential read in
  partial core-charges read in
  partial kinetic energy density read in
  atomic valenz-charges read in
  non local Contribution for L=           0  read in
    real space projection operators read in
  non local Contribution for L=           0  read in
    real space projection operators read in
  non local Contribution for L=           1  read in
    real space projection operators read in
  non local Contribution for L=           1  read in
    real space projection operators read in
    PAW grid and wavefunctions read in
 
   number of l-projection  operators is LMAX  =           4
   number of lm-projection operators is LMMAX =           8
 
 POTCAR:    PAW_PBE Ge_d 03Jul2007                
   SHA256 =  944b26c40d2d7c4f4eb1ff3a2e8dbfdd7129146276cd341854bfd5c0e57780ed Ge
   COPYR  = (c) Copyright 03Jul2007 Georg Kresse                                
   COPYR  = This file is part of the software VASP. Any use, copying, and all ot
   COPYR  = If you do not have a valid VASP license, you may not use, copy or di
   VRHFIN =Ge: 3d4s4p                                                           
   LEXCH  = PE                                                                  
   EATOM  =  2596.2402 eV,  190.8183 Ry                                         
                                                                                
   TITEL  = PAW_PBE Ge_d 03Jul2007                                              
   LULTRA =        F    use ultrasoft PP ?                                      
   IUNSCR =        1    unscreen: 0-lin 1-nonlin 2-no                           
   RPACOR =    2.000    partial core radius                                     
   POMASS =   72.610; ZVAL   =   14.000    mass and valenz                      
   RCORE  =    2.300    outmost cutoff radius                                   
   RWIGS  =    2.300; RWIGS  =    1.217    wigner-seitz radius (au A)           
   ENMAX  =  310.294; ENMIN  =  232.720 eV                                      
   ICORE  =        3    local potential                                         
   LCOR   =        T    correct aug charges                                     
   LPAW   =        T    paw PP                                                  
   EAUG   =  531.356                                                            
   DEXC   =    0.000                                                            
   RMAX   =    2.342    core radius for proj-oper                               
   RAUG   =    1.300    factor for augmentation sphere                          
   RDEP   =    2.318    radius for radial grids                                 
   RDEPT  =    1.783    core radius for aug-charge                              
                                                                                
   Atomic configuration                                                         
    9 entries                                                                   
     n  l   j            E        occ.                                          
     1  0  0.50    -10959.8463   2.0000                                         
     2  0  0.50     -1371.6056   2.0000                                         
     2  1  1.50     -1198.4791   6.0000                                         
     3  0  0.50      -168.4733   2.0000                                         
     3  1  1.50      -115.6019   6.0000                                         
     3  2  2.50       -29.3106  10.0000                                         
     4  0  0.50       -11.7309   2.0000                                         
     4  1  0.50        -3.8952   2.0000                                         
     4  3  2.50        -4.0817   0.0000                                         
   Description                                                                  
     l       E           TYP  RCUT    TYP  RCUT                                 
     2    -29.3105938     23  2.200                                             
     2    -13.6058260     23  2.200                                             
     0    -11.7309493     23  2.300                                             
     0     -7.4578696     23  2.300                                             
     1     -3.8952261     23  2.300                                             
     1      6.1178114     23  2.300                                             
     3     -1.3605826     23  2.300                                             
  local pseudopotential read in
  partial core-charges read in
  partial kinetic energy density read in
  atomic valenz-charges read in
  non local Contribution for L=           2  read in
    real space projection operators read in
  non local Contribution for L=           2  read in
    real space projection operators read in
  non local Contribution for L=           0  read in
    real space projection operators read in
  non local Contribution for L=           0  read in
    real space projection operators read in
  non local Contribution for L=           1  read in
    real space projection operators read in
  non local Contribution for L=           1  read in
    real space projection operators read in
    PAW grid and wavefunctions read in
 
   number of l-projection  operators is LMAX  =           6
   number of lm-projection operators is LMMAX =          18
 

 ----------------------------------------------------------------------------- 
|                                                                             |
|  ADVICE TO THIS USER RUNNING 'VASP/VAMP'   (HEAR YOUR MASTER'S VOICE ...):  |
|                                                                             |
|      You have a (more or less) 'large supercell' and for larger cells       |
|      it might be more efficient to use real space projection opertators     |
|      So try LREAL= Auto  in the INCAR   file.                               |
|      Mind:          For very  accurate calculation you might also keep the  |
|      reciprocal projection scheme          (i.e. LREAL=.FALSE.)             |
|                                                                             |
 ----------------------------------------------------------------------------- 

  PAW_PBE C 08Apr2002                   :
 energy of atom  1       EATOM= -147.1560
 kinetic energy error for atom=    0.0132 (will be added to EATOM!!)
  PAW_PBE N 08Apr2002                   :
 energy of atom  2       EATOM= -264.5486
 kinetic energy error for atom=    0.0298 (will be added to EATOM!!)
  PAW_PBE Ge_d 03Jul2007                :
 energy of atom  3       EATOM=-2596.2402
 kinetic energy error for atom=    0.0090 (will be added to EATOM!!)
 
 
 POSCAR: POSCAR-c3n4                             
  positions in cartesian coordinates
  No initial velocities read in
 exchange correlation table for  LEXCH =        8
   RHO(1)=    0.500       N(1)  =     2000
   RHO(2)=  100.500       N(2)  =     4000

 VTST: version 3.2, (02/03/18)

 CHAIN: initializing optimizer
 
 OPT: Using VASP Dynamics algorithm
 CHAIN: Read ICHAIN            0
 
 POSCAR: POSCAR-c3n4                             
  positions in cartesian coordinates
  No initial velocities read in
 


--------------------------------------------------------------------------------------------------------


 ion  position               nearest neighbor table
   1  0.106  0.214  0.426-  26 1.61  46 1.61  25 1.70
   2  0.288  0.399  0.433-  29 1.58  35 1.66  25 1.72
   3  0.104  0.392  0.427-  44 1.58  39 1.66  25 1.71
   4  0.447  0.064  0.506-  30 1.59  27 1.60  48 1.69
   5  0.453  0.401  0.413-  28 1.60  29 1.61  56 1.71
   6  0.112  0.053  0.449-  26 1.59  31 1.60  32 1.68
   7  0.096  0.712  0.484-  54 1.60  34 1.63  33 1.69
   8  0.284  0.890  0.501-  27 1.60  37 1.62  33 1.70
   9  0.109  0.895  0.498-  31 1.59  52 1.61  33 1.72
  10  0.448  0.548  0.502-  38 1.59  56 1.63  35 1.63
  11  0.445  0.885  0.489-  37 1.60  36 1.61  48 1.66
  12  0.087  0.542  0.481-  34 1.59  40 1.61  39 1.63
  13  0.616  0.223  0.473-  42 1.62  30 1.62  41 1.69
  14  0.780  0.390  0.400-  45 1.62  51 1.64  41 1.69
  15  0.610  0.394  0.435-  28 1.61  55 1.61  41 1.74
  16  0.940  0.052  0.461-  46 1.58  43 1.60  32 1.68
  17  0.941  0.387  0.394-  45 1.58  44 1.61  40 1.71
  18  0.623  0.066  0.512-  42 1.59  47 1.61  48 1.69
  19  0.613  0.711  0.531-  50 1.59  38 1.64  49 1.69
  20  0.790  0.897  0.523-  43 1.59  53 1.61  49 1.74
  21  0.609  0.892  0.521-  47 1.60  36 1.62  49 1.72
  22  0.938  0.563  0.421-  51 1.57  54 1.62  40 1.70
  23  0.954  0.902  0.535-  52 1.61  53 1.61  32 1.68
  24  0.621  0.555  0.490-  55 1.58  50 1.60  56 1.70
  25  0.167  0.335  0.425-   1 1.70   3 1.71   2 1.72
  26  0.165  0.161  0.421-   6 1.59   1 1.61
  27  0.336  0.002  0.522-   8 1.60   4 1.60
  28  0.512  0.352  0.392-   5 1.60  15 1.61
  29  0.345  0.361  0.390-   2 1.58   5 1.61
  30  0.506  0.177  0.493-   4 1.59  13 1.62
  31  0.159  0.988  0.447-   9 1.59   6 1.60
  32  0.002  0.002  0.483-  16 1.68  23 1.68   6 1.68
  33  0.165  0.831  0.500-   7 1.69   8 1.70   9 1.72
  34  0.134  0.645  0.518-  12 1.59   7 1.63
  35  0.334  0.491  0.492-  10 1.63   2 1.66
  36  0.503  0.831  0.490-  11 1.61  21 1.62
  37  0.333  0.829  0.479-  11 1.60   8 1.62
  38  0.499  0.648  0.545-  10 1.59  19 1.64
  39  0.142  0.484  0.485-  12 1.63   3 1.66
  40  0.988  0.496  0.436-  12 1.61  22 1.70  17 1.71
  41  0.667  0.330  0.429-  13 1.69  14 1.69  15 1.74
  42  0.680  0.178  0.495-  18 1.59  13 1.62
  43  0.827  0.986  0.468-  20 1.59  16 1.60
  44  0.011  0.348  0.379-   3 1.58  17 1.61
  45  0.830  0.330  0.380-  17 1.58  14 1.62
  46  0.993  0.161  0.435-  16 1.58   1 1.61
  47  0.669  0.005  0.539-  21 1.60  18 1.61
  48  0.505  0.004  0.498-  11 1.66  18 1.69   4 1.69
  49  0.668  0.832  0.534-  19 1.69  21 1.72  20 1.74
  50  0.675  0.666  0.512-  19 1.59  24 1.60
  51  0.832  0.507  0.396-  22 1.57  14 1.64
  52  0.016  0.853  0.549-  23 1.61   9 1.61
  53  0.849  0.860  0.566-  20 1.61  23 1.61
  54  0.004  0.677  0.435-   7 1.60  22 1.62
  55  0.668  0.491  0.484-  24 1.58  15 1.61
  56  0.506  0.502  0.467-  10 1.63  24 1.70   5 1.71
  57  0.287  0.593  0.558-
 

IMPORTANT INFORMATION: All symmetrisations will be switched off!
NOSYMM: (Re-)initialisation of all symmetry stuff for point group C_1.

 
 
 KPOINTS: K-Points                                

Automatic generation of k-mesh.
Space group operators:
 irot       det(A)        alpha          n_x          n_y          n_z        tau_x        tau_y        tau_z
    1     1.000000     0.000000     1.000000     0.000000     0.000000     0.000000     0.000000     0.000000
 
 Subroutine IBZKPT returns following result:
 ===========================================
 
 Found      5 irreducible k-points:
 
 Following reciprocal coordinates:
            Coordinates               Weight
  0.000000  0.000000  0.000000      1.000000
  0.333333  0.000000  0.000000      2.000000
 -0.000000  0.333333  0.000000      2.000000
  0.333333  0.333333  0.000000      2.000000
 -0.333333  0.333333  0.000000      2.000000
 
 Following cartesian coordinates:
            Coordinates               Weight
  0.000000  0.000000  0.000000      1.000000
  0.024277  0.014368  0.000000      2.000000
  0.000396  0.028736  0.000000      2.000000
  0.024673  0.043104  0.000000      2.000000
 -0.023881  0.014368  0.000000      2.000000
 
 TETIRR: Found     24 inequivalent tetrahedra from       54


--------------------------------------------------------------------------------------------------------




 Dimension of arrays:
   k-points           NKPTS =      5   k-points in BZ     NKDIM =      5   number of bands    NBANDS=    168
   number of dos      NEDOS =   4000   number of ions     NIONS =     57
   non local maximal  LDIM  =      6   non local SUM 2l+1 LMDIM =     18
   total plane-waves  NPLWV = 725760
   max r-space proj   IRMAX =      1   max aug-charges    IRDMAX=   6063
   dimension x,y,z NGX =    90 NGY =   84 NGZ =   96
   dimension x,y,z NGXF=   180 NGYF=  168 NGZF=  192
   support grid    NGXF=   180 NGYF=  168 NGZF=  192
   ions per type =              24  32   1
   NGX,Y,Z   is equivalent  to a cutoff of   9.01,  8.56,  8.87 a.u.
   NGXF,Y,Z  is equivalent  to a cutoff of  18.01, 17.13, 17.73 a.u.

 SYSTEM =  unknown system                          
 POSCAR =  POSCAR-c3n4                             

 Startparameter for this run:
   NWRITE =      2    write-flag & timer
   PREC   = normal    normal or accurate (medium, high low for compatibility)
   ISTART =      0    job   : 0-new  1-cont  2-samecut
   ICHARG =      2    charge: 1-file 2-atom 10-const
   ISPIN  =      2    spin polarized calculation?
   LNONCOLLINEAR =      F non collinear calculations
   LSORBIT =      F    spin-orbit coupling
   INIWAV =      1    electr: 0-lowe 1-rand  2-diag
   LASPH  =      F    aspherical Exc in radial PAW
   METAGGA=      F    non-selfconsistent MetaGGA calc.

 Electronic Relaxation 1
   ENCUT  =  440.0 eV  32.34 Ry    5.69 a.u.  28.42 27.89 30.79*2*pi/ulx,y,z
   ENINI  =  440.0     initial cutoff
   ENAUG  =  644.9 eV  augmentation charge cutoff
   NELM   =    100;   NELMIN=  2; NELMDL= -5     # of ELM steps 
   EDIFF  = 0.1E-03   stopping-criterion for ELM
   LREAL  =      F    real-space projection
   NLSPLINE    = F    spline interpolate recip. space projectors
   LCOMPAT=      F    compatible to vasp.4.4
   GGA_COMPAT  = T    GGA compatible to vasp.4.4-vasp.4.6
   LMAXPAW     = -100 max onsite density
   LMAXMIX     =    2 max onsite mixed and CHGCAR
   VOSKOWN=      0    Vosko Wilk Nusair interpolation
   ROPT   =    0.00000   0.00000   0.00000
 Ionic relaxation
   EDIFFG = -.1E-01   stopping-criterion for IOM
   NSW    =      0    number of steps for IOM
   NBLOCK =      1;   KBLOCK =      1    inner block; outer block 
   IBRION =     -1    ionic relax: 0-MD 1-quasi-New 2-CG
   NFREE  =      0    steps in history (QN), initial steepest desc. (CG)
   ISIF   =      2    stress and relaxation
   IWAVPR =     10    prediction:  0-non 1-charg 2-wave 3-comb
   ISYM   =      0    0-nonsym 1-usesym 2-fastsym
   LCORR  =      T    Harris-Foulkes like correction to forces

   POTIM  = 0.5000    time-step for ionic-motion
   TEIN   =    0.0    initial temperature
   TEBEG  =    0.0;   TEEND  =   0.0 temperature during run
   SMASS  =  -3.00    Nose mass-parameter (am)
   estimated Nose-frequenzy (Omega)   =  0.10E-29 period in steps =****** mass=  -0.631E-26a.u.
   SCALEE = 1.0000    scale energy and forces
   NPACO  =    256;   APACO  = 16.0  distance and # of slots for P.C.
   PSTRESS=    0.0 pullay stress

  Mass of Ions in am
   POMASS =  12.01 14.00 72.61
  Ionic Valenz
   ZVAL   =   4.00  5.00 14.00
  Atomic Wigner-Seitz radii
   RWIGS  =  -1.00 -1.00 -1.00
  virtual crystal weights 
   VCA    =   1.00  1.00  1.00
   NELECT =     270.0000    total number of electrons
   NUPDOWN=      -1.0000    fix difference up-down

 DOS related values:
   EMIN   = -14.00;   EMAX   =  6.00  energy-range for DOS
   EFERMI =   0.00
   ISMEAR =    -5;   SIGMA  =   0.20  broadening in eV -4-tet -1-fermi 0-gaus

 Electronic relaxation 2 (details)
   IALGO  =     38    algorithm
   LDIAG  =      T    sub-space diagonalisation (order eigenvalues)
   LSUBROT=      F    optimize rotation matrix (better conditioning)
   TURBO    =      0    0=normal 1=particle mesh
   IRESTART =      0    0=no restart 2=restart with 2 vectors
   NREBOOT  =      0    no. of reboots
   NMIN     =      0    reboot dimension
   EREF     =   0.00    reference energy to select bands
   IMIX   =      4    mixing-type and parameters
     AMIX     =   0.25;   BMIX     =  0.00
     AMIX_MAG =   1.00;   BMIX_MAG =  0.00
     AMIN     =   0.10
     WC   =   100.;   INIMIX=   1;  MIXPRE=   1;  MAXMIX= -45

 Intra band minimization:
   WEIMIN = 0.0000     energy-eigenvalue tresh-hold
   EBREAK =  0.15E-06  absolut break condition
   DEPER  =   0.30     relativ break condition  

   TIME   =   0.40     timestep for ELM

  volume/ion in A,a.u.               =      73.02       492.78
  Fermi-wavevector in a.u.,A,eV,Ry     =   0.657788  1.243040  5.887043  0.432685
  Thomas-Fermi vector in A             =   1.729406
 
 Write flags
   LWAVE        =      F    write WAVECAR
   LDOWNSAMPLE  =      F    k-point downsampling of WAVECAR
   LCHARG       =      F    write CHGCAR
   LVTOT        =      F    write LOCPOT, total local potential
   LVHAR        =      F    write LOCPOT, Hartree potential only
   LELF         =      F    write electronic localiz. function (ELF)
   LORBIT       =     11    0 simple, 1 ext, 2 COOP (PROOUT), +10 PAW based schemes


 Dipole corrections
   LMONO  =      F    monopole corrections only (constant potential shift)
   LDIPOL =      F    correct potential (dipole corrections)
   IDIPOL =      0    1-x, 2-y, 3-z, 4-all directions 
   EPSILON=  1.0000000 bulk dielectric constant

 Exchange correlation treatment:
   GGA     =    --    GGA type
   LEXCH   =     8    internal setting for exchange type
   VOSKOWN=      0    Vosko Wilk Nusair interpolation
   LHFCALC =     F    Hartree Fock is set to
   LHFONE  =     F    Hartree Fock one center treatment
   AEXX    =    0.0000 exact exchange contribution

 Linear response parameters
   LEPSILON=     F    determine dielectric tensor
   LRPA    =     F    only Hartree local field effects (RPA)
   LNABLA  =     F    use nabla operator in PAW spheres
   LVEL    =     F    velocity operator in full k-point grid
   LINTERFAST=   F  fast interpolation
   KINTER  =     0    interpolate to denser k-point grid
   CSHIFT  =0.1000    complex shift for real part using Kramers Kronig
   OMEGAMAX=  -1.0    maximum frequency
   DEG_THRESHOLD= 0.2000000E-02 threshold for treating states as degnerate
   RTIME   =   -0.100 relaxation time in fs
  (WPLASMAI=    0.000 imaginary part of plasma frequency in eV, 0.658/RTIME)
   DFIELD  = 0.0000000 0.0000000 0.0000000 field for delta impulse in time
 
 Orbital magnetization related:
   ORBITALMAG=     F  switch on orbital magnetization
   LCHIMAG   =     F  perturbation theory with respect to B field
   DQ        =  0.001000  dq finite difference perturbation B field
   LLRAUG    =     F  two centre corrections for induced B field



--------------------------------------------------------------------------------------------------------


 Static calculation
 charge density and potential will be updated during run
 spin polarized calculation
 Variant of blocked Davidson
 Davidson routine will perform the subspace rotation
 perform sub-space diagonalisation
    after iterative eigenvector-optimisation
 modified Broyden-mixing scheme, WC =      100.0
 initial mixing is a Kerker type mixing with AMIX =  0.2500 and BMIX =      0.0001
 Hartree-type preconditioning will be used
 using additional bands           33
 reciprocal scheme for non local part
 use partial core corrections
 calculate Harris-corrections to forces 
   (improved forces if not selfconsistent)
 use gradient corrections 
 use of overlap-Matrix (Vanderbilt PP)
 Fermi weights with tetrahedron method with Bloechl corrections


--------------------------------------------------------------------------------------------------------


  energy-cutoff  :      440.00
  volume of cell :     4162.27
      direct lattice vectors                 reciprocal lattice vectors
    16.612109082 -0.228888569  0.000000000     0.060691974  0.035920095  0.000000000
    -8.306054541 14.034229193  0.000000000     0.000989844  0.071840191  0.000000000
     0.000000000  0.000000000 18.000000000     0.000000000  0.000000000  0.055555556

  length of vectors
    16.613685868 16.307977528 18.000000000     0.070524953  0.071847009  0.055555556


 
 k-points in units of 2pi/SCALE and weight: K-Points                                
   0.00000000  0.00000000  0.00000000       0.111
   0.02427679  0.01436804  0.00000000       0.222
   0.00039594  0.02873608  0.00000000       0.222
   0.02467273  0.04310411  0.00000000       0.222
  -0.02388085  0.01436804  0.00000000       0.222
 
 k-points in reciprocal lattice and weights: K-Points                                
   0.00000000  0.00000000  0.00000000       0.111
   0.33333333  0.00000000  0.00000000       0.222
  -0.00000000  0.33333333  0.00000000       0.222
   0.33333333  0.33333333  0.00000000       0.222
  -0.33333333  0.33333333  0.00000000       0.222
 
 position of ions in fractional coordinates (direct lattice) 
   0.10567936  0.21351909  0.42646415
   0.28750403  0.39866334  0.43315811
   0.10379301  0.39177313  0.42728737
   0.44732828  0.06383887  0.50569377
   0.45258916  0.40124889  0.41252546
   0.11203481  0.05273921  0.44868132
   0.09638015  0.71191070  0.48390127
   0.28433946  0.89006364  0.50120122
   0.10941441  0.89537413  0.49812536
   0.44792521  0.54827090  0.50190381
   0.44544784  0.88520183  0.48897001
   0.08690842  0.54210436  0.48067119
   0.61614813  0.22292684  0.47270451
   0.78023735  0.38968276  0.39988272
   0.61037743  0.39432339  0.43546161
   0.93951642  0.05229783  0.46070020
   0.94071854  0.38652888  0.39388003
   0.62278394  0.06558106  0.51203168
   0.61322902  0.71118454  0.53124878
   0.78984871  0.89727295  0.52288011
   0.60944297  0.89248269  0.52132702
   0.93832005  0.56283419  0.42050954
   0.95436023  0.90171878  0.53466451
   0.62130548  0.55465507  0.48986027
   0.16668926  0.33545237  0.42502835
   0.16473950  0.16097029  0.42095206
   0.33626584  0.00180669  0.52215766
   0.51175722  0.35246859  0.39238613
   0.34471728  0.36074551  0.38975287
   0.50565751  0.17673507  0.49315170
   0.15873210  0.98821904  0.44665654
   0.00214731  0.00186372  0.48284181
   0.16462634  0.83083069  0.50025956
   0.13400723  0.64526801  0.51778798
   0.33371346  0.49116238  0.49155062
   0.50288345  0.83078126  0.48972341
   0.33307237  0.82932770  0.47937372
   0.49902190  0.64803204  0.54483375
   0.14173676  0.48364631  0.48511610
   0.98839512  0.49595573  0.43598798
   0.66736443  0.33015381  0.42931770
   0.67970142  0.17802103  0.49523771
   0.82720183  0.98622484  0.46784919
   0.01097216  0.34809993  0.37880244
   0.83047981  0.33016544  0.37952861
   0.99296173  0.16101876  0.43513088
   0.66886761  0.00524437  0.53948092
   0.50484899  0.00388347  0.49830916
   0.66830364  0.83227641  0.53419919
   0.67536455  0.66551462  0.51246466
   0.83211404  0.50666912  0.39574663
   0.01584380  0.85299492  0.54867721
   0.84924332  0.85956436  0.56604968
   0.00424175  0.67726383  0.43455477
   0.66753141  0.49127771  0.48382075
   0.50565566  0.50179634  0.46716125
   0.28676550  0.59288202  0.55779478
 
 position of ions in cartesian coordinates  (Angst):
  -0.01794409  2.97238699  7.67635473
   1.46472881  5.52912628  7.79684604
  -1.52986827  5.47447688  7.69117267
   6.90081707  0.79354096  9.10248778
   4.18566523  5.52762644  7.42545829
   1.42307974  0.71451072  8.07626379
  -4.31209157  9.96905764  8.71022289
  -2.66943905 12.42627505  9.02162201
  -5.61942233 12.54084207  8.96625645
   2.88701451  7.59203452  9.03426854
   0.04729347 12.32116747  8.80146010
  -3.05901632  7.58812455  8.65208136
   8.38387745  2.98757712  8.50868113
   9.72466165  5.29030980  7.19788895
   6.86438479  5.39431646  7.83830903
  15.17296070  0.51891513  8.29260364
  12.41678908  5.20931521  7.08984057
   9.80103488  0.77783144  9.21657019
   4.27988985  9.84056576  9.56247800
   5.66825483 12.41174693  9.41184190
   2.71112316 12.38581203  9.38388640
  10.91254352  7.68417334  7.56917173
   8.36421080 12.43648591  9.62396125
   5.71419919  7.64194670  8.81748480
  -0.01722551  4.66966221  7.65051026
   1.39964260  2.22138691  7.57713706
   5.57107829 -0.05161194  9.39883782
   5.57374351  4.82948956  7.06295042
   2.73010914  4.98388334  7.01555172
   6.93206651  2.36460132  8.87673056
  -5.57132638 13.83256056  8.03981777
   0.02019121  0.02566437  8.69115264
  -4.16613420 11.62238720  9.00467213
  -3.13348856  9.02516639  9.32018358
   1.46406296  6.81670217  8.84791115
   1.45344031 11.54427027  8.81502147
  -1.35540659 11.56273854  8.62872701
   2.90721678  8.98040977  9.80700754
  -1.66264612  6.75516118  8.73208983
  12.29989224  6.73412408  7.84778359
   8.34405516  4.48070219  7.72771863
   9.81262181  2.34281203  8.91427877
   5.54992979 13.65156838  8.42128538
  -2.70906629  4.88280273  6.81844392
  11.05364900  4.44353012  6.83151499
  15.15775790  2.03249658  7.83235576
  11.06774179 -0.07949551  9.71065649
   8.35435021 -0.06105266  8.96956487
   4.18899980 11.52739079  9.61558549
   5.69142879  9.18540150  9.22436385
   9.61474779  6.92024920  7.12343933
  -6.82182346 11.96749977  9.87618983
   6.96813420 11.86894121 10.18889423
  -5.55492596  9.50390497  7.82198587
   7.00852506  6.74191369  8.70877345
   4.23205918  6.92658610  8.40890245
  -0.16073066  8.25500487 10.04030610
 


--------------------------------------------------------------------------------------------------------


 k-point  1 :   0.0000 0.0000 0.0000  plane waves:   87267
 k-point  2 :   0.3333 0.0000 0.0000  plane waves:   87219
 k-point  3 :  -0.0000 0.3333 0.0000  plane waves:   87239
 k-point  4 :   0.3333 0.3333 0.0000  plane waves:   87203
 k-point  5 :  -0.3333 0.3333 0.0000  plane waves:   87233

 maximum and minimum number of plane-waves per node :      7296     7250

 maximum number of plane-waves:     87267
 maximum index in each direction: 
   IXMAX=   28   IYMAX=   27   IZMAX=   30
   IXMIN=  -28   IYMIN=  -28   IZMIN=  -30


 parallel 3D FFT for wavefunctions:
    minimum data exchange during FFTs selected (reduces bandwidth)
 parallel 3D FFT for charge:
    minimum data exchange during FFTs selected (reduces bandwidth)


 total amount of memory used by VASP MPI-rank0   124736. kBytes
=======================================================================

   base      :      30000. kBytes
   nonl-proj :      22376. kBytes
   fftplans  :       6275. kBytes
   grid      :      16633. kBytes
   one-center:        155. kBytes
   wavefun   :      49297. kBytes
 
     INWAV:  cpu time    0.0000: real time    0.0001
 Broyden mixing: mesh for mixing (old mesh)
   NGX = 57   NGY = 55   NGZ = 61
  (NGX  =180   NGY  =168   NGZ  =192)
  gives a total of 191235 points

 initial charge density was supplied:
 charge density of overlapping atoms calculated
 number of electron     270.0000000 magnetization       1.0000000
 keeping initial charge density in first step


--------------------------------------------------------------------------------------------------------


 Maximum index for augmentation-charges          309 (set IRDMAX)


--------------------------------------------------------------------------------------------------------


 First call to EWALD:  gamma=   0.110
 Maximum number of real-space cells 3x 3x 3
 Maximum number of reciprocal cells 3x 3x 3

    FEWALD:  cpu time    0.0057: real time    0.0063


--------------------------------------- Iteration      1(   1)  ---------------------------------------


    POTLOK:  cpu time    0.2091: real time    0.2377
    SETDIJ:  cpu time    0.0091: real time    0.0093
     EDDAV:  cpu time   13.1833: real time   13.2923
 BZINTS: Fermi energy:  6.587774;270.000000 electrons
         Band energy:***********;  BLOECHL correction: -0.004635
       DOS:  cpu time    0.0348: real time    0.0351
    --------------------------------------------
      LOOP:  cpu time   13.4363: real time   13.5744

 eigenvalue-minimisations  :  3920
 total energy-change (2. order) : 0.2281659E+04  (-0.8516577E+04)
 number of electron     270.0000000 magnetization       1.0000000
 augmentation part      270.0000000 magnetization       1.0000000

 Free energy of the ion-electron system (eV)
  ---------------------------------------------------
  alpha Z        PSCENC =        83.49165142
  Ewald energy   TEWEN  =     22819.44547813
  -Hartree energ DENC   =    -34647.00190872
  -exchange      EXHF   =         0.00000000
  -V(xc)+E(xc)   XCENC  =       968.19007398
  PAW double counting   =     10998.91041168   -11485.61342155
  entropy T*S    EENTRO =         0.00000000
  eigenvalues    EBANDS =     -1048.02391722
  atomic energy  EATOM  =     14592.26033195
  Solvation  Ediel_sol  =         0.00000000
  ---------------------------------------------------
  free energy    TOTEN  =      2281.65869966 eV

  energy without entropy =     2281.65869966  energy(sigma->0) =     2281.65869966


--------------------------------------------------------------------------------------------------------




--------------------------------------- Iteration      1(   2)  ---------------------------------------


     EDDAV:  cpu time   16.7753: real time   16.9191
 BZINTS: Fermi energy: -0.580395;270.000000 electrons
         Band energy:***********;  BLOECHL correction:  0.000000
       DOS:  cpu time    0.0037: real time    0.0037
    --------------------------------------------
      LOOP:  cpu time   16.7791: real time   16.9229

 eigenvalue-minimisations  :  4952
 total energy-change (2. order) :-0.2053997E+04  (-0.1954266E+04)
 number of electron     270.0000000 magnetization       1.0000000
 augmentation part      270.0000000 magnetization       1.0000000

 Free energy of the ion-electron system (eV)
  ---------------------------------------------------
  alpha Z        PSCENC =        83.49165142
  Ewald energy   TEWEN  =     22819.44547813
  -Hartree energ DENC   =    -34647.00190872
  -exchange      EXHF   =         0.00000000
  -V(xc)+E(xc)   XCENC  =       968.19007398
  PAW double counting   =     10998.91041168   -11485.61342155
  entropy T*S    EENTRO =         0.00000000
  eigenvalues    EBANDS =     -3102.02099544
  atomic energy  EATOM  =     14592.26033195
  Solvation  Ediel_sol  =         0.00000000
  ---------------------------------------------------
  free energy    TOTEN  =       227.66162145 eV

  energy without entropy =      227.66162145  energy(sigma->0) =      227.66162145


--------------------------------------------------------------------------------------------------------




--------------------------------------- Iteration      1(   3)  ---------------------------------------


     EDDAV:  cpu time   14.6966: real time   14.8442
 BZINTS: Fermi energy: -3.890321;270.000000 electrons
         Band energy:***********;  BLOECHL correction: -0.008615
       DOS:  cpu time    0.0100: real time    0.0100
    --------------------------------------------
      LOOP:  cpu time   14.7066: real time   14.8542

 eigenvalue-minimisations  :  4272
 total energy-change (2. order) :-0.6039430E+03  (-0.5973589E+03)
 number of electron     270.0000000 magnetization       1.0000000
 augmentation part      270.0000000 magnetization       1.0000000

 Free energy of the ion-electron system (eV)
  ---------------------------------------------------
  alpha Z        PSCENC =        83.49165142
  Ewald energy   TEWEN  =     22819.44547813
  -Hartree energ DENC   =    -34647.00190872
  -exchange      EXHF   =         0.00000000
  -V(xc)+E(xc)   XCENC  =       968.19007398
  PAW double counting   =     10998.91041168   -11485.61342155
  entropy T*S    EENTRO =         0.00000000
  eigenvalues    EBANDS =     -3705.96396204
  atomic energy  EATOM  =     14592.26033195
  Solvation  Ediel_sol  =         0.00000000
  ---------------------------------------------------
  free energy    TOTEN  =      -376.28134515 eV

  energy without entropy =     -376.28134515  energy(sigma->0) =     -376.28134515


--------------------------------------------------------------------------------------------------------




--------------------------------------- Iteration      1(   4)  ---------------------------------------


     EDDAV:  cpu time   14.1034: real time   14.2333
 BZINTS: Fermi energy: -4.330151;270.000000 electrons
         Band energy:***********;  BLOECHL correction: -0.000871
       DOS:  cpu time    0.0102: real time    0.0102
    --------------------------------------------
      LOOP:  cpu time   14.1137: real time   14.2435

 eigenvalue-minimisations  :  4000
 total energy-change (2. order) :-0.3591035E+02  (-0.3462675E+02)
 number of electron     270.0000000 magnetization       1.0000000
 augmentation part      270.0000000 magnetization       1.0000000

 Free energy of the ion-electron system (eV)
  ---------------------------------------------------
  alpha Z        PSCENC =        83.49165142
  Ewald energy   TEWEN  =     22819.44547813
  -Hartree energ DENC   =    -34647.00190872
  -exchange      EXHF   =         0.00000000
  -V(xc)+E(xc)   XCENC  =       968.19007398
  PAW double counting   =     10998.91041168   -11485.61342155
  entropy T*S    EENTRO =         0.00000000
  eigenvalues    EBANDS =     -3741.87430979
  atomic energy  EATOM  =     14592.26033195
  Solvation  Ediel_sol  =         0.00000000
  ---------------------------------------------------
  free energy    TOTEN  =      -412.19169290 eV

  energy without entropy =     -412.19169290  energy(sigma->0) =     -412.19169290


--------------------------------------------------------------------------------------------------------




--------------------------------------- Iteration      1(   5)  ---------------------------------------


     EDDAV:  cpu time   16.9343: real time   17.0306
 BZINTS: Fermi energy: -4.369093;270.000000 electrons
         Band energy:***********;  BLOECHL correction: -0.000695
       DOS:  cpu time    0.0097: real time    0.0098
    CHARGE:  cpu time    0.2463: real time    0.2513
    MIXING:  cpu time    0.0426: real time    0.0429
    --------------------------------------------
      LOOP:  cpu time   17.2329: real time   17.3346

 eigenvalue-minimisations  :  5192
 total energy-change (2. order) :-0.2254890E+01  (-0.2215018E+01)
 number of electron     270.0000038 magnetization       0.0045952
 augmentation part       15.8058022 magnetization       0.0012052

 Broyden mixing:
  rms(total) = 0.30795E+01    rms(broyden)= 0.30751E+01
  rms(prec ) = 0.34111E+01
  weight for this iteration     100.00

 Free energy of the ion-electron system (eV)
  ---------------------------------------------------
  alpha Z        PSCENC =        83.49165142
  Ewald energy   TEWEN  =     22819.44547813
  -Hartree energ DENC   =    -34647.00190872
  -exchange      EXHF   =         0.00000000
  -V(xc)+E(xc)   XCENC  =       968.19007398
  PAW double counting   =     10998.91041168   -11485.61342155
  entropy T*S    EENTRO =         0.00000000
  eigenvalues    EBANDS =     -3744.12919980
  atomic energy  EATOM  =     14592.26033195
  Solvation  Ediel_sol  =         0.00000000
  ---------------------------------------------------
  free energy    TOTEN  =      -414.44658292 eV

  energy without entropy =     -414.44658292  energy(sigma->0) =     -414.44658292


--------------------------------------------------------------------------------------------------------




--------------------------------------- Iteration      1(   6)  ---------------------------------------


    POTLOK:  cpu time    0.2064: real time    0.2100
    SETDIJ:  cpu time    0.0093: real time    0.0093
     EDDAV:  cpu time   15.4892: real time   15.5879
 BZINTS: Fermi energy: -4.701425;270.000000 electrons
         Band energy:***********;  BLOECHL correction:  0.000000
       DOS:  cpu time    0.0038: real time    0.0038
    CHARGE:  cpu time    0.2503: real time    0.2531
    MIXING:  cpu time    0.0059: real time    0.0059
    --------------------------------------------
      LOOP:  cpu time   15.9649: real time   16.0701

 eigenvalue-minimisations  :  4704
 total energy-change (2. order) : 0.1645193E+02  (-0.7136441E+01)
 number of electron     270.0000038 magnetization       0.0003156
 augmentation part       14.3106596 magnetization      -0.0064988

 Broyden mixing:
  rms(total) = 0.17055E+01    rms(broyden)= 0.17042E+01
  rms(prec ) = 0.18057E+01
  weight for this iteration     100.00

 eigenvalues of (default mixing * dielectric matrix)
  average eigenvalue GAMMA=   0.9587
  0.9587

 Free energy of the ion-electron system (eV)
  ---------------------------------------------------
  alpha Z        PSCENC =        83.49165142
  Ewald energy   TEWEN  =     22819.44547813
  -Hartree energ DENC   =    -34734.21190138
  -exchange      EXHF   =         0.00000000
  -V(xc)+E(xc)   XCENC  =       975.97921407
  PAW double counting   =     12444.00388570   -12929.50018295
  entropy T*S    EENTRO =         0.00000000
  eigenvalues    EBANDS =     -3649.46312716
  atomic energy  EATOM  =     14592.26033195
  Solvation  Ediel_sol  =         0.00000000
  ---------------------------------------------------
  free energy    TOTEN  =      -397.99465024 eV

  energy without entropy =     -397.99465024  energy(sigma->0) =     -397.99465024


--------------------------------------------------------------------------------------------------------




--------------------------------------- Iteration      1(   7)  ---------------------------------------


    POTLOK:  cpu time    0.2008: real time    0.2059
    SETDIJ:  cpu time    0.0091: real time    0.0092
     EDDAV:  cpu time   14.0364: real time   14.1624
 BZINTS: Fermi energy: -4.736434;270.000000 electrons
         Band energy:***********;  BLOECHL correction:  0.000000
       DOS:  cpu time    0.0039: real time    0.0039
    CHARGE:  cpu time    0.2483: real time    0.2510
    MIXING:  cpu time    0.0055: real time    0.0055
    --------------------------------------------
      LOOP:  cpu time   14.5040: real time   14.6379

 eigenvalue-minimisations  :  4200
 total energy-change (2. order) : 0.2016013E+00  (-0.1064761E+01)
 number of electron     270.0000035 magnetization      -0.0002164
 augmentation part       14.4674906 magnetization      -0.0021343

 Broyden mixing:
  rms(total) = 0.12730E+01    rms(broyden)= 0.12726E+01
  rms(prec ) = 0.13900E+01
  weight for this iteration     100.00

 eigenvalues of (default mixing * dielectric matrix)
  average eigenvalue GAMMA=   1.1095
  0.8625  1.3565

 Free energy of the ion-electron system (eV)
  ---------------------------------------------------
  alpha Z        PSCENC =        83.49165142
  Ewald energy   TEWEN  =     22819.44547813
  -Hartree energ DENC   =    -34772.96144516
  -exchange      EXHF   =         0.00000000
  -V(xc)+E(xc)   XCENC  =       977.17714224
  PAW double counting   =     13436.23658507   -13921.42678649
  entropy T*S    EENTRO =         0.00000000
  eigenvalues    EBANDS =     -3612.01600610
  atomic energy  EATOM  =     14592.26033195
  Solvation  Ediel_sol  =         0.00000000
  ---------------------------------------------------
  free energy    TOTEN  =      -397.79304896 eV

  energy without entropy =     -397.79304896  energy(sigma->0) =     -397.79304896


--------------------------------------------------------------------------------------------------------




--------------------------------------- Iteration      1(   8)  ---------------------------------------


    POTLOK:  cpu time    0.1973: real time    0.1995
    SETDIJ:  cpu time    0.0092: real time    0.0092
     EDDAV:  cpu time   15.7570: real time   15.8431
 BZINTS: Fermi energy: -4.886472;270.000000 electrons
         Band energy:***********;  BLOECHL correction:  0.000000
       DOS:  cpu time    0.0038: real time    0.0040
    CHARGE:  cpu time    0.2815: real time    0.2835
    MIXING:  cpu time    0.0056: real time    0.0056
    --------------------------------------------
      LOOP:  cpu time   16.2543: real time   16.3450

 eigenvalue-minimisations  :  4832
 total energy-change (2. order) :-0.4605513E+00  (-0.2267006E+01)
 number of electron     270.0000038 magnetization      -0.0001809
 augmentation part       14.2719927 magnetization      -0.0012294

 Broyden mixing:
  rms(total) = 0.10022E+01    rms(broyden)= 0.10018E+01
  rms(prec ) = 0.11824E+01
  weight for this iteration     100.00

 eigenvalues of (default mixing * dielectric matrix)
  average eigenvalue GAMMA=   1.2707
  2.4053  0.9518  0.4551

 Free energy of the ion-electron system (eV)
  ---------------------------------------------------
  alpha Z        PSCENC =        83.49165142
  Ewald energy   TEWEN  =     22819.44547813
  -Hartree energ DENC   =    -34788.97470388
  -exchange      EXHF   =         0.00000000
  -V(xc)+E(xc)   XCENC  =       978.25083530
  PAW double counting   =     14321.28323988   -14806.89636549
  entropy T*S    EENTRO =         0.00000000
  eigenvalues    EBANDS =     -3597.11406755
  atomic energy  EATOM  =     14592.26033195
  Solvation  Ediel_sol  =         0.00000000
  ---------------------------------------------------
  free energy    TOTEN  =      -398.25360025 eV

  energy without entropy =     -398.25360025  energy(sigma->0) =     -398.25360025


--------------------------------------------------------------------------------------------------------




--------------------------------------- Iteration      1(   9)  ---------------------------------------


    POTLOK:  cpu time    0.1973: real time    0.2002
    SETDIJ:  cpu time    0.0108: real time    0.0109
     EDDAV:  cpu time   15.5742: real time   15.6717
 BZINTS: Fermi energy: -4.731433;270.000000 electrons
         Band energy:***********;  BLOECHL correction:  0.000000
       DOS:  cpu time    0.0038: real time    0.0038
    CHARGE:  cpu time    0.2478: real time    0.2492
    MIXING:  cpu time    0.0057: real time    0.0058
    --------------------------------------------
      LOOP:  cpu time   16.0397: real time   16.1415

 eigenvalue-minimisations  :  4800
 total energy-change (2. order) : 0.1536271E+00  (-0.2039606E+01)
 number of electron     270.0000038 magnetization      -0.0002107
 augmentation part       14.5135285 magnetization      -0.0010312

 Broyden mixing:
  rms(total) = 0.72686E+00    rms(broyden)= 0.72634E+00
  rms(prec ) = 0.90823E+00
  weight for this iteration     100.00

 eigenvalues of (default mixing * dielectric matrix)
  average eigenvalue GAMMA=   1.2872
  3.2660  0.9526  0.4651  0.4651

 Free energy of the ion-electron system (eV)
  ---------------------------------------------------
  alpha Z        PSCENC =        83.49165142
  Ewald energy   TEWEN  =     22819.44547813
  -Hartree energ DENC   =    -34809.09878267
  -exchange      EXHF   =         0.00000000
  -V(xc)+E(xc)   XCENC  =       978.97961177
  PAW double counting   =     15428.61001939   -15917.15781530
  entropy T*S    EENTRO =         0.00000000
  eigenvalues    EBANDS =     -3574.63046783
  atomic energy  EATOM  =     14592.26033195
  Solvation  Ediel_sol  =         0.00000000
  ---------------------------------------------------
  free energy    TOTEN  =      -398.09997314 eV

  energy without entropy =     -398.09997314  energy(sigma->0) =     -398.09997314


--------------------------------------------------------------------------------------------------------




--------------------------------------- Iteration      1(  10)  ---------------------------------------


    POTLOK:  cpu time    0.2018: real time    0.2047
    SETDIJ:  cpu time    0.0451: real time    0.0455
     EDDAV:  cpu time   16.2161: real time   16.3101
 BZINTS: Fermi energy: -4.296949;270.000000 electrons
         Band energy:***********;  BLOECHL correction:  0.000000
       DOS:  cpu time    0.0040: real time    0.0040
    CHARGE:  cpu time    0.2456: real time    0.2465
    MIXING:  cpu time    0.0059: real time    0.0059
    --------------------------------------------
      LOOP:  cpu time   16.7185: real time   16.8166

 eigenvalue-minimisations  :  4992
 total energy-change (2. order) : 0.1128164E+01  (-0.7068732E+00)
 number of electron     270.0000036 magnetization      -0.0001878
 augmentation part       14.3505189 magnetization      -0.0007534

 Broyden mixing:
  rms(total) = 0.42099E+00    rms(broyden)= 0.42032E+00
  rms(prec ) = 0.55788E+00
  weight for this iteration     100.00

 eigenvalues of (default mixing * dielectric matrix)
  average eigenvalue GAMMA=   1.1604
  3.4372  0.9315  0.5297  0.5297  0.3739

 Free energy of the ion-electron system (eV)
  ---------------------------------------------------
  alpha Z        PSCENC =        83.49165142
  Ewald energy   TEWEN  =     22819.44547813
  -Hartree energ DENC   =    -34828.32757766
  -exchange      EXHF   =         0.00000000
  -V(xc)+E(xc)   XCENC  =       980.32032236
  PAW double counting   =     16475.54088658   -16964.14893055
  entropy T*S    EENTRO =         0.00000000
  eigenvalues    EBANDS =     -3555.55397139
  atomic energy  EATOM  =     14592.26033195
  Solvation  Ediel_sol  =         0.00000000
  ---------------------------------------------------
  free energy    TOTEN  =      -396.97180918 eV

  energy without entropy =     -396.97180918  energy(sigma->0) =     -396.97180918


--------------------------------------------------------------------------------------------------------




--------------------------------------- Iteration      1(  11)  ---------------------------------------


    POTLOK:  cpu time    0.2081: real time    0.2109
    SETDIJ:  cpu time    0.0094: real time    0.0095
     EDDAV:  cpu time   15.3646: real time   15.5180
 BZINTS: Fermi energy: -4.306327;270.000000 electrons
         Band energy:***********;  BLOECHL correction:  0.000000
       DOS:  cpu time    0.0039: real time    0.0039
    CHARGE:  cpu time    0.2469: real time    0.2516
    MIXING:  cpu time    0.0052: real time    0.0056
    --------------------------------------------
      LOOP:  cpu time   15.8382: real time   15.9994

 eigenvalue-minimisations  :  4688
 total energy-change (2. order) : 0.4118619E+00  (-0.1566726E+00)
 number of electron     270.0000037 magnetization      -0.0001122
 augmentation part       14.3787315 magnetization      -0.0005141

 Broyden mixing:
  rms(total) = 0.21660E+00    rms(broyden)= 0.21646E+00
  rms(prec ) = 0.26669E+00
  weight for this iteration     100.00

 eigenvalues of (default mixing * dielectric matrix)
  average eigenvalue GAMMA=   1.1062
  3.5042  0.8340  0.8340  0.6376  0.4136  0.4136

 Free energy of the ion-electron system (eV)
  ---------------------------------------------------
  alpha Z        PSCENC =        83.49165142
  Ewald energy   TEWEN  =     22819.44547813
  -Hartree energ DENC   =    -34836.66768070
  -exchange      EXHF   =         0.00000000
  -V(xc)+E(xc)   XCENC  =       980.76700459
  PAW double counting   =     16724.22568812   -17212.26621536
  entropy T*S    EENTRO =         0.00000000
  eigenvalues    EBANDS =     -3547.81620545
  atomic energy  EATOM  =     14592.26033195
  Solvation  Ediel_sol  =         0.00000000
  ---------------------------------------------------
  free energy    TOTEN  =      -396.55994731 eV

  energy without entropy =     -396.55994731  energy(sigma->0) =     -396.55994731


--------------------------------------------------------------------------------------------------------




--------------------------------------- Iteration      1(  12)  ---------------------------------------


    POTLOK:  cpu time    0.1792: real time    0.1869
    SETDIJ:  cpu time    0.0091: real time    0.0095
     EDDAV:  cpu time   14.0307: real time   14.1154
 BZINTS: Fermi energy: -4.303669;270.000000 electrons
         Band energy:***********;  BLOECHL correction: -0.002637
       DOS:  cpu time    0.0105: real time    0.0106
    CHARGE:  cpu time    0.2479: real time    0.2495
    MIXING:  cpu time    0.0065: real time    0.0065
    --------------------------------------------
      LOOP:  cpu time   14.4840: real time   14.5783

 eigenvalue-minimisations  :  4176
 total energy-change (2. order) : 0.3786902E-01  (-0.6527943E-01)
 number of electron     270.0000036 magnetization       0.0038111
 augmentation part       14.3619572 magnetization      -0.0013143

 Broyden mixing:
  rms(total) = 0.13215E+00    rms(broyden)= 0.13187E+00
  rms(prec ) = 0.15619E+00
  weight for this iteration     100.00

 eigenvalues of (default mixing * dielectric matrix)
  average eigenvalue GAMMA=   1.0767
  3.5063  0.9724  0.9724  0.6294  0.6294  0.4137  0.4137

 Free energy of the ion-electron system (eV)
  ---------------------------------------------------
  alpha Z        PSCENC =        83.49165142
  Ewald energy   TEWEN  =     22819.44547813
  -Hartree energ DENC   =    -34837.84075214
  -exchange      EXHF   =         0.00000000
  -V(xc)+E(xc)   XCENC  =       980.83809512
  PAW double counting   =     16851.52883052   -17339.39851690
  entropy T*S    EENTRO =         0.00000000
  eigenvalues    EBANDS =     -3546.84719637
  atomic energy  EATOM  =     14592.26033195
  Solvation  Ediel_sol  =         0.00000000
  ---------------------------------------------------
  free energy    TOTEN  =      -396.52207829 eV

  energy without entropy =     -396.52207829  energy(sigma->0) =     -396.52207829


--------------------------------------------------------------------------------------------------------




--------------------------------------- Iteration      1(  13)  ---------------------------------------


    POTLOK:  cpu time    0.1886: real time    0.1907
    SETDIJ:  cpu time    0.0093: real time    0.0094
     EDDAV:  cpu time   13.9538: real time   14.0475
 BZINTS: Fermi energy: -4.288197;270.000000 electrons
         Band energy:***********;  BLOECHL correction:  0.000000
       DOS:  cpu time    0.0040: real time    0.0040
    CHARGE:  cpu time    0.2464: real time    0.2485
    MIXING:  cpu time    0.0065: real time    0.0065
    --------------------------------------------
      LOOP:  cpu time   14.4086: real time   14.5065

 eigenvalue-minimisations  :  4152
 total energy-change (2. order) : 0.1088323E-01  (-0.1915839E-01)
 number of electron     270.0000036 magnetization       0.0016955
 augmentation part       14.3579846 magnetization       0.0012386

 Broyden mixing:
  rms(total) = 0.97783E-01    rms(broyden)= 0.97722E-01
  rms(prec ) = 0.11065E+00
  weight for this iteration     100.00

 eigenvalues of (default mixing * dielectric matrix)
  average eigenvalue GAMMA=   1.0657
  3.4428  1.3004  0.9480  0.9480  0.5421  0.5421  0.4009  0.4009

 Free energy of the ion-electron system (eV)
  ---------------------------------------------------
  alpha Z        PSCENC =        83.49165142
  Ewald energy   TEWEN  =     22819.44547813
  -Hartree energ DENC   =    -34836.75156502
  -exchange      EXHF   =         0.00000000
  -V(xc)+E(xc)   XCENC  =       980.76666096
  PAW double counting   =     16889.55608919   -17377.41522206
  entropy T*S    EENTRO =         0.00000000
  eigenvalues    EBANDS =     -3547.86461963
  atomic energy  EATOM  =     14592.26033195
  Solvation  Ediel_sol  =         0.00000000
  ---------------------------------------------------
  free energy    TOTEN  =      -396.51119506 eV

  energy without entropy =     -396.51119506  energy(sigma->0) =     -396.51119506


--------------------------------------------------------------------------------------------------------




--------------------------------------- Iteration      1(  14)  ---------------------------------------


    POTLOK:  cpu time    0.1997: real time    0.2024
    SETDIJ:  cpu time    0.0095: real time    0.0096
     EDDAV:  cpu time   14.6662: real time   14.7604
 BZINTS: Fermi energy: -4.304351;270.000000 electrons
         Band energy:***********;  BLOECHL correction: -0.000050
       DOS:  cpu time    0.0101: real time    0.0101
    CHARGE:  cpu time    0.2457: real time    0.2477
    MIXING:  cpu time    0.0060: real time    0.0061
    --------------------------------------------
      LOOP:  cpu time   15.1373: real time   15.2363

 eigenvalue-minimisations  :  4416
 total energy-change (2. order) : 0.9835404E-02  (-0.4429430E-02)
 number of electron     270.0000036 magnetization      -0.0013141
 augmentation part       14.3618715 magnetization      -0.0017370

 Broyden mixing:
  rms(total) = 0.61735E-01    rms(broyden)= 0.61717E-01
  rms(prec ) = 0.66943E-01
  weight for this iteration     100.00

 eigenvalues of (default mixing * dielectric matrix)
  average eigenvalue GAMMA=   1.1571
  3.4698  2.3293  1.0007  1.0007  0.7014  0.5542  0.5542  0.4019  0.4019

 Free energy of the ion-electron system (eV)
  ---------------------------------------------------
  alpha Z        PSCENC =        83.49165142
  Ewald energy   TEWEN  =     22819.44547813
  -Hartree energ DENC   =    -34835.59302134
  -exchange      EXHF   =         0.00000000
  -V(xc)+E(xc)   XCENC  =       980.69122167
  PAW double counting   =     16905.50360587   -17393.23951193
  entropy T*S    EENTRO =         0.00000000
  eigenvalues    EBANDS =     -3549.06111542
  atomic energy  EATOM  =     14592.26033195
  Solvation  Ediel_sol  =         0.00000000
  ---------------------------------------------------
  free energy    TOTEN  =      -396.50135966 eV

  energy without entropy =     -396.50135966  energy(sigma->0) =     -396.50135966


--------------------------------------------------------------------------------------------------------




--------------------------------------- Iteration      1(  15)  ---------------------------------------


    POTLOK:  cpu time    0.2333: real time    0.2358
    SETDIJ:  cpu time    0.0092: real time    0.0093
     EDDAV:  cpu time   14.3717: real time   14.5049
 BZINTS: Fermi energy: -4.298847;270.000000 electrons
         Band energy:***********;  BLOECHL correction: -0.001411
       DOS:  cpu time    0.0105: real time    0.0106
    CHARGE:  cpu time    0.2481: real time    0.2502
    MIXING:  cpu time    0.0073: real time    0.0073
    --------------------------------------------
      LOOP:  cpu time   14.8801: real time   15.0180

 eigenvalue-minimisations  :  4288
 total energy-change (2. order) : 0.2927287E-03  (-0.2357772E-02)
 number of electron     270.0000036 magnetization       0.0070368
 augmentation part       14.3661586 magnetization      -0.0011829

 Broyden mixing:
  rms(total) = 0.30971E-01    rms(broyden)= 0.30952E-01
  rms(prec ) = 0.36371E-01
  weight for this iteration     100.00

 eigenvalues of (default mixing * dielectric matrix)
  average eigenvalue GAMMA=   1.1762
  3.6718  2.5811  1.0613  1.0613  0.9389  0.5738  0.5738  0.4033  0.4033  0.4936

 Free energy of the ion-electron system (eV)
  ---------------------------------------------------
  alpha Z        PSCENC =        83.49165142
  Ewald energy   TEWEN  =     22819.44547813
  -Hartree energ DENC   =    -34835.00636910
  -exchange      EXHF   =         0.00000000
  -V(xc)+E(xc)   XCENC  =       980.63492229
  PAW double counting   =     16959.21051769   -17446.80255384
  entropy T*S    EENTRO =         0.00000000
  eigenvalues    EBANDS =     -3549.73504546
  atomic energy  EATOM  =     14592.26033195
  Solvation  Ediel_sol  =         0.00000000
  ---------------------------------------------------
  free energy    TOTEN  =      -396.50106693 eV

  energy without entropy =     -396.50106693  energy(sigma->0) =     -396.50106693


--------------------------------------------------------------------------------------------------------




--------------------------------------- Iteration      1(  16)  ---------------------------------------


    POTLOK:  cpu time    0.2006: real time    0.2030
    SETDIJ:  cpu time    0.0102: real time    0.0103
     EDDAV:  cpu time   14.1636: real time   14.2569
 BZINTS: Fermi energy: -4.298722;270.000000 electrons
         Band energy:***********;  BLOECHL correction: -0.001319
       DOS:  cpu time    0.0103: real time    0.0104
    CHARGE:  cpu time    0.2474: real time    0.2536
    MIXING:  cpu time    0.0064: real time    0.0066
    --------------------------------------------
      LOOP:  cpu time   14.6386: real time   14.7407

 eigenvalue-minimisations  :  4224
 total energy-change (2. order) : 0.5067968E-03  (-0.8437384E-03)
 number of electron     270.0000036 magnetization       0.0075206
 augmentation part       14.3697522 magnetization      -0.0013095

 Broyden mixing:
  rms(total) = 0.16628E-01    rms(broyden)= 0.16617E-01
  rms(prec ) = 0.18702E-01
  weight for this iteration     100.00

 eigenvalues of (default mixing * dielectric matrix)
  average eigenvalue GAMMA=   1.1557
  3.7261  2.4426  1.4270  0.9153  0.9153  0.8250  0.5719  0.5719  0.5156  0.4011
  0.4011

 Free energy of the ion-electron system (eV)
  ---------------------------------------------------
  alpha Z        PSCENC =        83.49165142
  Ewald energy   TEWEN  =     22819.44547813
  -Hartree energ DENC   =    -34834.83390966
  -exchange      EXHF   =         0.00000000
  -V(xc)+E(xc)   XCENC  =       980.62869364
  PAW double counting   =     16997.62009474   -17485.19307833
  entropy T*S    EENTRO =         0.00000000
  eigenvalues    EBANDS =     -3549.91982201
  atomic energy  EATOM  =     14592.26033195
  Solvation  Ediel_sol  =         0.00000000
  ---------------------------------------------------
  free energy    TOTEN  =      -396.50056013 eV

  energy without entropy =     -396.50056013  energy(sigma->0) =     -396.50056013


--------------------------------------------------------------------------------------------------------




--------------------------------------- Iteration      1(  17)  ---------------------------------------


    POTLOK:  cpu time    0.1998: real time    0.2033
    SETDIJ:  cpu time    0.0098: real time    0.0102
     EDDAV:  cpu time   14.4513: real time   14.5509
 BZINTS: Fermi energy: -4.296985;270.000000 electrons
         Band energy:***********;  BLOECHL correction: -0.001326
       DOS:  cpu time    0.0105: real time    0.0107
    CHARGE:  cpu time    0.2701: real time    0.2718
    MIXING:  cpu time    0.0079: real time    0.0079
    --------------------------------------------
      LOOP:  cpu time   14.9493: real time   15.0548

 eigenvalue-minimisations  :  4256
 total energy-change (2. order) :-0.2680372E-03  (-0.4075057E-03)
 number of electron     270.0000037 magnetization       0.0065713
 augmentation part       14.3678738 magnetization      -0.0027761

 Broyden mixing:
  rms(total) = 0.14257E-01    rms(broyden)= 0.14247E-01
  rms(prec ) = 0.15213E-01
  weight for this iteration     100.00

 eigenvalues of (default mixing * dielectric matrix)
  average eigenvalue GAMMA=   1.0638
  3.7250  2.4432  1.4258  0.9159  0.9159  0.8212  0.5719  0.5719  0.4011  0.4011
  0.5156  0.0563

 Free energy of the ion-electron system (eV)
  ---------------------------------------------------
  alpha Z        PSCENC =        83.49165142
  Ewald energy   TEWEN  =     22819.44547813
  -Hartree energ DENC   =    -34834.94645904
  -exchange      EXHF   =         0.00000000
  -V(xc)+E(xc)   XCENC  =       980.64151213
  PAW double counting   =     17003.32308037   -17490.87893910
  entropy T*S    EENTRO =         0.00000000
  eigenvalues    EBANDS =     -3549.83748401
  atomic energy  EATOM  =     14592.26033195
  Solvation  Ediel_sol  =         0.00000000
  ---------------------------------------------------
  free energy    TOTEN  =      -396.50082817 eV

  energy without entropy =     -396.50082817  energy(sigma->0) =     -396.50082817


--------------------------------------------------------------------------------------------------------




--------------------------------------- Iteration      1(  18)  ---------------------------------------


    POTLOK:  cpu time    0.2033: real time    0.2061
    SETDIJ:  cpu time    0.0097: real time    0.0097
     EDDAV:  cpu time   13.6907: real time   13.7732
 BZINTS: Fermi energy: -4.293647;270.000000 electrons
         Band energy:***********;  BLOECHL correction: -0.002113
       DOS:  cpu time    0.0099: real time    0.0099
    CHARGE:  cpu time    0.2458: real time    0.2487
    MIXING:  cpu time    0.0080: real time    0.0080
    --------------------------------------------
      LOOP:  cpu time   14.1673: real time   14.2555

 eigenvalue-minimisations  :  3936
 total energy-change (2. order) :-0.1338657E-02  (-0.2863511E-03)
 number of electron     270.0000036 magnetization       0.0033132
 augmentation part       14.3683165 magnetization      -0.0147079

 Broyden mixing:
  rms(total) = 0.18440E-01    rms(broyden)= 0.18423E-01
  rms(prec ) = 0.19046E-01
  weight for this iteration     100.00

 eigenvalues of (default mixing * dielectric matrix)
  average eigenvalue GAMMA=   1.1285
  3.7490  2.5591  1.5965  0.8531  0.9864  0.9864  0.8553  0.5841  0.5841  0.5576
  0.5576  0.4009  0.4009

 Free energy of the ion-electron system (eV)
  ---------------------------------------------------
  alpha Z        PSCENC =        83.49165142
  Ewald energy   TEWEN  =     22819.44547813
  -Hartree energ DENC   =    -34834.91691742
  -exchange      EXHF   =         0.00000000
  -V(xc)+E(xc)   XCENC  =       980.64436438
  PAW double counting   =     17001.80633378   -17489.35791474
  entropy T*S    EENTRO =         0.00000000
  eigenvalues    EBANDS =     -3549.87549431
  atomic energy  EATOM  =     14592.26033195
  Solvation  Ediel_sol  =         0.00000000
  ---------------------------------------------------
  free energy    TOTEN  =      -396.50216683 eV

  energy without entropy =     -396.50216683  energy(sigma->0) =     -396.50216683


--------------------------------------------------------------------------------------------------------




--------------------------------------- Iteration      1(  19)  ---------------------------------------


    POTLOK:  cpu time    0.1980: real time    0.2005
    SETDIJ:  cpu time    0.0099: real time    0.0100
     EDDAV:  cpu time   11.4727: real time   11.5673
 BZINTS: Fermi energy: -4.295550;270.000000 electrons
         Band energy:***********;  BLOECHL correction: -0.002025
       DOS:  cpu time    0.0106: real time    0.0113
    CHARGE:  cpu time    0.2475: real time    0.2503
    MIXING:  cpu time    0.0084: real time    0.0085
    --------------------------------------------
      LOOP:  cpu time   11.9472: real time   12.0479

 eigenvalue-minimisations  :  2968
 total energy-change (2. order) : 0.7180182E-03  (-0.1643524E-03)
 number of electron     270.0000036 magnetization       0.0072830
 augmentation part       14.3684524 magnetization      -0.0090308

 Broyden mixing:
  rms(total) = 0.16910E-01    rms(broyden)= 0.16905E-01
  rms(prec ) = 0.18946E-01
  weight for this iteration     100.00

 eigenvalues of (default mixing * dielectric matrix)
  average eigenvalue GAMMA=   1.1569
  3.7573  2.3129  2.3129  1.1970  0.9413  0.9413  0.8724  0.8724  0.5689  0.5689
  0.5241  0.5241  0.4012  0.4012

 Free energy of the ion-electron system (eV)
  ---------------------------------------------------
  alpha Z        PSCENC =        83.49165142
  Ewald energy   TEWEN  =     22819.44547813
  -Hartree energ DENC   =    -34834.91153811
  -exchange      EXHF   =         0.00000000
  -V(xc)+E(xc)   XCENC  =       980.64287144
  PAW double counting   =     17002.86982036   -17490.41807206
  entropy T*S    EENTRO =         0.00000000
  eigenvalues    EBANDS =     -3549.88199193
  atomic energy  EATOM  =     14592.26033195
  Solvation  Ediel_sol  =         0.00000000
  ---------------------------------------------------
  free energy    TOTEN  =      -396.50144881 eV

  energy without entropy =     -396.50144881  energy(sigma->0) =     -396.50144881


--------------------------------------------------------------------------------------------------------




--------------------------------------- Iteration      1(  20)  ---------------------------------------


    POTLOK:  cpu time    0.1986: real time    0.2009
    SETDIJ:  cpu time    0.0090: real time    0.0102
     EDDAV:  cpu time   12.7724: real time   12.8508
 BZINTS: Fermi energy: -4.300595;270.000000 electrons
         Band energy:***********;  BLOECHL correction: -0.000874
       DOS:  cpu time    0.0104: real time    0.0104
    CHARGE:  cpu time    0.2857: real time    0.2876
    MIXING:  cpu time    0.0085: real time    0.0087
    --------------------------------------------
      LOOP:  cpu time   13.2847: real time   13.3687

 eigenvalue-minimisations  :  3656
 total energy-change (2. order) : 0.1635990E-02  (-0.4397957E-03)
 number of electron     270.0000036 magnetization       0.0026800
 augmentation part       14.3677797 magnetization      -0.0018897

 Broyden mixing:
  rms(total) = 0.78928E-02    rms(broyden)= 0.78370E-02
  rms(prec ) = 0.83378E-02
  weight for this iteration     100.00

 eigenvalues of (default mixing * dielectric matrix)
  average eigenvalue GAMMA=   1.2187
  3.7577  2.7957  2.7957  1.1813  1.0770  1.0770  0.9704  0.8379  0.8379  0.5677
  0.5677  0.4013  0.4013  0.5057  0.5057

 Free energy of the ion-electron system (eV)
  ---------------------------------------------------
  alpha Z        PSCENC =        83.49165142
  Ewald energy   TEWEN  =     22819.44547813
  -Hartree energ DENC   =    -34834.92903667
  -exchange      EXHF   =         0.00000000
  -V(xc)+E(xc)   XCENC  =       980.64797566
  PAW double counting   =     17002.06866401   -17489.62415661
  entropy T*S    EENTRO =         0.00000000
  eigenvalues    EBANDS =     -3549.86072069
  atomic energy  EATOM  =     14592.26033195
  Solvation  Ediel_sol  =         0.00000000
  ---------------------------------------------------
  free energy    TOTEN  =      -396.49981282 eV

  energy without entropy =     -396.49981282  energy(sigma->0) =     -396.49981282


--------------------------------------------------------------------------------------------------------




--------------------------------------- Iteration      1(  21)  ---------------------------------------


    POTLOK:  cpu time    0.2089: real time    0.2115
    SETDIJ:  cpu time    0.0102: real time    0.0102
     EDDAV:  cpu time   11.4607: real time   11.5430
 BZINTS: Fermi energy: -4.300214;270.000000 electrons
         Band energy:***********;  BLOECHL correction: -0.000835
       DOS:  cpu time    0.0108: real time    0.0109
    CHARGE:  cpu time    0.2463: real time    0.2514
    MIXING:  cpu time    0.0076: real time    0.0081
    --------------------------------------------
      LOOP:  cpu time   11.9445: real time   12.0351

 eigenvalue-minimisations  :  3160
 total energy-change (2. order) :-0.1987454E-03  (-0.5533699E-04)
 number of electron     270.0000036 magnetization      -0.0004077
 augmentation part       14.3677310 magnetization       0.0017058

 Broyden mixing:
  rms(total) = 0.54681E-02    rms(broyden)= 0.54417E-02
  rms(prec ) = 0.60657E-02
  weight for this iteration     100.00

 eigenvalues of (default mixing * dielectric matrix)
  average eigenvalue GAMMA=   1.1870
  3.7460  2.8788  2.8788  1.1585  1.0710  1.0710  1.0152  0.8312  0.8312  0.5615
  0.5615  0.4012  0.4012  0.5527  0.5164  0.5164

 Free energy of the ion-electron system (eV)
  ---------------------------------------------------
  alpha Z        PSCENC =        83.49165142
  Ewald energy   TEWEN  =     22819.44547813
  -Hartree energ DENC   =    -34834.92759436
  -exchange      EXHF   =         0.00000000
  -V(xc)+E(xc)   XCENC  =       980.65305059
  PAW double counting   =     16998.05390721   -17485.60201366
  entropy T*S    EENTRO =         0.00000000
  eigenvalues    EBANDS =     -3549.87482283
  atomic energy  EATOM  =     14592.26033195
  Solvation  Ediel_sol  =         0.00000000
  ---------------------------------------------------
  free energy    TOTEN  =      -396.50001156 eV

  energy without entropy =     -396.50001156  energy(sigma->0) =     -396.50001156


--------------------------------------------------------------------------------------------------------




--------------------------------------- Iteration      1(  22)  ---------------------------------------


    POTLOK:  cpu time    0.2145: real time    0.2175
    SETDIJ:  cpu time    0.0089: real time    0.0089
     EDDAV:  cpu time    9.8044: real time    9.8761
 BZINTS: Fermi energy: -4.300267;270.000000 electrons
         Band energy:***********;  BLOECHL correction: -0.000915
       DOS:  cpu time    0.0102: real time    0.0102
    CHARGE:  cpu time    0.2454: real time    0.2474
    MIXING:  cpu time    0.0091: real time    0.0092
    --------------------------------------------
      LOOP:  cpu time   10.2924: real time   10.3693

 eigenvalue-minimisations  :  2456
 total energy-change (2. order) :-0.1366926E-03  (-0.3476891E-04)
 number of electron     270.0000036 magnetization       0.0031240
 augmentation part       14.3677777 magnetization      -0.0021752

 Broyden mixing:
  rms(total) = 0.32748E-02    rms(broyden)= 0.32709E-02
  rms(prec ) = 0.35695E-02
  weight for this iteration     100.00

 eigenvalues of (default mixing * dielectric matrix)
  average eigenvalue GAMMA=   1.1974
  3.7633  3.4618  2.3966  1.1604  1.5012  0.9732  0.9732  0.8738  0.8738  0.7148
  0.7148  0.5698  0.5698  0.4013  0.4013  0.5036  0.5036

 Free energy of the ion-electron system (eV)
  ---------------------------------------------------
  alpha Z        PSCENC =        83.49165142
  Ewald energy   TEWEN  =     22819.44547813
  -Hartree energ DENC   =    -34834.89963595
  -exchange      EXHF   =         0.00000000
  -V(xc)+E(xc)   XCENC  =       980.65340067
  PAW double counting   =     16996.18128018   -17483.72385008
  entropy T*S    EENTRO =         0.00000000
  eigenvalues    EBANDS =     -3549.90880456
  atomic energy  EATOM  =     14592.26033195
  Solvation  Ediel_sol  =         0.00000000
  ---------------------------------------------------
  free energy    TOTEN  =      -396.50014826 eV

  energy without entropy =     -396.50014826  energy(sigma->0) =     -396.50014826


--------------------------------------------------------------------------------------------------------




--------------------------------------- Iteration      1(  23)  ---------------------------------------


    POTLOK:  cpu time    0.2043: real time    0.2075
    SETDIJ:  cpu time    0.0089: real time    0.0090
     EDDAV:  cpu time    9.0730: real time    9.1314
 BZINTS: Fermi energy: -4.300535;270.000000 electrons
         Band energy:***********;  BLOECHL correction: -0.000961
       DOS:  cpu time    0.0104: real time    0.0105
    --------------------------------------------
      LOOP:  cpu time    9.2967: real time    9.3583

 eigenvalue-minimisations  :  2112
 total energy-change (2. order) :-0.3605317E-04  (-0.1863350E-04)
 number of electron     270.0000036 magnetization       0.0031240
 augmentation part       14.3677777 magnetization      -0.0021752

 Free energy of the ion-electron system (eV)
  ---------------------------------------------------
  alpha Z        PSCENC =        83.49165142
  Ewald energy   TEWEN  =     22819.44547813
  -Hartree energ DENC   =    -34834.89354521
  -exchange      EXHF   =         0.00000000
  -V(xc)+E(xc)   XCENC  =       980.65371529
  PAW double counting   =     16995.56367417   -17483.10323974
  entropy T*S    EENTRO =         0.00000000
  eigenvalues    EBANDS =     -3549.91825030
  atomic energy  EATOM  =     14592.26033195
  Solvation  Ediel_sol  =         0.00000000
  ---------------------------------------------------
  free energy    TOTEN  =      -396.50018431 eV

  energy without entropy =     -396.50018431  energy(sigma->0) =     -396.50018431


--------------------------------------------------------------------------------------------------------




 average (electrostatic) potential at core
  the test charge radii are     0.6991  0.7089  0.9911
  (the norm of the test charge is              1.0000)
       1 -62.4552       2 -62.7342       3 -62.6726       4 -62.3205       5 -62.3975
       6 -62.2960       7 -62.5540       8 -62.4706       9 -62.3647      10 -62.5924
      11 -62.3083      12 -62.5674      13 -62.5114      14 -62.3434      15 -62.3146
      16 -62.2579      17 -62.3357      18 -62.3171      19 -62.5525      20 -62.3108
      21 -62.4193      22 -62.3536      23 -62.3039      24 -62.3552      25 -75.7818
[...]
   -.129E+02 0.215E+02 0.827E+02   0.823E+01 -.206E+02 -.828E+02   0.188E+01 -.418E+00 0.309E+00   0.862E-02 -.558E-02 -.106E-02
   0.463E+02 -.372E+02 -.571E+02   -.469E+02 0.376E+02 0.570E+02   0.166E+01 -.880E+00 -.519E+00   -.349E-02 -.126E-02 0.469E-03
   -.861E+01 0.361E+02 0.131E+03   0.934E+01 -.366E+02 -.132E+03   -.370E+00 0.108E+01 0.182E+01   -.162E-02 -.219E-02 0.189E-03
   -.430E+02 -.123E+02 0.634E+02   0.438E+02 0.128E+02 -.635E+02   -.176E+01 -.741E+00 0.710E+00   0.627E-03 0.964E-03 0.157E-03
   0.260E+02 -.225E+02 -.237E+02   -.266E+02 0.173E+02 0.220E+02   0.310E+00 0.302E+01 0.500E+00   -.474E-03 0.692E-02 0.200E-02
   0.209E+02 -.780E+01 -.323E+02   -.156E+02 0.108E+02 0.319E+02   -.319E+01 -.144E+01 0.943E-01   -.477E-02 -.274E-03 -.277E-03
   -.928E+01 0.205E+01 -.395E+02   0.397E+01 0.106E+01 0.390E+02   0.312E+01 -.142E+01 -.138E-01   0.254E-02 -.243E-03 0.233E-04
   -.149E+02 0.121E+02 -.467E+02   0.150E+02 -.107E+02 0.479E+02   0.112E+01 -.136E+01 -.184E+01   0.259E-02 -.367E-03 0.351E-03
   -.221E+01 0.153E+02 0.314E+02   0.224E+01 -.164E+02 -.308E+02   -.120E+00 0.245E+01 0.154E+00   0.351E-03 -.119E-02 -.142E-03
   0.202E+02 0.112E+02 -.430E+02   -.202E+02 -.951E+01 0.432E+02   -.106E+01 -.148E+01 -.155E+01   0.140E-02 0.236E-02 0.313E-02
   -.269E+01 -.152E+02 -.781E+01   0.267E+01 0.940E+01 0.968E+01   -.132E+00 0.360E+01 -.796E+00   -.272E-02 -.127E-03 -.103E-02
   0.285E+02 0.210E+02 0.125E+03   -.240E+02 -.184E+02 -.126E+03   -.225E+01 -.150E+01 0.101E+01   -.467E-02 -.240E-02 0.348E-02
   -.125E+02 0.168E+02 0.587E+02   0.741E+01 -.144E+02 -.566E+02   0.285E+01 -.780E+00 -.114E+01   -.600E-02 0.111E-02 -.411E-03
   0.445E+02 -.116E+02 0.437E+02   -.454E+02 0.121E+02 -.435E+02   0.193E+01 -.656E+00 0.448E+00   0.653E-03 -.558E-03 0.156E-03
   0.922E+00 0.504E+02 0.141E+03   -.158E+01 -.513E+02 -.141E+03   0.594E-01 0.159E+01 0.146E+01   0.263E-02 -.256E-02 -.159E-02
   -.442E+02 -.394E+02 -.646E+02   0.449E+02 0.397E+02 0.649E+02   -.179E+01 -.925E+00 -.716E+00   0.220E-02 -.239E-02 0.148E-02
   -.216E+02 -.217E+02 -.930E+02   0.220E+02 0.169E+02 0.923E+02   0.929E-01 0.236E+01 -.357E+00   0.616E-03 0.248E-02 0.257E-02
   0.112E+02 0.896E+00 -.727E+02   -.621E+01 0.202E+01 0.714E+02   -.258E+01 -.120E+01 0.283E-01   -.389E-02 -.355E-02 0.820E-03
   -.224E+02 -.510E+01 -.594E+02   0.175E+02 0.802E+01 0.580E+02   0.255E+01 -.123E+01 0.473E+00   0.626E-02 -.398E-02 0.809E-03
   0.480E+02 -.477E+02 0.909E+02   -.494E+02 0.478E+02 -.906E+02   0.157E+01 -.138E+01 0.259E+00   0.205E-03 0.586E-02 0.908E-03
   -.714E+01 0.296E+02 -.124E+03   0.704E+01 -.309E+02 0.124E+03   0.397E-01 0.209E+01 -.148E+01   -.461E-03 -.309E-03 -.115E-03
   -.562E+02 -.173E+02 -.402E+02   0.573E+02 0.177E+02 0.403E+02   -.189E+01 -.627E+00 -.530E+00   -.936E-03 0.714E-03 0.314E-03
   -.955E+01 0.247E+02 0.111E+03   0.967E+01 -.248E+02 -.112E+03   -.370E+00 -.352E+00 0.133E+01   0.967E-02 -.450E-02 -.195E-02
   -.127E+03 -.202E+02 0.147E+03   0.152E+03 0.338E+02 -.157E+03   -.278E+02 -.156E+02 0.112E+02   -.804E-03 0.591E-03 0.603E-03
   0.102E+03 -.101E+03 -.156E+03   -.127E+03 0.114E+03 0.165E+03   0.279E+02 -.146E+02 -.111E+02   -.319E-02 -.173E-02 -.180E-02
   0.361E+01 0.112E+03 0.258E+03   -.162E+01 -.135E+03 -.276E+03   -.256E+01 0.260E+02 0.210E+02   -.771E-02 0.485E-02 0.430E-02
   -.252E+02 0.912E+02 0.273E+03   0.223E+02 -.112E+03 -.293E+03   0.277E+01 0.235E+02 0.233E+02   0.281E-02 0.171E-02 0.559E-02
   0.127E+03 -.640E+02 -.743E+02   -.151E+03 0.803E+02 0.743E+02   0.273E+02 -.192E+02 -.569E+00   -.839E-02 -.262E-02 0.784E-03
   -.956E+02 -.536E+02 0.165E+03   0.119E+03 0.605E+02 -.181E+03   -.270E+02 -.799E+01 0.184E+02   -.150E-02 0.510E-03 0.220E-02
   -.309E+01 -.969E+00 -.158E+02   0.315E+01 0.115E+01 0.167E+02   -.131E+00 -.406E-01 -.104E+01   0.115E-02 -.401E-03 0.322E-03
   0.100E+02 -.150E+02 -.619E+02   -.105E+02 0.152E+02 0.667E+02   0.142E+00 -.404E+00 -.528E+01   -.254E-02 0.451E-02 0.217E-03
   -.783E+00 -.406E+02 -.199E+03   0.175E+02 0.501E+02 0.217E+03   -.189E+02 -.112E+02 -.216E+02   -.320E-02 0.221E-02 -.106E-02
   0.502E+01 0.449E+02 -.486E+02   -.203E+02 -.415E+02 0.575E+02   0.182E+02 -.354E+01 -.103E+02   0.969E-02 -.599E-02 -.431E-02
   -.996E+01 0.737E+02 0.806E+02   0.127E+02 -.101E+03 -.887E+02   -.326E+01 0.308E+02 0.971E+01   0.418E-02 0.233E-02 0.190E-02
   -.745E+00 0.716E+02 0.900E+02   -.110E+01 -.986E+02 -.983E+02   0.221E+01 0.308E+02 0.991E+01   -.105E-02 0.468E-02 0.630E-03
   0.268E+02 -.397E+02 -.218E+03   -.467E+02 0.496E+02 0.232E+03   0.225E+02 -.118E+02 -.171E+02   0.885E-02 0.654E-03 -.214E-02
   -.856E+00 0.512E+02 -.692E+02   0.148E+02 -.483E+02 0.809E+02   -.166E+02 -.291E+01 -.138E+02   -.175E-02 -.200E-02 -.115E-02
   0.319E+02 0.115E+02 0.502E+02   -.354E+02 -.140E+02 -.494E+02   0.466E+01 0.302E+01 -.474E+00   0.167E-02 0.485E-02 0.404E-02
   0.905E+01 0.252E+02 0.959E+02   -.109E+02 -.270E+02 -.101E+03   0.202E+01 0.195E+01 0.574E+01   -.137E-01 0.186E-02 0.166E-02
   -.125E+03 -.675E+02 -.811E+02   0.149E+03 0.833E+02 0.814E+02   -.278E+02 -.184E+02 -.783E+00   0.352E-02 -.578E-02 0.333E-02
   0.978E+02 -.459E+02 0.128E+03   -.122E+03 0.522E+02 -.142E+03   0.282E+02 -.735E+01 0.162E+02   0.189E-02 -.277E-02 0.260E-02
   0.805E+01 0.106E+03 0.282E+03   -.335E+01 -.127E+03 -.301E+03   -.485E+01 0.242E+02 0.222E+02   0.899E-02 -.590E-02 -.577E-03
   0.151E+01 0.154E+03 0.236E+03   -.298E+01 -.182E+03 -.244E+03   0.224E+01 0.316E+02 0.104E+02   0.546E-02 -.536E-02 -.217E-02
   0.128E+03 -.209E+02 0.896E+02   -.153E+03 0.355E+02 -.939E+02   0.287E+02 -.169E+02 0.532E+01   0.537E-02 -.126E-02 -.332E-03
   -.926E+02 -.104E+03 -.191E+03   0.116E+03 0.116E+03 0.202E+03   -.264E+02 -.144E+02 -.142E+02   0.250E-02 -.538E-02 -.748E-03
   0.564E+00 -.214E+02 -.891E+01   -.452E+00 0.224E+02 0.676E+01   -.100E+00 -.126E+01 0.254E+01   -.103E-02 -.200E-02 0.150E-03
   -.972E+01 -.167E+02 -.122E+03   0.980E+01 0.182E+02 0.128E+03   0.261E+00 -.165E+01 -.728E+01   0.206E-02 -.397E-02 0.132E-02
   -.147E+03 -.412E+02 -.616E+02   0.172E+03 0.567E+02 0.617E+02   -.281E+02 -.177E+02 -.334E+00   -.493E-02 0.253E-03 0.127E-02
   0.116E+03 -.971E+02 0.201E+03   -.141E+03 0.110E+03 -.206E+03   0.292E+02 -.139E+02 0.743E+01   -.412E-02 0.940E-02 0.234E-02
   0.374E+00 0.970E+02 -.251E+03   0.335E+01 -.120E+03 0.269E+03   -.428E+01 0.255E+02 -.213E+02   -.113E-02 0.220E-02 -.193E-02
   -.235E+02 0.745E+02 -.282E+03   0.221E+02 -.951E+02 0.303E+03   0.162E+01 0.231E+02 -.245E+02   -.932E-03 -.671E-03 -.280E-02
   0.124E+03 -.825E+02 0.154E+03   -.143E+03 0.101E+03 -.164E+03   0.221E+02 -.212E+02 0.124E+02   0.141E-03 0.771E-02 0.337E-02
   -.110E+03 -.488E+02 -.120E+03   0.135E+03 0.553E+02 0.132E+03   -.293E+02 -.738E+01 -.140E+02   -.953E-02 0.338E-02 -.869E-03
   -.303E+02 0.140E+02 0.293E+02   0.325E+02 -.155E+02 -.309E+02   -.315E+01 0.207E+01 0.231E+01   0.585E-03 -.257E-02 0.360E-03
   0.309E+02 -.803E+02 -.661E+03   -.314E+02 0.872E+02 0.669E+03   0.571E+00 -.843E+01 -.988E+01   0.120E-01 -.350E-02 0.152E-02
 -----------------------------------------------------------------------------------------------
   -.706E-01 -.982E+01 -.286E+01   -.220E-12 -.711E-13 0.682E-12   0.526E-01 0.983E+01 0.284E+01   0.176E-01 -.111E-01 0.260E-01
 
 
 POSITION                                       TOTAL-FORCE (eV/Angst)
 -----------------------------------------------------------------------------------
     -0.01794      2.97239      7.67635         0.003051     -2.695853      0.729706
      1.46473      5.52913      7.79685         2.845525      0.396029      0.651495
     -1.52987      5.47448      7.69117        -2.795336      0.441955      0.175778
      6.90082      0.79354      9.10249         0.998425     -0.452309     -0.544845
      4.18567      5.52763      7.42546         0.354257      0.588914      1.058967
      1.42308      0.71451      8.07626        -0.924943     -0.251610      0.693088
     -4.31209      9.96906      8.71022        -0.196696     -2.155625     -1.133487
     -2.66944     12.42628      9.02162         2.164082      1.598139     -0.338425
     -5.61942     12.54084      8.96626        -2.198816      1.693550     -0.542881
      2.88701      7.59203      9.03427         1.258870      0.102613     -0.676027
      0.04729     12.32117      8.80146        -0.092639      1.377696      0.772797
     -3.05902      7.58812      8.65208        -1.060889      0.238133     -1.346078
      8.38388      2.98758      8.50868        -0.158798     -2.243916      1.071682
      9.72466      5.29031      7.19789         2.235153      1.133284      0.358483
      6.86438      5.39432      7.83831        -2.252816      1.668723      0.940048
     15.17296      0.51892      8.29260         1.017838     -0.164667      0.563410
     12.41679      5.20932      7.08984        -0.595088      0.707760      1.050195
      9.80103      0.77783      9.21657        -1.113807     -0.591997     -0.482613
      4.27989      9.84057      9.56248         0.446402     -2.431448     -1.076655
      5.66825     12.41175      9.41184         2.445385      1.718977     -1.239801
      2.71112     12.38581      9.38389        -2.431865      1.691343     -0.926692
     10.91254      7.68417      7.56917         0.243126     -1.242628      0.480156
      8.36421     12.43649      9.62396        -0.054739      0.787174     -1.280552
      5.71420      7.64195      8.81748        -0.725422     -0.304206     -0.460329
     -0.01723      4.66966      7.65051        -0.237835     -0.486668      0.337361
      1.39964      2.22139      7.57714        -3.339686     -2.032684      1.752710
      5.57108     -0.05161      9.39884         3.274906     -1.856803     -2.168205
      5.57374      4.82949      7.06295        -0.569879      3.057622      3.152131
      2.73011      4.98388      7.01555        -0.151949      2.547347      3.367442
      6.93207      2.36460      8.87673         3.301191     -2.839051     -0.644827
     -5.57133     13.83256      8.03982        -3.367859     -1.136108      2.898404
      0.02019      0.02566      8.69115        -0.069184      0.137107     -0.215994
     -4.16613     11.62239      9.00467        -0.288244     -0.152272     -0.465836
     -3.13349      9.02517      9.32018        -2.196905     -1.678779     -3.659773
      1.46406      6.81670      8.84791         2.948232     -0.228738     -1.432705
      1.45344     11.54427      8.81502        -0.479396      3.805466      1.635269
     -1.35541     11.56274      8.62873         0.359124      3.811542      1.655690
      2.90722      8.98041      9.80701         2.634003     -1.918136     -3.220882
     -1.66265      6.75516      8.73209        -2.681871     -0.013057     -2.105631
     12.29989      6.73412      7.84778         1.193404      0.570349      0.366460
      8.34406      4.48070      7.72772         0.159228      0.208577      0.512416
      9.81262      2.34281      8.91428        -3.415296     -2.596592     -0.480108
      5.54993     13.65157      8.42129         3.578938     -0.978436      2.656998
     -2.70907      4.88280      6.81844        -0.129059      2.785963      3.367567
     11.05365      4.44353      6.83151         0.772644      4.142621      2.162294
     15.15776      2.03250      7.83236         3.489309     -2.266227      1.024461
     11.06774     -0.07950      9.71066        -2.994920     -1.842250     -2.461075
      8.35435     -0.06105      8.96956         0.011543     -0.299857      0.395078
      4.18900     11.52739      9.61559         0.347324     -0.256487     -0.629615
      5.69143      9.18540      9.22436        -3.612024     -2.209702     -0.287117
      9.61475      6.92025      7.12344         4.081355     -1.199541      2.220011
     -6.82182     11.96750      9.87619        -0.553350      3.058356     -3.148926
      6.96813     11.86894     10.18889         0.178439      2.435655     -3.691948
     -5.55493      9.50390      7.82199         3.060920     -2.383332      1.961487
      7.00853      6.74191      8.70877        -3.953194     -0.843646     -2.177344
      4.23206      6.92659      8.40890        -0.882325      0.568407      0.731266
     -0.16073      8.25500     10.04031         0.122157     -1.520677     -1.904476
 -----------------------------------------------------------------------------------
    total drift:                               -0.000467     -0.001758     -0.002032


--------------------------------------------------------------------------------------------------------



  FREE ENERGIE OF THE ION-ELECTRON SYSTEM (eV)
  ---------------------------------------------------
  free  energy   TOTEN  =      -399.50556135 eV

  energy  without entropy=     -399.50556135  energy(sigma->0) =     -399.50556135
 


--------------------------------------------------------------------------------------------------------


    POTLOK:  cpu time    0.2175: real time    0.2181


--------------------------------------------------------------------------------------------------------


 stress matrix after NEB project (eV)
   -337.80232      5.95546     -8.83567
      5.95546   -307.51300    -16.32324
     -8.83567    -16.32324    -74.67475
  FORCES: max atom, RMS     4.798417    3.191159
  FORCE total and by dimension   24.092723    4.142621
  Stress total and by dimension  463.692722  337.802317
     LOOP+:  cpu time  345.0318: real time  347.6136
    4ORBIT:  cpu time    0.0000: real time    0.0000
 


 total charge     
 
# of ion       s       p       d       tot
------------------------------------------
    1        0.817   1.272   0.000   2.090
    2        0.822   1.252   0.000   2.074
    3        0.820   1.260   0.000   2.079
    4        0.829   1.272   0.000   2.101
    5        0.827   1.270   0.000   2.096
    6        0.829   1.278   0.000   2.107
    7        0.816   1.269   0.000   2.085
    8        0.819   1.265   0.000   2.084
    9        0.819   1.270   0.000   2.089
   10        0.821   1.295   0.000   2.116
   11        0.829   1.277   0.000   2.106
   12        0.819   1.303   0.000   2.122
   13        0.819   1.263   0.000   2.082
   14        0.819   1.270   0.000   2.088
   15        0.815   1.270   0.000   2.086
   16        0.828   1.281   0.000   2.109
   17        0.827   1.275   0.000   2.101
   18        0.829   1.269   0.000   2.098
   19        0.823   1.263   0.000   2.086
   20        0.822   1.267   0.000   2.089
   21        0.824   1.258   0.000   2.081
   22        0.830   1.271   0.000   2.101
   23        0.831   1.264   0.000   2.096
   24        0.827   1.281   0.000   2.108
   25        1.212   2.253   0.000   3.465
   26        1.300   2.184   0.000   3.484
   27        1.297   2.185   0.000   3.482
   28        1.304   2.164   0.000   3.468
   29        1.299   2.177   0.000   3.477
   30        1.299   2.180   0.000   3.479
   31        1.301   2.184   0.000   3.484
   32        1.228   2.279   0.000   3.507
   33        1.204   2.272   0.000   3.476
   34        1.288   2.205   0.000   3.493
   35        1.263   2.219   0.000   3.481
   36        1.300   2.180   0.000   3.480
   37        1.297   2.183   0.000   3.481
   38        1.290   2.197   0.000   3.487
   39        1.261   2.224   0.000   3.485
   40        1.224   2.290   0.000   3.515
   41        1.209   2.258   0.000   3.466
   42        1.301   2.173   0.000   3.474
   43        1.300   2.187   0.000   3.487
   44        1.299   2.178   0.000   3.478
   45        1.303   2.169   0.000   3.471
   46        1.299   2.188   0.000   3.487
   47        1.299   2.178   0.000   3.478
   48        1.227   2.279   0.000   3.506
   49        1.219   2.240   0.000   3.460
   50        1.297   2.188   0.000   3.485
   51        1.300   2.181   0.000   3.480
   52        1.304   2.167   0.000   3.471
   53        1.304   2.169   0.000   3.472
   54        1.299   2.175   0.000   3.474
   55        1.302   2.177   0.000   3.479
   56        1.225   2.285   0.000   3.510
   57        1.369   0.506   9.979  11.854
--------------------------------------------------
tot         61.984 101.589   9.979 173.551
 


 magnetization (x)
 
# of ion       s       p       d       tot
------------------------------------------
    1       -0.000   0.000   0.000  -0.000
    2       -0.000  -0.001   0.000  -0.001
    3        0.000   0.001   0.000   0.001
    4        0.000   0.000   0.000   0.000
    5       -0.000  -0.001   0.000  -0.002
    6       -0.000   0.000   0.000   0.000
    7        0.000   0.000   0.000   0.000
    8        0.000   0.000   0.000   0.000
    9        0.000   0.000   0.000   0.000
   10       -0.000   0.000   0.000   0.000
   11        0.000   0.000   0.000   0.000
   12        0.000   0.000   0.000   0.000
   13        0.000   0.000   0.000   0.001
   14       -0.000   0.000   0.000   0.000
   15       -0.000  -0.002   0.000  -0.003
   16       -0.000  -0.000   0.000  -0.000
   17        0.000   0.001   0.000   0.001
   18        0.000  -0.000   0.000   0.000
   19       -0.000  -0.001   0.000  -0.001
   20        0.000  -0.000   0.000  -0.000
   21       -0.000  -0.000   0.000  -0.000
   22        0.000   0.000   0.000   0.000
   23        0.000   0.000   0.000   0.000
   24       -0.000  -0.001   0.000  -0.001
   25       -0.000   0.000   0.000   0.000
   26       -0.000   0.000   0.000   0.000
   27        0.000  -0.000   0.000  -0.000
   28        0.000   0.001   0.000   0.001
   29        0.000   0.000   0.000   0.000
   30       -0.000   0.000   0.000   0.000
   31        0.000   0.000   0.000   0.000
   32       -0.000  -0.000   0.000  -0.000
   33        0.000  -0.000   0.000   0.000
   34        0.000   0.000   0.000   0.000
   35       -0.000  -0.000   0.000  -0.001
   36        0.000  -0.000   0.000  -0.000
   37        0.000  -0.000   0.000   0.000
   38       -0.000  -0.000   0.000  -0.000
   39        0.000  -0.000   0.000  -0.000
   40       -0.000  -0.000   0.000  -0.000
   41       -0.000   0.000   0.000   0.000
   42        0.000   0.000   0.000   0.000
   43       -0.000   0.000   0.000   0.000
   44        0.000  -0.000   0.000  -0.000
   45       -0.000  -0.000   0.000  -0.000
   46       -0.000   0.000   0.000   0.000
   47       -0.000   0.000   0.000   0.000
   48        0.000   0.000   0.000   0.000
   49       -0.000   0.000   0.000  -0.000
   50       -0.000   0.000   0.000   0.000
   51       -0.000  -0.000   0.000  -0.000
   52        0.000   0.000   0.000   0.000
   53        0.000   0.000   0.000   0.000
   54        0.000  -0.000   0.000  -0.000
   55        0.000   0.000   0.000   0.000
   56       -0.000  -0.001   0.000  -0.001
   57        0.000   0.005   0.000   0.005
--------------------------------------------------
tot         -0.001   0.001   0.000   0.001
 
 BZINTS: Fermi energy: -4.300535;270.000000 electrons
         Band energy:***********;  BLOECHL correction: -0.000961

 total amount of memory used by VASP MPI-rank0   124736. kBytes
=======================================================================

   base      :      30000. kBytes
   nonl-proj :      22376. kBytes
   fftplans  :       6275. kBytes
   grid      :      16633. kBytes
   one-center:        155. kBytes
   wavefun   :      49297. kBytes
 
  
  
 General timing and accounting informations for this job:
 ========================================================
  
                  Total CPU time used (sec):      360.786
                            User time (sec):      355.846
                          System time (sec):        4.940
                         Elapsed time (sec):      371.941
  
                   Maximum memory used (kb):      465376.
                   Average memory used (kb):           0.
  
                          Minor page faults:       489055
                          Major page faults:            0
                 Voluntary context switches:         8968
