       N       E                     dE             d eps       ncg     rms          ort
DAV:   1     0.250668208782E+04    0.25067E+04   -0.10108E+05   688   0.115E+03
DAV:   2     0.885462562347E+02   -0.24181E+04   -0.23211E+04   688   0.272E+02
DAV:   3    -0.470560881819E+03   -0.55911E+03   -0.55458E+03   688   0.143E+02
DAV:   4    -0.495885828283E+03   -0.25325E+02   -0.24600E+02   688   0.408E+01
DAV:   5    -0.497277658113E+03   -0.13918E+01   -0.13753E+01   688   0.817E+00
SDA:   6    -0.429215657901E+03    0.68062E+02   -0.13753E+01   688   0.208E+03 0.000E+00
CGA:   7    -0.465732441567E+03   -0.36517E+02   -0.36673E+02   688   0.330E+02 0.283E+01
CGA:   8    -0.470527504999E+03   -0.47951E+01   -0.49040E+01   688   0.127E+02-0.855E+00
CGA:   9    -0.472659287891E+03   -0.21318E+01   -0.21269E+01   688   0.321E+01-0.102E+00
CGA:  10    -0.473421163298E+03   -0.76188E+00   -0.76193E+00   688   0.103E+01 0.380E-03
CGA:  11    -0.473710183130E+03   -0.28902E+00   -0.29021E+00   688   0.355E+00-0.116E-01
CGA:  12    -0.473805440389E+03   -0.95257E-01   -0.95287E-01   688   0.196E+00-0.306E-03
CGA:  13    -0.473849004397E+03   -0.43564E-01   -0.43694E-01   688   0.955E-01-0.418E-02
CGA:  14    -0.473876754391E+03   -0.27750E-01   -0.27678E-01   688   0.424E-01 0.619E-03
CGA:  15    -0.473891454633E+03   -0.14700E-01   -0.14696E-01   688   0.265E-01 0.120E-04
CGA:  16    -0.473897397929E+03   -0.59433E-02   -0.59440E-02   688   0.194E-01-0.609E-04
CGA:  17    -0.473901763838E+03   -0.43659E-02   -0.43642E-02   688   0.886E-02 0.974E-04
CGA:  18    -0.473904456242E+03   -0.26924E-02   -0.26794E-02   688   0.614E-02 0.117E-03
CGA:  19    -0.473906168301E+03   -0.17121E-02   -0.17082E-02   688   0.446E-02 0.534E-04
CGA:  20    -0.473907858720E+03   -0.16904E-02   -0.16764E-02   688   0.372E-02 0.831E-04
CGA:  21    -0.473909680821E+03   -0.18221E-02   -0.18182E-02   688   0.396E-02 0.133E-04
CGA:  22    -0.473911187102E+03   -0.15063E-02   -0.15236E-02   688   0.481E-02-0.102E-03
CGA:  23    -0.473912463982E+03   -0.12769E-02   -0.12681E-02   688   0.264E-02 0.261E-03
CGA:  24    -0.473913688244E+03   -0.12243E-02   -0.11992E-02   688   0.195E-02 0.122E-03
CGA:  25    -0.473914308555E+03   -0.62031E-03   -0.62252E-03   688   0.174E-02-0.269E-04
CGA:  26    -0.473914868163E+03   -0.55961E-03   -0.55707E-03   688   0.903E-03 0.346E-04
CGA:  27    -0.473915196741E+03   -0.32858E-03   -0.32718E-03   688   0.914E-03 0.185E-04
CGA:  28    -0.473915449984E+03   -0.25324E-03   -0.25324E-03   688   0.498E-03 0.591E-05
CGA:  29    -0.473915680478E+03   -0.23049E-03   -0.23045E-03   688   0.514E-03 0.182E-05
CGA:  30    -0.473915827151E+03   -0.14667E-03   -0.14669E-03   688   0.411E-03-0.244E-05
CGA:  31    -0.473916007848E+03   -0.18070E-03   -0.18235E-03   688   0.399E-03-0.961E-05
CGA:  32    -0.473916172726E+03   -0.16488E-03   -0.16639E-03   688   0.624E-03-0.103E-04
CGA:  33    -0.473916418816E+03   -0.24609E-03   -0.25038E-03   688   0.860E-03-0.340E-04
CGA:  34    -0.473916787238E+03   -0.36842E-03   -0.39384E-03   688   0.172E-02-0.131E-03
CGA:  35    -0.473917086513E+03   -0.29928E-03   -0.28974E-03   688   0.178E-02-0.119E-05
CGA:  36    -0.473917416789E+03   -0.33028E-03   -0.32718E-03   688   0.167E-02 0.455E-05
SDA:  37    -0.473917697280E+03   -0.28049E-03   -0.27212E-03   688   0.146E-02 0.291E-04
CGA:  38    -0.473918594409E+03   -0.89713E-03   -0.89343E-03   688   0.216E-02 0.113E-04
CGA:  39    -0.473919430345E+03   -0.83594E-03   -0.83629E-03   688   0.114E-02 0.141E-05
CGA:  40    -0.473919852846E+03   -0.42250E-03   -0.42153E-03   688   0.641E-03 0.131E-04
CGA:  41    -0.473920032113E+03   -0.17927E-03   -0.17951E-03   688   0.260E-03 0.571E-05
CGA:  42    -0.473920141604E+03   -0.10949E-03   -0.10951E-03   688   0.161E-03-0.445E-06
CGA:  43    -0.473920199905E+03   -0.58301E-04   -0.58272E-04   688   0.918E-04 0.346E-06
   1 F= -.47766790E+03 E0= -.47764679E+03  d E =-.477668E+03  mag=     1.4213
       N       E                     dE             d eps       ncg     rms          ort
SDA:   1    -0.385609288427E+03    0.88311E+02    0.00000E+00   688   0.234E+03 0.000E+00
CGA:   2    -0.451742417664E+03   -0.66133E+02   -0.66609E+02   688   0.793E+02 0.463E+01
CGA:   3    -0.469848506032E+03   -0.18106E+02   -0.18338E+02   688   0.230E+02 0.861E+00
CGA:   4    -0.474102870716E+03   -0.42544E+01   -0.43407E+01   688   0.472E+01 0.235E+00
CGA:   5    -0.475166114887E+03   -0.10632E+01   -0.10671E+01   688   0.104E+01 0.104E-01
CGA:   6    -0.475419564869E+03   -0.25345E+00   -0.25350E+00   688   0.306E+00 0.512E-03
CGA:   7    -0.475504476161E+03   -0.84911E-01   -0.84927E-01   688   0.111E+00 0.249E-03
CGA:   8    -0.475540761884E+03   -0.36286E-01   -0.36273E-01   688   0.475E-01 0.297E-03
CGA:   9    -0.475557192082E+03   -0.16430E-01   -0.16428E-01   688   0.197E-01 0.432E-04
CGA:  10    -0.475563846284E+03   -0.66542E-02   -0.66517E-02   688   0.769E-02 0.663E-04
CGA:  11    -0.475566481785E+03   -0.26355E-02   -0.26351E-02   688   0.327E-02 0.107E-04
CGA:  12    -0.475567622763E+03   -0.11410E-02   -0.11402E-02   688   0.156E-02 0.132E-04
CGA:  13    -0.475568206447E+03   -0.58368E-03   -0.58401E-03   688   0.806E-03-0.606E-05
CGA:  14    -0.475568527743E+03   -0.32130E-03   -0.32106E-03   688   0.399E-03 0.159E-05
CGA:  15    -0.475568693964E+03   -0.16622E-03   -0.16653E-03   688   0.192E-03-0.299E-05
CGA:  16    -0.475568772005E+03   -0.78041E-04   -0.78007E-04   688   0.979E-04 0.575E-06
   2 F= -.47932587E+03 E0= -.47931308E+03  d E =-.165797E+01  mag=     1.7641
       N       E                     dE             d eps       ncg     rms          ort
SDA:   1    -0.465693523533E+03    0.98752E+01    0.00000E+00   688   0.304E+02 0.000E+00
CGA:   2    -0.473997285776E+03   -0.83038E+01   -0.82702E+01   688   0.101E+02-0.157E+00
CGA:   3    -0.476444901703E+03   -0.24476E+01   -0.24607E+01   688   0.243E+01 0.355E-01
CGA:   4    -0.476927922474E+03   -0.48302E+00   -0.48307E+00   688   0.564E+00 0.184E-02
CGA:   5    -0.477043267527E+03   -0.11535E+00   -0.11522E+00   688   0.120E+00 0.360E-03
CGA:   6    -0.477071268487E+03   -0.28001E-01   -0.28010E-01   688   0.299E-01 0.172E-04
CGA:   7    -0.477080073796E+03   -0.88053E-02   -0.88050E-02   688   0.116E-01-0.146E-04
CGA:   8    -0.477083905414E+03   -0.38316E-02   -0.38318E-02   688   0.568E-02-0.249E-05
CGA:   9    -0.477085888883E+03   -0.19835E-02   -0.19837E-02   688   0.241E-02-0.334E-05
CGA:  10    -0.477086697573E+03   -0.80869E-03   -0.80882E-03   688   0.854E-03-0.459E-05
CGA:  11    -0.477086985322E+03   -0.28775E-03   -0.28787E-03   688   0.298E-03-0.456E-05
CGA:  12    -0.477087093885E+03   -0.10856E-03   -0.10859E-03   688   0.114E-03-0.529E-06
CGA:  13    -0.477087139004E+03   -0.45119E-04   -0.45085E-04   688   0.531E-04 0.463E-06
   3 F= -.48084137E+03 E0= -.48082651E+03  d E =-.317347E+01  mag=     1.7019
       N       E                     dE             d eps       ncg     rms          ort
SDA:   1    -0.451757477112E+03    0.25330E+02    0.00000E+00   688   0.759E+02 0.000E+00
CGA:   2    -0.472572359146E+03   -0.20815E+02   -0.20880E+02   688   0.224E+02 0.462E+00
CGA:   3    -0.478450142583E+03   -0.58778E+01   -0.58547E+01   688   0.459E+01-0.751E-01
CGA:   4    -0.479497025105E+03   -0.10469E+01   -0.10469E+01   688   0.947E+00 0.837E-03
CGA:   5    -0.479708408672E+03   -0.21138E+00   -0.21151E+00   688   0.200E+00 0.329E-03
CGA:   6    -0.479759727248E+03   -0.51319E-01   -0.51310E-01   688   0.684E-01 0.576E-05
CGA:   7    -0.479780000594E+03   -0.20273E-01   -0.20274E-01   688   0.301E-01 0.533E-04
CGA:   8    -0.479790515872E+03   -0.10515E-01   -0.10515E-01   688   0.145E-01 0.463E-05
CGA:   9    -0.479795184883E+03   -0.46690E-02   -0.46686E-02   688   0.538E-02 0.312E-04
CGA:  10    -0.479796889580E+03   -0.17047E-02   -0.17046E-02   688   0.173E-02 0.113E-04
CGA:  11    -0.479797483370E+03   -0.59379E-03   -0.59367E-03   688   0.622E-03 0.287E-05
CGA:  12    -0.479797717482E+03   -0.23411E-03   -0.23448E-03   688   0.281E-03-0.550E-05
CGA:  13    -0.479797818683E+03   -0.10120E-03   -0.10128E-03   688   0.144E-03-0.185E-05
CGA:  14    -0.479797866421E+03   -0.47738E-04   -0.47798E-04   688   0.679E-04-0.318E-05
   4 F= -.48355805E+03 E0= -.48354460E+03  d E =-.271668E+01  mag=     1.7413
       N       E                     dE             d eps       ncg     rms          ort
SDA:   1    -0.436568775899E+03    0.43229E+02    0.00000E+00   688   0.121E+03 0.000E+00
CGA:   2    -0.469573125811E+03   -0.33004E+02   -0.33128E+02   688   0.354E+02 0.102E+01
CGA:   3    -0.478828493689E+03   -0.92554E+01   -0.92071E+01   688   0.729E+01-0.156E+00
CGA:   4    -0.480485138831E+03   -0.16566E+01   -0.16568E+01   688   0.152E+01 0.231E-02
CGA:   5    -0.480828966019E+03   -0.34383E+00   -0.34405E+00   688   0.323E+00 0.723E-03
CGA:   6    -0.480910824882E+03   -0.81859E-01   -0.81795E-01   688   0.117E+00-0.283E-03
CGA:   7    -0.480943454974E+03   -0.32630E-01   -0.32632E-01   688   0.513E-01 0.883E-04
CGA:   8    -0.480960926058E+03   -0.17471E-01   -0.17473E-01   688   0.238E-01-0.260E-04
CGA:   9    -0.480968832592E+03   -0.79065E-02   -0.79051E-02   688   0.831E-02 0.401E-04
CGA:  10    -0.480971578274E+03   -0.27457E-02   -0.27455E-02   688   0.268E-02 0.980E-05
CGA:  11    -0.480972495172E+03   -0.91690E-03   -0.91666E-03   688   0.105E-02 0.451E-05
CGA:  12    -0.480972849758E+03   -0.35459E-03   -0.35485E-03   688   0.535E-03-0.844E-05
CGA:  13    -0.480973020058E+03   -0.17030E-03   -0.17030E-03   688   0.246E-03-0.830E-06
CGA:  14    -0.480973112574E+03   -0.92515E-04   -0.92850E-04   688   0.106E-03-0.483E-05
   5 F= -.48473847E+03 E0= -.48472672E+03  d E =-.389710E+01  mag=     1.7890
       N       E                     dE             d eps       ncg     rms          ort
SDA:   1    -0.473144111608E+03    0.78289E+01    0.00000E+00   688   0.241E+02 0.000E+00
CGA:   2    -0.479438633587E+03   -0.62945E+01   -0.63060E+01   688   0.714E+01 0.700E-01
CGA:   3    -0.481340501591E+03   -0.19019E+01   -0.18972E+01   688   0.157E+01-0.267E-01
CGA:   4    -0.481688516785E+03   -0.34802E+00   -0.34834E+00   688   0.363E+00 0.558E-03
CGA:   5    -0.481771094055E+03   -0.82577E-01   -0.82552E-01   688   0.956E-01 0.188E-04
CGA:   6    -0.481794254890E+03   -0.23161E-01   -0.23164E-01   688   0.390E-01 0.138E-04
CGA:   7    -0.481805560981E+03   -0.11306E-01   -0.11307E-01   688   0.179E-01 0.557E-04
CGA:   8    -0.481811596059E+03   -0.60351E-02   -0.60360E-02   688   0.776E-02-0.219E-04
CGA:   9    -0.481814048831E+03   -0.24528E-02   -0.24528E-02   688   0.254E-02-0.534E-05
CGA:  10    -0.481814875421E+03   -0.82659E-03   -0.82661E-03   688   0.805E-03-0.627E-06
CGA:  11    -0.481815172523E+03   -0.29710E-03   -0.29735E-03   688   0.323E-03-0.376E-05
CGA:  12    -0.481815293663E+03   -0.12114E-03   -0.12128E-03   688   0.163E-03-0.205E-05
CGA:  13    -0.481815348214E+03   -0.54551E-04   -0.54643E-04   688   0.821E-04-0.327E-05
   6 F= -.48558158E+03 E0= -.48556767E+03  d E =-.843112E+00  mag=     1.7347
       N       E                     dE             d eps       ncg     rms          ort
SDA:   1    -0.459954511227E+03    0.21861E+02    0.00000E+00   688   0.620E+02 0.000E+00
CGA:   2    -0.476163495184E+03   -0.16209E+02   -0.16248E+02   688   0.184E+02 0.273E+00
CGA:   3    -0.481023725027E+03   -0.48602E+01   -0.48510E+01   688   0.433E+01-0.479E-01
CGA:   4    -0.481908978955E+03   -0.88525E+00   -0.88783E+00   688   0.115E+01 0.163E-02
CGA:   5    -0.482150514358E+03   -0.24154E+00   -0.24123E+00   688   0.291E+00 0.150E-03
CGA:   6    -0.482221878552E+03   -0.71364E-01   -0.71296E-01   688   0.997E-01-0.319E-03
CGA:   7    -0.482253635400E+03   -0.31757E-01   -0.31751E-01   688   0.456E-01 0.168E-03
CGA:   8    -0.482269479540E+03   -0.15844E-01   -0.15848E-01   688   0.196E-01-0.470E-04
CGA:   9    -0.482275809194E+03   -0.63297E-02   -0.63301E-02   688   0.652E-02-0.193E-04
CGA:  10    -0.482277859173E+03   -0.20500E-02   -0.20499E-02   688   0.240E-02 0.408E-05
CGA:  11    -0.482278595941E+03   -0.73677E-03   -0.73682E-03   688   0.111E-02-0.910E-05
CGA:  12    -0.482278962769E+03   -0.36683E-03   -0.36682E-03   688   0.473E-03-0.937E-06
CGA:  13    -0.482279156353E+03   -0.19358E-03   -0.19439E-03   688   0.211E-03-0.737E-05
CGA:  14    -0.482279238234E+03   -0.81881E-04   -0.81990E-04   688   0.963E-04-0.126E-05
   7 F= -.48604343E+03 E0= -.48602476E+03  d E =-.130496E+01  mag=     1.6145
       N       E                     dE             d eps       ncg     rms          ort
SDA:   1    -0.472883687383E+03    0.93955E+01    0.00000E+00   688   0.248E+02 0.000E+00
CGA:   2    -0.479908057662E+03   -0.70244E+01   -0.70230E+01   688   0.864E+01-0.156E-01
CGA:   3    -0.481975677399E+03   -0.20676E+01   -0.20656E+01   688   0.237E+01-0.585E-03
CGA:   4    -0.482412685414E+03   -0.43701E+00   -0.43859E+00   688   0.542E+00-0.138E-02
CGA:   5    -0.482526759913E+03   -0.11407E+00   -0.11405E+00   688   0.140E+00 0.175E-03
CGA:   6    -0.482561276420E+03   -0.34517E-01   -0.34502E-01   688   0.446E-01-0.732E-04
CGA:   7    -0.482575153059E+03   -0.13877E-01   -0.13876E-01   688   0.203E-01 0.119E-04
CGA:   8    -0.482582063749E+03   -0.69107E-02   -0.69120E-02   688   0.915E-02-0.218E-04
CGA:   9    -0.482585045221E+03   -0.29815E-02   -0.29823E-02   688   0.363E-02-0.268E-04
CGA:  10    -0.482586111940E+03   -0.10667E-02   -0.10667E-02   688   0.148E-02-0.303E-05
CGA:  11    -0.482586548433E+03   -0.43649E-03   -0.43646E-03   688   0.627E-03-0.938E-05
CGA:  12    -0.482586783394E+03   -0.23496E-03   -0.23528E-03   688   0.285E-03-0.395E-05
CGA:  13    -0.482586915956E+03   -0.13256E-03   -0.13314E-03   688   0.158E-03-0.348E-05
CGA:  14    -0.482586986695E+03   -0.70739E-04   -0.70770E-04   688   0.986E-04-0.913E-07
   8 F= -.48634839E+03 E0= -.48632512E+03  d E =-.304964E+00  mag=     1.4372
       N       E                     dE             d eps       ncg     rms          ort
SDA:   1    -0.482022111059E+03    0.56480E+00    0.00000E+00   688   0.151E+01 0.000E+00
CGA:   2    -0.482455943901E+03   -0.43383E+00   -0.43386E+00   688   0.520E+00 0.258E-03
CGA:   3    -0.482583372369E+03   -0.12743E+00   -0.12759E+00   688   0.131E+00 0.481E-03
CGA:   4    -0.482609261168E+03   -0.25889E-01   -0.25883E-01   688   0.270E-01-0.157E-04
CGA:   5    -0.482615349896E+03   -0.60887E-02   -0.60886E-02   688   0.747E-02 0.593E-05
CGA:   6    -0.482617167368E+03   -0.18175E-02   -0.18172E-02   688   0.268E-02-0.626E-05
CGA:   7    -0.482617975211E+03   -0.80784E-03   -0.80786E-03   688   0.123E-02 0.914E-05
CGA:   8    -0.482618389490E+03   -0.41428E-03   -0.41408E-03   688   0.541E-03 0.608E-05
CGA:   9    -0.482618562934E+03   -0.17344E-03   -0.17339E-03   688   0.201E-03 0.389E-05
CGA:  10    -0.482618623138E+03   -0.60204E-04   -0.60226E-04   688   0.713E-04 0.283E-05
   9 F= -.48638099E+03 E0= -.48635806E+03  d E =-.337564E+00  mag=     1.4411
       N       E                     dE             d eps       ncg     rms          ort
SDA:   1    -0.479671550637E+03    0.29470E+01    0.00000E+00   688   0.819E+01 0.000E+00
CGA:   2    -0.482136026647E+03   -0.24645E+01   -0.24644E+01   688   0.288E+01-0.114E-01
CGA:   3    -0.482734932223E+03   -0.59891E+00   -0.60398E+00   688   0.836E+00 0.444E-02
CGA:   4    -0.482886372936E+03   -0.15144E+00   -0.15177E+00   688   0.170E+00-0.525E-03
CGA:   5    -0.482922774115E+03   -0.36401E-01   -0.36384E-01   688   0.394E-01 0.232E-05
CGA:   6    -0.482933035522E+03   -0.10261E-01   -0.10262E-01   688   0.126E-01-0.345E-05
CGA:   7    -0.482936755250E+03   -0.37197E-02   -0.37199E-02   688   0.627E-02-0.229E-04
CGA:   8    -0.482938778970E+03   -0.20237E-02   -0.20235E-02   688   0.297E-02 0.703E-05
CGA:   9    -0.482939773862E+03   -0.99489E-03   -0.99526E-03   688   0.119E-02-0.886E-05
CGA:  10    -0.482940160314E+03   -0.38645E-03   -0.38655E-03   688   0.393E-03-0.281E-05
CGA:  11    -0.482940299288E+03   -0.13897E-03   -0.13896E-03   688   0.155E-03 0.190E-06
CGA:  12    -0.482940356363E+03   -0.57075E-04   -0.57142E-04   688   0.817E-04-0.956E-06
  10 F= -.48670343E+03 E0= -.48668144E+03  d E =-.322440E+00  mag=     1.4853
       N       E                     dE             d eps       ncg     rms          ort
SDA:   1    -0.479666117190E+03    0.32742E+01    0.00000E+00   688   0.848E+01 0.000E+00
CGA:   2    -0.482210398544E+03   -0.25443E+01   -0.25442E+01   688   0.299E+01-0.132E-01
CGA:   3    -0.482833734431E+03   -0.62334E+00   -0.62840E+00   688   0.865E+00 0.542E-02
CGA:   4    -0.482990185336E+03   -0.15645E+00   -0.15684E+00   688   0.177E+00-0.591E-03
CGA:   5    -0.483028008461E+03   -0.37823E-01   -0.37805E-01   688   0.404E-01-0.216E-05
CGA:   6    -0.483038565535E+03   -0.10557E-01   -0.10557E-01   688   0.127E-01-0.519E-05
CGA:   7    -0.483042370651E+03   -0.38051E-02   -0.38054E-02   688   0.635E-02-0.237E-04
CGA:   8    -0.483044451855E+03   -0.20812E-02   -0.20810E-02   688   0.303E-02 0.532E-05
CGA:   9    -0.483045479187E+03   -0.10273E-02   -0.10278E-02   688   0.122E-02-0.953E-05
CGA:  10    -0.483045881376E+03   -0.40219E-03   -0.40233E-03   688   0.419E-03-0.377E-05
CGA:  11    -0.483046028912E+03   -0.14754E-03   -0.14751E-03   688   0.175E-03 0.422E-06
CGA:  12    -0.483046092166E+03   -0.63255E-04   -0.63326E-04   688   0.966E-04-0.114E-05
  11 F= -.48680942E+03 E0= -.48678843E+03  d E =-.428427E+00  mag=     1.5368
       N       E                     dE             d eps       ncg     rms          ort
SDA:   1    -0.480111541940E+03    0.29345E+01    0.00000E+00   688   0.848E+01 0.000E+00
CGA:   2    -0.482510950982E+03   -0.23994E+01   -0.23988E+01   688   0.271E+01-0.126E-01
CGA:   3    -0.483097723138E+03   -0.58677E+00   -0.58930E+00   688   0.811E+00 0.446E-02
CGA:   4    -0.483241894782E+03   -0.14417E+00   -0.14459E+00   688   0.168E+00-0.653E-03
CGA:   5    -0.483277955114E+03   -0.36060E-01   -0.36045E-01   688   0.364E-01 0.186E-04
CGA:   6    -0.483287253693E+03   -0.92986E-02   -0.92989E-02   688   0.107E-01-0.245E-05
CGA:   7    -0.483290358451E+03   -0.31048E-02   -0.31048E-02   688   0.493E-02-0.836E-05
CGA:   8    -0.483291941738E+03   -0.15833E-02   -0.15828E-02   688   0.229E-02 0.151E-04
CGA:   9    -0.483292731671E+03   -0.78993E-03   -0.79007E-03   688   0.899E-03-0.250E-05
CGA:  10    -0.483293028042E+03   -0.29637E-03   -0.29638E-03   688   0.303E-03-0.346E-06
CGA:  11    -0.483293131955E+03   -0.10391E-03   -0.10385E-03   688   0.121E-03 0.122E-05
CGA:  12    -0.483293175265E+03   -0.43310E-04   -0.43376E-04   688   0.630E-04-0.107E-05
  12 F= -.48706011E+03 E0= -.48703959E+03  d E =-.250691E+00  mag=     1.5528
       N       E                     dE             d eps       ncg     rms          ort
SDA:   1    -0.467201455218E+03    0.16092E+02    0.00000E+00   688   0.440E+02 0.000E+00
CGA:   2    -0.479171838296E+03   -0.11970E+02   -0.11960E+02   688   0.161E+02-0.131E+00
CGA:   3    -0.482337784377E+03   -0.31659E+01   -0.31963E+01   688   0.461E+01 0.337E-01
CGA:   4    -0.483216470515E+03   -0.87869E+00   -0.88337E+00   688   0.860E+00-0.906E-03
CGA:   5    -0.483410875900E+03   -0.19441E+00   -0.19426E+00   688   0.191E+00-0.348E-03
CGA:   6    -0.483459194970E+03   -0.48319E-01   -0.48328E-01   688   0.552E-01 0.849E-04
CGA:   7    -0.483475489576E+03   -0.16295E-01   -0.16295E-01   688   0.240E-01-0.189E-05
CGA:   8    -0.483483636704E+03   -0.81471E-02   -0.81455E-02   688   0.111E-01 0.313E-04
CGA:   9    -0.483487524838E+03   -0.38881E-02   -0.38878E-02   688   0.437E-02 0.325E-05
CGA:  10    -0.483488974698E+03   -0.14499E-02   -0.14498E-02   688   0.142E-02 0.996E-06
CGA:  11    -0.483489481621E+03   -0.50692E-03   -0.50684E-03   688   0.526E-03 0.124E-05
CGA:  12    -0.483489683287E+03   -0.20167E-03   -0.20188E-03   688   0.255E-03-0.240E-05
CGA:  13    -0.483489774655E+03   -0.91368E-04   -0.91243E-04   688   0.124E-03 0.212E-05
  13 F= -.48726291E+03 E0= -.48724286E+03  d E =-.453490E+00  mag=     1.5669
       N       E                     dE             d eps       ncg     rms          ort
SDA:   1    -0.482209879342E+03    0.12798E+01    0.00000E+00   688   0.390E+01 0.000E+00
CGA:   2    -0.483316266624E+03   -0.11064E+01   -0.11063E+01   688   0.116E+01-0.209E-02
CGA:   3    -0.483583459462E+03   -0.26719E+00   -0.26799E+00   688   0.326E+00 0.222E-02
CGA:   4    -0.483642863588E+03   -0.59404E-01   -0.59480E-01   688   0.725E-01-0.146E-03
CGA:   5    -0.483657962331E+03   -0.15099E-01   -0.15093E-01   688   0.162E-01 0.147E-04
CGA:   6    -0.483662114501E+03   -0.41522E-02   -0.41522E-02   688   0.481E-02-0.515E-05
CGA:   7    -0.483663577247E+03   -0.14627E-02   -0.14628E-02   688   0.223E-02-0.170E-05
CGA:   8    -0.483664307273E+03   -0.73003E-03   -0.72960E-03   688   0.107E-02 0.113E-04
CGA:   9    -0.483664667441E+03   -0.36017E-03   -0.36024E-03   688   0.417E-03-0.168E-05
CGA:  10    -0.483664803860E+03   -0.13642E-03   -0.13638E-03   688   0.140E-03 0.113E-05
CGA:  11    -0.483664852120E+03   -0.48260E-04   -0.48180E-04   688   0.580E-04 0.164E-05
  14 F= -.48744028E+03 E0= -.48742091E+03  d E =-.177366E+00  mag=     1.5927
       N       E                     dE             d eps       ncg     rms          ort
SDA:   1    -0.470902225703E+03    0.12763E+02    0.00000E+00   688   0.355E+02 0.000E+00
CGA:   2    -0.480674509459E+03   -0.97723E+01   -0.97687E+01   688   0.121E+02-0.543E-01
CGA:   3    -0.483143862351E+03   -0.24694E+01   -0.24914E+01   688   0.362E+01 0.303E-01
CGA:   4    -0.483811189632E+03   -0.66733E+00   -0.67145E+00   688   0.699E+00-0.289E-02
CGA:   5    -0.483967265389E+03   -0.15608E+00   -0.15597E+00   688   0.152E+00-0.228E-03
CGA:   6    -0.484006372710E+03   -0.39107E-01   -0.39113E-01   688   0.456E-01 0.693E-04
CGA:   7    -0.484020008186E+03   -0.13635E-01   -0.13635E-01   688   0.202E-01 0.171E-04
CGA:   8    -0.484026925106E+03   -0.69169E-02   -0.69154E-02   688   0.939E-02 0.311E-04
CGA:   9    -0.484030159378E+03   -0.32343E-02   -0.32339E-02   688   0.364E-02 0.568E-05
CGA:  10    -0.484031344313E+03   -0.11849E-02   -0.11848E-02   688   0.120E-02 0.244E-05
CGA:  11    -0.484031756938E+03   -0.41262E-03   -0.41233E-03   688   0.473E-03 0.564E-05
CGA:  12    -0.484031933318E+03   -0.17638E-03   -0.17645E-03   688   0.232E-03-0.112E-05
CGA:  13    -0.484032021168E+03   -0.87851E-04   -0.87767E-04   688   0.110E-03 0.104E-05
  15 F= -.48781303E+03 E0= -.48779516E+03  d E =-.550116E+00  mag=     1.6459
       N       E                     dE             d eps       ncg     rms          ort
SDA:   1    -0.431034080392E+03    0.52998E+02    0.00000E+00   688   0.149E+03 0.000E+00
CGA:   2    -0.468234482319E+03   -0.37200E+02   -0.37232E+02   688   0.574E+02 0.144E+00
CGA:   3    -0.480247661249E+03   -0.12013E+02   -0.12123E+02   688   0.134E+02 0.362E+00
CGA:   4    -0.483173200266E+03   -0.29255E+01   -0.29375E+01   688   0.235E+01 0.261E-01
CGA:   5    -0.483737033695E+03   -0.56383E+00   -0.56383E+00   688   0.601E+00 0.454E-03
CGA:   6    -0.483883833174E+03   -0.14680E+00   -0.14686E+00   688   0.182E+00 0.360E-03
CGA:   7    -0.483939479336E+03   -0.55646E-01   -0.55646E-01   688   0.770E-01 0.742E-05
CGA:   8    -0.483966658227E+03   -0.27179E-01   -0.27172E-01   688   0.344E-01 0.895E-04
CGA:   9    -0.483978705316E+03   -0.12047E-01   -0.12045E-01   688   0.133E-01 0.346E-04
CGA:  10    -0.483983043216E+03   -0.43379E-02   -0.43376E-02   688   0.428E-02 0.853E-05
CGA:  11    -0.483984550296E+03   -0.15071E-02   -0.15068E-02   688   0.162E-02 0.447E-05
CGA:  12    -0.483985169541E+03   -0.61925E-03   -0.61922E-03   688   0.758E-03 0.117E-06
CGA:  13    -0.483985466969E+03   -0.29743E-03   -0.29754E-03   688   0.356E-03-0.131E-05
CGA:  14    -0.483985601074E+03   -0.13411E-03   -0.13415E-03   688   0.153E-03-0.624E-06
CGA:  15    -0.483985659482E+03   -0.58407E-04   -0.58416E-04   688   0.664E-04 0.608E-06
  16 F= -.48777433E+03 E0= -.48775986E+03  d E =-.511420E+00  mag=     1.7507
       N       E                     dE             d eps       ncg     rms          ort
SDA:   1    -0.468355068082E+03    0.15631E+02    0.00000E+00   688   0.427E+02 0.000E+00
CGA:   2    -0.480320002184E+03   -0.11965E+02   -0.11972E+02   688   0.125E+02 0.623E-01
CGA:   3    -0.483266934682E+03   -0.29469E+01   -0.29394E+01   688   0.367E+01-0.970E-02
CGA:   4    -0.483898564507E+03   -0.63163E+00   -0.63734E+00   688   0.806E+00-0.105E-01
CGA:   5    -0.484073436031E+03   -0.17487E+00   -0.17470E+00   688   0.168E+00-0.109E-04
CGA:   6    -0.484117995519E+03   -0.44559E-01   -0.44559E-01   688   0.523E-01 0.183E-05
CGA:   7    -0.484133788478E+03   -0.15793E-01   -0.15793E-01   688   0.245E-01 0.601E-05
CGA:   8    -0.484141721687E+03   -0.79332E-02   -0.79332E-02   688   0.111E-01 0.691E-05
CGA:   9    -0.484145330570E+03   -0.36089E-02   -0.36089E-02   688   0.414E-02-0.161E-05
CGA:  10    -0.484146635634E+03   -0.13051E-02   -0.13050E-02   688   0.129E-02 0.257E-05
CGA:  11    -0.484147086262E+03   -0.45063E-03   -0.45067E-03   688   0.473E-03-0.947E-06
CGA:  12    -0.484147269283E+03   -0.18302E-03   -0.18330E-03   688   0.209E-03-0.343E-05
CGA:  13    -0.484147350705E+03   -0.81422E-04   -0.81493E-04   688   0.925E-04-0.825E-06
  17 F= -.48793216E+03 E0= -.48791654E+03  d E =-.669248E+00  mag=     1.7171
       N       E                     dE             d eps       ncg     rms          ort
SDA:   1    -0.482539051274E+03    0.16082E+01    0.00000E+00   688   0.470E+01 0.000E+00
CGA:   2    -0.483944004740E+03   -0.14050E+01   -0.14050E+01   688   0.129E+01 0.196E-02
CGA:   3    -0.484273168384E+03   -0.32916E+00   -0.32916E+00   688   0.290E+00 0.426E-04
CGA:   4    -0.484333260805E+03   -0.60092E-01   -0.60100E-01   688   0.649E-01-0.162E-04
CGA:   5    -0.484346888529E+03   -0.13628E-01   -0.13623E-01   688   0.173E-01 0.228E-04
CGA:   6    -0.484351150588E+03   -0.42621E-02   -0.42620E-02   688   0.566E-02-0.620E-05
CGA:   7    -0.484352995816E+03   -0.18452E-02   -0.18450E-02   688   0.263E-02 0.959E-05
CGA:   8    -0.484353935519E+03   -0.93970E-03   -0.93945E-03   688   0.121E-02 0.448E-05
CGA:   9    -0.484354328662E+03   -0.39314E-03   -0.39317E-03   688   0.420E-03-0.131E-05
CGA:  10    -0.484354458730E+03   -0.13007E-03   -0.13006E-03   688   0.127E-03 0.230E-05
CGA:  11    -0.484354504671E+03   -0.45941E-04   -0.45977E-04   688   0.501E-04-0.660E-06
  18 F= -.48814271E+03 E0= -.48812606E+03  d E =-.210548E+00  mag=     1.6854
       N       E                     dE             d eps       ncg     rms          ort
SDA:   1    -0.468329478711E+03    0.16025E+02    0.00000E+00   688   0.425E+02 0.000E+00
CGA:   2    -0.480936865552E+03   -0.12607E+02   -0.12609E+02   688   0.121E+02 0.535E-01
CGA:   3    -0.483862231208E+03   -0.29254E+01   -0.29254E+01   688   0.324E+01 0.387E-02
CGA:   4    -0.484452126404E+03   -0.58990E+00   -0.59308E+00   688   0.758E+00-0.330E-02
CGA:   5    -0.484611600045E+03   -0.15947E+00   -0.15923E+00   688   0.170E+00 0.379E-04
CGA:   6    -0.484656920984E+03   -0.45321E-01   -0.45325E-01   688   0.541E-01 0.615E-04
CGA:   7    -0.484674312189E+03   -0.17391E-01   -0.17390E-01   688   0.268E-01 0.219E-04
CGA:   8    -0.484683200513E+03   -0.88883E-02   -0.88875E-02   688   0.127E-01 0.291E-04
CGA:   9    -0.484687315251E+03   -0.41147E-02   -0.41148E-02   688   0.443E-02-0.204E-05
CGA:  10    -0.484688733510E+03   -0.14183E-02   -0.14182E-02   688   0.139E-02 0.451E-05
CGA:  11    -0.484689210029E+03   -0.47652E-03   -0.47649E-03   688   0.563E-03 0.911E-06
CGA:  12    -0.484689415877E+03   -0.20585E-03   -0.20609E-03   688   0.274E-03-0.382E-05
CGA:  13    -0.484689515718E+03   -0.99841E-04   -0.99960E-04   688   0.126E-03-0.177E-05
  19 F= -.48848733E+03 E0= -.48846739E+03  d E =-.555170E+00  mag=     1.5707
       N       E                     dE             d eps       ncg     rms          ort
SDA:   1    -0.483085494199E+03    0.16039E+01    0.00000E+00   688   0.420E+01 0.000E+00
CGA:   2    -0.484340869026E+03   -0.12554E+01   -0.12554E+01   688   0.116E+01 0.177E-02
CGA:   3    -0.484635376221E+03   -0.29451E+00   -0.29450E+00   688   0.258E+00 0.222E-04
CGA:   4    -0.484689055481E+03   -0.53679E-01   -0.53686E-01   688   0.576E-01-0.166E-04
CGA:   5    -0.484701121837E+03   -0.12066E-01   -0.12063E-01   688   0.156E-01 0.219E-04
CGA:   6    -0.484704946017E+03   -0.38242E-02   -0.38241E-02   688   0.507E-02-0.696E-05
CGA:   7    -0.484706617815E+03   -0.16718E-02   -0.16715E-02   688   0.237E-02 0.878E-05
CGA:   8    -0.484707476477E+03   -0.85866E-03   -0.85844E-03   688   0.111E-02 0.349E-05
CGA:   9    -0.484707837700E+03   -0.36122E-03   -0.36127E-03   688   0.395E-03-0.195E-05
CGA:  10    -0.484707960631E+03   -0.12293E-03   -0.12291E-03   688   0.126E-03 0.210E-05
CGA:  11    -0.484708007569E+03   -0.46938E-04   -0.47004E-04   688   0.543E-04-0.978E-06
  20 F= -.48850868E+03 E0= -.48848745E+03  d E =-.576518E+00  mag=     1.5176
       N       E                     dE             d eps       ncg     rms          ort
SDA:   1    -0.481148527667E+03    0.35594E+01    0.00000E+00   688   0.976E+01 0.000E+00
CGA:   2    -0.484069434539E+03   -0.29209E+01   -0.29212E+01   688   0.272E+01 0.114E-01
CGA:   3    -0.484745257511E+03   -0.67582E+00   -0.67571E+00   688   0.623E+00-0.225E-03
CGA:   4    -0.484875220643E+03   -0.12996E+00   -0.13002E+00   688   0.122E+00 0.162E-04
CGA:   5    -0.484903085287E+03   -0.27865E-01   -0.27864E-01   688   0.307E-01 0.857E-05
CGA:   6    -0.484910729363E+03   -0.76441E-02   -0.76440E-02   688   0.101E-01-0.665E-05
CGA:   7    -0.484913885160E+03   -0.31558E-02   -0.31557E-02   688   0.477E-02 0.877E-05
CGA:   8    -0.484915516596E+03   -0.16314E-02   -0.16315E-02   688   0.219E-02-0.185E-05
CGA:   9    -0.484916238254E+03   -0.72166E-03   -0.72163E-03   688   0.730E-03 0.755E-06
CGA:  10    -0.484916472469E+03   -0.23422E-03   -0.23419E-03   688   0.220E-03 0.102E-05
CGA:  11    -0.484916550698E+03   -0.78229E-04   -0.78236E-04   688   0.815E-04-0.144E-06
  21 F= -.48872156E+03 E0= -.48870024E+03  d E =-.212881E+00  mag=     1.5139
       N       E                     dE             d eps       ncg     rms          ort
SDA:   1    -0.480574928534E+03    0.43415E+01    0.00000E+00   688   0.114E+02 0.000E+00
CGA:   2    -0.483993531549E+03   -0.34186E+01   -0.34189E+01   688   0.319E+01 0.147E-01
CGA:   3    -0.484784062491E+03   -0.79053E+00   -0.79039E+00   688   0.748E+00-0.287E-03
CGA:   4    -0.484937020551E+03   -0.15296E+00   -0.15305E+00   688   0.152E+00 0.279E-04
CGA:   5    -0.484970667918E+03   -0.33647E-01   -0.33646E-01   688   0.385E-01 0.108E-04
CGA:   6    -0.484980185243E+03   -0.95173E-02   -0.95172E-02   688   0.121E-01-0.606E-05
CGA:   7    -0.484984049903E+03   -0.38647E-02   -0.38644E-02   688   0.561E-02 0.790E-05
CGA:   8    -0.484986012989E+03   -0.19631E-02   -0.19631E-02   688   0.258E-02-0.113E-06
CGA:   9    -0.484986870736E+03   -0.85775E-03   -0.85774E-03   688   0.875E-03 0.206E-06
CGA:  10    -0.484987151756E+03   -0.28102E-03   -0.28100E-03   688   0.269E-03 0.106E-05
CGA:  11    -0.484987247292E+03   -0.95537E-04   -0.95528E-04   688   0.101E-03 0.148E-06
  22 F= -.48879680E+03 E0= -.48877572E+03  d E =-.288124E+00  mag=     1.5245
       N       E                     dE             d eps       ncg     rms          ort
SDA:   1    -0.481337999915E+03    0.36492E+01    0.00000E+00   688   0.101E+02 0.000E+00
CGA:   2    -0.484336856144E+03   -0.29989E+01   -0.29990E+01   688   0.271E+01 0.700E-02
CGA:   3    -0.485025605760E+03   -0.68875E+00   -0.68882E+00   688   0.577E+00 0.493E-03
CGA:   4    -0.485152590502E+03   -0.12698E+00   -0.12696E+00   688   0.108E+00-0.111E-04
CGA:   5    -0.485178747749E+03   -0.26157E-01   -0.26158E-01   688   0.273E-01 0.196E-04
CGA:   6    -0.485185751115E+03   -0.70034E-02   -0.70036E-02   688   0.101E-01-0.322E-05
CGA:   7    -0.485188889912E+03   -0.31388E-02   -0.31387E-02   688   0.491E-02 0.511E-05
CGA:   8    -0.485190563102E+03   -0.16732E-02   -0.16733E-02   688   0.213E-02-0.385E-05
CGA:   9    -0.485191264298E+03   -0.70120E-03   -0.70120E-03   688   0.674E-03-0.143E-06
CGA:  10    -0.485191483080E+03   -0.21878E-03   -0.21878E-03   688   0.216E-03 0.137E-06
CGA:  11    -0.485191562212E+03   -0.79132E-04   -0.79226E-04   688   0.927E-04-0.146E-05
  23 F= -.48900504E+03 E0= -.48898514E+03  d E =-.208243E+00  mag=     1.5711
       N       E                     dE             d eps       ncg     rms          ort
SDA:   1    -0.450755080297E+03    0.34436E+02    0.00000E+00   688   0.911E+02 0.000E+00
CGA:   2    -0.477740604793E+03   -0.26986E+02   -0.26990E+02   688   0.250E+02 0.102E+00
CGA:   3    -0.483882908990E+03   -0.61423E+01   -0.61589E+01   688   0.578E+01 0.841E-01
CGA:   4    -0.485088238011E+03   -0.12053E+01   -0.12063E+01   688   0.127E+01 0.360E-02
CGA:   5    -0.485359704178E+03   -0.27147E+00   -0.27091E+00   688   0.344E+00-0.298E-03
CGA:   6    -0.485443619238E+03   -0.83915E-01   -0.83962E-01   688   0.103E+00 0.262E-03
CGA:   7    -0.485478208604E+03   -0.34589E-01   -0.34589E-01   688   0.473E-01 0.161E-04
CGA:   8    -0.485494954322E+03   -0.16746E-01   -0.16745E-01   688   0.215E-01 0.144E-04
CGA:   9    -0.485501877549E+03   -0.69232E-02   -0.69230E-02   688   0.736E-02 0.374E-05
CGA:  10    -0.485504210136E+03   -0.23326E-02   -0.23325E-02   688   0.226E-02 0.597E-05
CGA:  11    -0.485505038807E+03   -0.82867E-03   -0.82894E-03   688   0.901E-03-0.425E-05
CGA:  12    -0.485505409339E+03   -0.37053E-03   -0.37088E-03   688   0.448E-03-0.339E-05
CGA:  13    -0.485505592601E+03   -0.18326E-03   -0.18354E-03   688   0.208E-03-0.256E-05
CGA:  14    -0.485505674647E+03   -0.82046E-04   -0.82178E-04   688   0.934E-04-0.806E-06
  24 F= -.48932991E+03 E0= -.48931453E+03  d E =-.533106E+00  mag=     1.7133
       N       E                     dE             d eps       ncg     rms          ort
SDA:   1    -0.483897745930E+03    0.16078E+01    0.00000E+00   688   0.422E+01 0.000E+00
CGA:   2    -0.485157790784E+03   -0.12600E+01   -0.12601E+01   688   0.113E+01 0.158E-02
CGA:   3    -0.485445540666E+03   -0.28775E+00   -0.28774E+00   688   0.240E+00-0.387E-04
CGA:   4    -0.485498322358E+03   -0.52782E-01   -0.52776E-01   688   0.445E-01-0.707E-05
CGA:   5    -0.485509245185E+03   -0.10923E-01   -0.10923E-01   688   0.109E-01 0.468E-05
CGA:   6    -0.485512143282E+03   -0.28981E-02   -0.28981E-02   688   0.401E-02-0.679E-06
CGA:   7    -0.485513415768E+03   -0.12725E-02   -0.12725E-02   688   0.199E-02 0.333E-06
CGA:   8    -0.485514078133E+03   -0.66236E-03   -0.66242E-03   688   0.868E-03-0.241E-05
CGA:   9    -0.485514359444E+03   -0.28131E-03   -0.28132E-03   688   0.268E-03-0.478E-06
CGA:  10    -0.485514448160E+03   -0.88716E-04   -0.88726E-04   688   0.855E-04-0.481E-06
  25 F= -.48934078E+03 E0= -.48932665E+03  d E =-.543976E+00  mag=     1.7457
       N       E                     dE             d eps       ncg     rms          ort
SDA:   1    -0.480532243099E+03    0.49821E+01    0.00000E+00   688   0.137E+02 0.000E+00
CGA:   2    -0.484603313560E+03   -0.40711E+01   -0.40711E+01   688   0.368E+01-0.116E-03
CGA:   3    -0.485531981071E+03   -0.92867E+00   -0.92906E+00   688   0.818E+00 0.210E-02
CGA:   4    -0.485706765891E+03   -0.17478E+00   -0.17478E+00   688   0.168E+00 0.330E-04
CGA:   5    -0.485744177493E+03   -0.37412E-01   -0.37397E-01   688   0.484E-01 0.140E-04
CGA:   6    -0.485755577285E+03   -0.11400E-01   -0.11402E-01   688   0.159E-01-0.965E-05
CGA:   7    -0.485760817384E+03   -0.52401E-02   -0.52399E-02   688   0.754E-02 0.640E-05
CGA:   8    -0.485763537028E+03   -0.27196E-02   -0.27195E-02   688   0.341E-02 0.261E-05
CGA:   9    -0.485764651284E+03   -0.11143E-02   -0.11143E-02   688   0.117E-02-0.333E-05
CGA:  10    -0.485765008490E+03   -0.35721E-03   -0.35720E-03   688   0.361E-03 0.226E-05
CGA:  11    -0.485765135995E+03   -0.12751E-03   -0.12758E-03   688   0.138E-03-0.157E-05
CGA:  12    -0.485765189798E+03   -0.53803E-04   -0.53815E-04   688   0.642E-04-0.146E-06
  26 F= -.48959261E+03 E0= -.48958045E+03  d E =-.251838E+00  mag=     1.7939
       N       E                     dE             d eps       ncg     rms          ort
SDA:   1    -0.454866676047E+03    0.30898E+02    0.00000E+00   688   0.817E+02 0.000E+00
CGA:   2    -0.478979954613E+03   -0.24113E+02   -0.24112E+02   688   0.228E+02-0.642E-01
CGA:   3    -0.484471597866E+03   -0.54916E+01   -0.55077E+01   688   0.566E+01 0.634E-01
CGA:   4    -0.485587338158E+03   -0.11157E+01   -0.11197E+01   688   0.132E+01 0.121E-02
CGA:   5    -0.485862987414E+03   -0.27565E+00   -0.27490E+00   688   0.329E+00-0.451E-05
CGA:   6    -0.485947817142E+03   -0.84830E-01   -0.84853E-01   688   0.959E-01 0.197E-03
CGA:   7    -0.485980476335E+03   -0.32659E-01   -0.32659E-01   688   0.473E-01 0.106E-04
CGA:   8    -0.485996595712E+03   -0.16119E-01   -0.16119E-01   688   0.226E-01 0.131E-04
CGA:   9    -0.486003843857E+03   -0.72481E-02   -0.72480E-02   688   0.775E-02 0.501E-06
CGA:  10    -0.486006315118E+03   -0.24713E-02   -0.24712E-02   688   0.233E-02 0.296E-05
CGA:  11    -0.486007135808E+03   -0.82069E-03   -0.82070E-03   688   0.880E-03-0.310E-06
CGA:  12    -0.486007472647E+03   -0.33684E-03   -0.33718E-03   688   0.395E-03-0.439E-05
CGA:  13    -0.486007623709E+03   -0.15106E-03   -0.15113E-03   688   0.161E-03-0.737E-06
CGA:  14    -0.486007681969E+03   -0.58260E-04   -0.58315E-04   688   0.615E-04-0.390E-06
  27 F= -.48983662E+03 E0= -.48982701E+03  d E =-.495848E+00  mag=     1.8645
       N       E                     dE             d eps       ncg     rms          ort
SDA:   1    -0.478018966650E+03    0.79887E+01    0.00000E+00   688   0.215E+02 0.000E+00
CGA:   2    -0.484324340196E+03   -0.63054E+01   -0.63049E+01   688   0.593E+01-0.118E-01
CGA:   3    -0.485783320887E+03   -0.14590E+01   -0.14604E+01   688   0.146E+01 0.552E-02
CGA:   4    -0.486075190134E+03   -0.29187E+00   -0.29197E+00   688   0.312E+00 0.199E-03
CGA:   5    -0.486141280884E+03   -0.66091E-01   -0.66034E-01   688   0.806E-01 0.518E-04
CGA:   6    -0.486160864706E+03   -0.19584E-01   -0.19587E-01   688   0.233E-01 0.520E-05
CGA:   7    -0.486168336987E+03   -0.74723E-02   -0.74722E-02   688   0.106E-01 0.764E-05
CGA:   8    -0.486172012294E+03   -0.36753E-02   -0.36750E-02   688   0.493E-02 0.761E-05
CGA:   9    -0.486173650444E+03   -0.16381E-02   -0.16382E-02   688   0.175E-02-0.105E-05
CGA:  10    -0.486174203262E+03   -0.55282E-03   -0.55280E-03   688   0.536E-03 0.171E-05
CGA:  11    -0.486174390555E+03   -0.18729E-03   -0.18740E-03   688   0.194E-03-0.246E-05
CGA:  12    -0.486174466148E+03   -0.75593E-04   -0.75645E-04   688   0.842E-04-0.622E-06
  28 F= -.49000526E+03 E0= -.48999490E+03  d E =-.168641E+00  mag=     1.8623
       N       E                     dE             d eps       ncg     rms          ort
SDA:   1    -0.485857348876E+03    0.31704E+00    0.00000E+00   688   0.845E+00 0.000E+00
CGA:   2    -0.486106054935E+03   -0.24871E+00   -0.24870E+00   688   0.228E+00-0.674E-04
CGA:   3    -0.486163544464E+03   -0.57490E-01   -0.57495E-01   688   0.523E-01 0.219E-04
CGA:   4    -0.486174610629E+03   -0.11066E-01   -0.11065E-01   688   0.994E-02 0.390E-05
CGA:   5    -0.486176932037E+03   -0.23214E-02   -0.23218E-02   688   0.256E-02 0.554E-05
CGA:   6    -0.486177561387E+03   -0.62935E-03   -0.62924E-03   688   0.843E-03-0.222E-05
CGA:   7    -0.486177823930E+03   -0.26254E-03   -0.26251E-03   688   0.398E-03 0.286E-05
CGA:   8    -0.486177960977E+03   -0.13705E-03   -0.13708E-03   688   0.187E-03-0.874E-06
CGA:   9    -0.486178022625E+03   -0.61648E-04   -0.61646E-04   688   0.643E-04 0.717E-07
  29 F= -.49000915E+03 E0= -.48999864E+03  d E =-.172527E+00  mag=     1.8624
       N       E                     dE             d eps       ncg     rms          ort
SDA:   1    -0.478603378603E+03    0.75746E+01    0.00000E+00   688   0.204E+02 0.000E+00
CGA:   2    -0.484636173765E+03   -0.60328E+01   -0.60328E+01   688   0.558E+01 0.382E-04
CGA:   3    -0.486008451502E+03   -0.13723E+01   -0.13732E+01   688   0.141E+01 0.524E-02
CGA:   4    -0.486283392521E+03   -0.27494E+00   -0.27540E+00   688   0.324E+00-0.606E-04
CGA:   5    -0.486350379762E+03   -0.66987E-01   -0.66906E-01   688   0.828E-01 0.593E-05
CGA:   6    -0.486371552990E+03   -0.21173E-01   -0.21175E-01   688   0.248E-01 0.640E-05
CGA:   7    -0.486379957684E+03   -0.84047E-02   -0.84043E-02   688   0.122E-01 0.995E-05
CGA:   8    -0.486384119969E+03   -0.41623E-02   -0.41615E-02   688   0.569E-02 0.175E-04
CGA:   9    -0.486385940196E+03   -0.18202E-02   -0.18203E-02   688   0.194E-02-0.294E-05
CGA:  10    -0.486386547352E+03   -0.60716E-03   -0.60710E-03   688   0.589E-03 0.347E-05
CGA:  11    -0.486386751937E+03   -0.20458E-03   -0.20459E-03   688   0.218E-03-0.138E-06
CGA:  12    -0.486386835338E+03   -0.83401E-04   -0.83466E-04   688   0.947E-04-0.771E-06
  30 F= -.49022159E+03 E0= -.49020990E+03  d E =-.212439E+00  mag=     1.8536
       N       E                     dE             d eps       ncg     rms          ort
SDA:   1    -0.481661234084E+03    0.47255E+01    0.00000E+00   688   0.125E+02 0.000E+00
CGA:   2    -0.485363620225E+03   -0.37024E+01   -0.37024E+01   688   0.339E+01 0.506E-03
CGA:   3    -0.486207642497E+03   -0.84402E+00   -0.84437E+00   688   0.823E+00 0.200E-02
CGA:   4    -0.486372592374E+03   -0.16495E+00   -0.16507E+00   688   0.184E+00 0.798E-06
CGA:   5    -0.486410963236E+03   -0.38371E-01   -0.38338E-01   688   0.496E-01 0.226E-04
CGA:   6    -0.486423334624E+03   -0.12371E-01   -0.12372E-01   688   0.150E-01-0.552E-05
CGA:   7    -0.486428429546E+03   -0.50949E-02   -0.50945E-02   688   0.722E-02 0.100E-04
CGA:   8    -0.486430949137E+03   -0.25196E-02   -0.25190E-02   688   0.334E-02 0.109E-04
CGA:   9    -0.486432024407E+03   -0.10753E-02   -0.10753E-02   688   0.113E-02-0.310E-05
CGA:  10    -0.486432378539E+03   -0.35413E-03   -0.35409E-03   688   0.347E-03 0.291E-05
CGA:  11    -0.486432499716E+03   -0.12118E-03   -0.12121E-03   688   0.132E-03-0.616E-06
CGA:  12    -0.486432549742E+03   -0.50025E-04   -0.50041E-04   688   0.581E-04-0.194E-06
  31 F= -.49026996E+03 E0= -.49025723E+03  d E =-.260812E+00  mag=     1.8474
       N       E                     dE             d eps       ncg     rms          ort
SDA:   1    -0.483530152292E+03    0.29023E+01    0.00000E+00   688   0.794E+01 0.000E+00
CGA:   2    -0.485853520186E+03   -0.23234E+01   -0.23237E+01   688   0.221E+01 0.836E-02
CGA:   3    -0.486407678684E+03   -0.55416E+00   -0.55372E+00   688   0.528E+00-0.174E-02
CGA:   4    -0.486512335908E+03   -0.10466E+00   -0.10475E+00   688   0.124E+00-0.409E-04
CGA:   5    -0.486537322747E+03   -0.24987E-01   -0.24966E-01   688   0.316E-01 0.417E-04
CGA:   6    -0.486545370562E+03   -0.80478E-02   -0.80473E-02   688   0.948E-02-0.124E-04
CGA:   7    -0.486548548189E+03   -0.31776E-02   -0.31772E-02   688   0.449E-02 0.947E-05
CGA:   8    -0.486550094186E+03   -0.15460E-02   -0.15455E-02   688   0.208E-02 0.105E-04
CGA:   9    -0.486550759015E+03   -0.66483E-03   -0.66487E-03   688   0.734E-03-0.198E-05
CGA:  10    -0.486550984736E+03   -0.22572E-03   -0.22570E-03   688   0.225E-03 0.252E-05
CGA:  11    -0.486551063203E+03   -0.78467E-04   -0.78487E-04   688   0.863E-04-0.405E-06
  32 F= -.49039304E+03 E0= -.49038002E+03  d E =-.123081E+00  mag=     1.8418
       N       E                     dE             d eps       ncg     rms          ort
SDA:   1    -0.471039033995E+03    0.15512E+02    0.00000E+00   688   0.411E+02 0.000E+00
CGA:   2    -0.482951726800E+03   -0.11913E+02   -0.11915E+02   688   0.119E+02 0.697E-01
CGA:   3    -0.485769307983E+03   -0.28176E+01   -0.28155E+01   688   0.344E+01-0.651E-03
CGA:   4    -0.486375854293E+03   -0.60655E+00   -0.61101E+00   688   0.775E+00-0.585E-02
CGA:   5    -0.486541934118E+03   -0.16608E+00   -0.16589E+00   688   0.167E+00-0.153E-03
CGA:   6    -0.486587382351E+03   -0.45448E-01   -0.45448E-01   688   0.528E-01-0.589E-05
CGA:   7    -0.486603849402E+03   -0.16467E-01   -0.16466E-01   688   0.266E-01 0.283E-04
CGA:   8    -0.486612417963E+03   -0.85686E-02   -0.85677E-02   688   0.120E-01 0.339E-04
CGA:   9    -0.486616368915E+03   -0.39510E-02   -0.39509E-02   688   0.423E-02 0.469E-06
CGA:  10    -0.486617693405E+03   -0.13245E-02   -0.13244E-02   688   0.132E-02 0.256E-05
CGA:  11    -0.486618142692E+03   -0.44929E-03   -0.44919E-03   688   0.494E-03 0.233E-05
CGA:  12    -0.486618331559E+03   -0.18887E-03   -0.18910E-03   688   0.221E-03-0.281E-05
CGA:  13    -0.486618415477E+03   -0.83918E-04   -0.83984E-04   688   0.951E-04-0.815E-06
  33 F= -.49047031E+03 E0= -.49045633E+03  d E =-.200351E+00  mag=     1.8292
       N       E                     dE             d eps       ncg     rms          ort
SDA:   1    -0.483983971881E+03    0.26344E+01    0.00000E+00   688   0.718E+01 0.000E+00
CGA:   2    -0.486064934293E+03   -0.20810E+01   -0.20811E+01   688   0.199E+01 0.393E-02
CGA:   3    -0.486560667413E+03   -0.49573E+00   -0.49564E+00   688   0.485E+00-0.272E-03
CGA:   4    -0.486655411726E+03   -0.94744E-01   -0.94836E-01   688   0.111E+00-0.732E-04
CGA:   5    -0.486677994299E+03   -0.22583E-01   -0.22567E-01   688   0.276E-01 0.298E-04
CGA:   6    -0.486684960367E+03   -0.69661E-02   -0.69658E-02   688   0.802E-02-0.127E-04
CGA:   7    -0.486687577212E+03   -0.26168E-02   -0.26167E-02   688   0.372E-02 0.354E-05
CGA:   8    -0.486688841223E+03   -0.12640E-02   -0.12637E-02   688   0.170E-02 0.699E-05
CGA:   9    -0.486689396344E+03   -0.55512E-03   -0.55519E-03   688   0.610E-03-0.260E-05
CGA:  10    -0.486689584393E+03   -0.18805E-03   -0.18803E-03   688   0.188E-03 0.158E-05
CGA:  11    -0.486689649511E+03   -0.65118E-04   -0.65121E-04   688   0.710E-04-0.700E-07
  34 F= -.49054523E+03 E0= -.49053206E+03  d E =-.749119E-01  mag=     1.8284
       N       E                     dE             d eps       ncg     rms          ort
SDA:   1    -0.483039394614E+03    0.36502E+01    0.00000E+00   688   0.976E+01 0.000E+00
CGA:   2    -0.485865182853E+03   -0.28258E+01   -0.28260E+01   688   0.271E+01 0.526E-02
CGA:   3    -0.486536814781E+03   -0.67163E+00   -0.67165E+00   688   0.681E+00 0.331E-03
CGA:   4    -0.486666964487E+03   -0.13015E+00   -0.13033E+00   688   0.157E+00-0.141E-03
CGA:   5    -0.486699022979E+03   -0.32058E-01   -0.32034E-01   688   0.375E-01 0.261E-04
CGA:   6    -0.486708631244E+03   -0.96083E-02   -0.96082E-02   688   0.110E-01-0.111E-04
CGA:   7    -0.486712194935E+03   -0.35637E-02   -0.35636E-02   688   0.520E-02 0.243E-05
CGA:   8    -0.486713936486E+03   -0.17416E-02   -0.17411E-02   688   0.239E-02 0.960E-05
CGA:   9    -0.486714715890E+03   -0.77940E-03   -0.77949E-03   688   0.851E-03-0.291E-05
CGA:  10    -0.486714981054E+03   -0.26516E-03   -0.26513E-03   688   0.262E-03 0.172E-05
CGA:  11    -0.486715071687E+03   -0.90633E-04   -0.90626E-04   688   0.983E-04 0.127E-06
  35 F= -.49057481E+03 E0= -.49056257E+03  d E =-.104492E+00  mag=     1.8307
       N       E                     dE             d eps       ncg     rms          ort
SDA:   1    -0.483841250310E+03    0.28737E+01    0.00000E+00   688   0.773E+01 0.000E+00
CGA:   2    -0.486125550302E+03   -0.22843E+01   -0.22843E+01   688   0.218E+01-0.288E-02
CGA:   3    -0.486667403866E+03   -0.54185E+00   -0.54205E+00   688   0.538E+00 0.112E-02
CGA:   4    -0.486771742956E+03   -0.10434E+00   -0.10440E+00   688   0.119E+00-0.121E-04
CGA:   5    -0.486796839524E+03   -0.25097E-01   -0.25085E-01   688   0.313E-01 0.292E-04
CGA:   6    -0.486804678698E+03   -0.78392E-02   -0.78392E-02   688   0.991E-02-0.961E-05
CGA:   7    -0.486807937486E+03   -0.32588E-02   -0.32587E-02   688   0.481E-02 0.250E-05
CGA:   8    -0.486809578258E+03   -0.16408E-02   -0.16406E-02   688   0.219E-02 0.383E-05
CGA:   9    -0.486810290876E+03   -0.71262E-03   -0.71275E-03   688   0.760E-03-0.408E-05
CGA:  10    -0.486810526964E+03   -0.23609E-03   -0.23608E-03   688   0.239E-03 0.685E-06
CGA:  11    -0.486810609278E+03   -0.82314E-04   -0.82387E-04   688   0.904E-04-0.150E-05
  36 F= -.49067290E+03 E0= -.49066171E+03  d E =-.980915E-01  mag=     1.8388
       N       E                     dE             d eps       ncg     rms          ort
SDA:   1    -0.486294806787E+03    0.51572E+00    0.00000E+00   688   0.136E+01 0.000E+00
CGA:   2    -0.486698299302E+03   -0.40349E+00   -0.40349E+00   688   0.378E+00-0.205E-03
CGA:   3    -0.486794151836E+03   -0.95853E-01   -0.95863E-01   688   0.875E-01 0.726E-04
CGA:   4    -0.486812041731E+03   -0.17890E-01   -0.17889E-01   688   0.181E-01 0.726E-06
CGA:   5    -0.486816046885E+03   -0.40052E-02   -0.40056E-02   688   0.509E-02 0.119E-04
CGA:   6    -0.486817264894E+03   -0.12180E-02   -0.12177E-02   688   0.176E-02-0.713E-05
CGA:   7    -0.486817814456E+03   -0.54956E-03   -0.54951E-03   688   0.847E-03 0.220E-05
CGA:   8    -0.486818104774E+03   -0.29032E-03   -0.29032E-03   688   0.383E-03-0.975E-07
CGA:   9    -0.486818231272E+03   -0.12650E-03   -0.12657E-03   688   0.134E-03-0.186E-05
CGA:  10    -0.486818272468E+03   -0.41196E-04   -0.41190E-04   688   0.429E-04 0.394E-06
  37 F= -.49068159E+03 E0= -.49067079E+03  d E =-.106780E+00  mag=     1.8423
       N       E                     dE             d eps       ncg     rms          ort
SDA:   1    -0.485137289146E+03    0.16809E+01    0.00000E+00   688   0.450E+01 0.000E+00
CGA:   2    -0.486481271121E+03   -0.13440E+01   -0.13440E+01   688   0.126E+01-0.214E-03
CGA:   3    -0.486800695204E+03   -0.31942E+00   -0.31945E+00   688   0.295E+00 0.247E-03
CGA:   4    -0.486859860476E+03   -0.59165E-01   -0.59181E-01   688   0.633E-01-0.273E-04
CGA:   5    -0.486873527916E+03   -0.13667E-01   -0.13664E-01   688   0.179E-01 0.116E-04
CGA:   6    -0.486877902547E+03   -0.43746E-02   -0.43744E-02   688   0.582E-02-0.122E-04
CGA:   7    -0.486879839603E+03   -0.19371E-02   -0.19370E-02   688   0.284E-02 0.816E-06
CGA:   8    -0.486880824086E+03   -0.98448E-03   -0.98451E-03   688   0.129E-02-0.410E-06
CGA:   9    -0.486881238216E+03   -0.41413E-03   -0.41424E-03   688   0.441E-03-0.361E-05
CGA:  10    -0.486881373977E+03   -0.13576E-03   -0.13575E-03   688   0.136E-03 0.792E-06
CGA:  11    -0.486881421256E+03   -0.47279E-04   -0.47313E-04   688   0.512E-04-0.642E-06
  38 F= -.49074538E+03 E0= -.49073519E+03  d E =-.637987E-01  mag=     1.8602
       N       E                     dE             d eps       ncg     rms          ort
SDA:   1    -0.486201755829E+03    0.67962E+00    0.00000E+00   688   0.178E+01 0.000E+00
CGA:   2    -0.486733627685E+03   -0.53187E+00   -0.53187E+00   688   0.498E+00-0.907E-04
CGA:   3    -0.486860224402E+03   -0.12660E+00   -0.12660E+00   688   0.114E+00 0.532E-04
CGA:   4    -0.486883411060E+03   -0.23187E-01   -0.23187E-01   688   0.238E-01-0.198E-04
CGA:   5    -0.486888657775E+03   -0.52467E-02   -0.52467E-02   688   0.681E-02 0.748E-05
CGA:   6    -0.486890306326E+03   -0.16486E-02   -0.16482E-02   688   0.227E-02-0.835E-05
CGA:   7    -0.486891055755E+03   -0.74943E-03   -0.74942E-03   688   0.111E-02 0.224E-06
CGA:   8    -0.486891440129E+03   -0.38437E-03   -0.38443E-03   688   0.509E-03-0.985E-06
CGA:   9    -0.486891603534E+03   -0.16341E-03   -0.16348E-03   688   0.174E-03-0.240E-05
CGA:  10    -0.486891657309E+03   -0.53774E-04   -0.53767E-04   688   0.533E-04 0.389E-06
  39 F= -.49075597E+03 E0= -.49074607E+03  d E =-.743812E-01  mag=     1.8702
       N       E                     dE             d eps       ncg     rms          ort
SDA:   1    -0.485557951899E+03    0.13337E+01    0.00000E+00   688   0.362E+01 0.000E+00
CGA:   2    -0.486624153241E+03   -0.10662E+01   -0.10662E+01   688   0.993E+00 0.574E-03
CGA:   3    -0.486880224488E+03   -0.25607E+00   -0.25606E+00   688   0.221E+00-0.594E-04
CGA:   4    -0.486926270371E+03   -0.46046E-01   -0.46045E-01   688   0.464E-01-0.167E-04
CGA:   5    -0.486936568939E+03   -0.10299E-01   -0.10298E-01   688   0.132E-01 0.167E-04
CGA:   6    -0.486939755321E+03   -0.31864E-02   -0.31862E-02   688   0.451E-02-0.710E-05
CGA:   7    -0.486941206491E+03   -0.14512E-02   -0.14510E-02   688   0.214E-02 0.461E-05
CGA:   8    -0.486941951833E+03   -0.74534E-03   -0.74546E-03   688   0.952E-03-0.189E-05
CGA:   9    -0.486942259556E+03   -0.30772E-03   -0.30779E-03   688   0.326E-03-0.189E-05
CGA:  10    -0.486942359259E+03   -0.99703E-04   -0.99686E-04   688   0.101E-03 0.112E-05
  40 F= -.49080695E+03 E0= -.49079663E+03  d E =-.509828E-01  mag=     1.8857
       N       E                     dE             d eps       ncg     rms          ort
SDA:   1    -0.486051630198E+03    0.89063E+00    0.00000E+00   688   0.236E+01 0.000E+00
CGA:   2    -0.486747576983E+03   -0.69595E+00   -0.69595E+00   688   0.647E+00 0.268E-03
CGA:   3    -0.486914751487E+03   -0.16717E+00   -0.16717E+00   688   0.142E+00-0.458E-04
CGA:   4    -0.486944755446E+03   -0.30004E-01   -0.30001E-01   688   0.291E-01-0.140E-04
CGA:   5    -0.486951394305E+03   -0.66389E-02   -0.66392E-02   688   0.818E-02 0.123E-04
CGA:   6    -0.486953388192E+03   -0.19939E-02   -0.19937E-02   688   0.294E-02-0.572E-05
CGA:   7    -0.486954311350E+03   -0.92316E-03   -0.92305E-03   688   0.144E-02 0.396E-05
CGA:   8    -0.486954800103E+03   -0.48875E-03   -0.48888E-03   688   0.645E-03-0.233E-05
CGA:   9    -0.486955007491E+03   -0.20739E-03   -0.20744E-03   688   0.222E-03-0.147E-05
CGA:  10    -0.486955075030E+03   -0.67540E-04   -0.67526E-04   688   0.692E-04 0.878E-06
  41 F= -.49081985E+03 E0= -.49080898E+03  d E =-.638832E-01  mag=     1.8996
       N       E                     dE             d eps       ncg     rms          ort
SDA:   1    -0.485515310864E+03    0.14397E+01    0.00000E+00   688   0.392E+01 0.000E+00
CGA:   2    -0.486652574808E+03   -0.11373E+01   -0.11373E+01   688   0.107E+01 0.204E-02
CGA:   3    -0.486927264795E+03   -0.27469E+00   -0.27466E+00   688   0.245E+00-0.258E-03
CGA:   4    -0.486977783808E+03   -0.50519E-01   -0.50526E-01   688   0.510E-01-0.336E-04
CGA:   5    -0.486989151752E+03   -0.11368E-01   -0.11367E-01   688   0.141E-01 0.829E-05
CGA:   6    -0.486992545364E+03   -0.33936E-02   -0.33935E-02   688   0.472E-02-0.637E-05
CGA:   7    -0.486994041061E+03   -0.14957E-02   -0.14955E-02   688   0.223E-02 0.704E-05
CGA:   8    -0.486994811672E+03   -0.77061E-03   -0.77065E-03   688   0.100E-02-0.605E-06
CGA:   9    -0.486995138505E+03   -0.32683E-03   -0.32685E-03   688   0.350E-03-0.574E-06
CGA:  10    -0.486995245917E+03   -0.10741E-03   -0.10737E-03   688   0.109E-03 0.219E-05
CGA:  11    -0.486995283625E+03   -0.37708E-04   -0.37741E-04   688   0.408E-04-0.617E-06
  42 F= -.49086060E+03 E0= -.49084917E+03  d E =-.407477E-01  mag=     1.9065
       N       E                     dE             d eps       ncg     rms          ort
SDA:   1    -0.486859603365E+03    0.13564E+00    0.00000E+00   688   0.365E+00 0.000E+00
CGA:   2    -0.486965487568E+03   -0.10588E+00   -0.10588E+00   688   0.993E-01 0.304E-04
CGA:   3    -0.486991115406E+03   -0.25628E-01   -0.25627E-01   688   0.223E-01-0.122E-04
CGA:   4    -0.486995810699E+03   -0.46953E-02   -0.46946E-02   688   0.438E-02-0.964E-05
CGA:   5    -0.486996847673E+03   -0.10370E-02   -0.10369E-02   688   0.116E-02-0.208E-05
CGA:   6    -0.486997136518E+03   -0.28885E-03   -0.28888E-03   688   0.419E-03 0.862E-06
CGA:   7    -0.486997266195E+03   -0.12968E-03   -0.12966E-03   688   0.209E-03 0.505E-06
CGA:   8    -0.486997336084E+03   -0.69889E-04   -0.69906E-04   688   0.946E-04-0.381E-06
  43 F= -.49086280E+03 E0= -.49085120E+03  d E =-.429532E-01  mag=     1.9084
       N       E                     dE             d eps       ncg     rms          ort
SDA:   1    -0.485743828183E+03    0.12534E+01    0.00000E+00   688   0.340E+01 0.000E+00
CGA:   2    -0.486731042676E+03   -0.98721E+00   -0.98722E+00   688   0.922E+00 0.119E-02
CGA:   3    -0.486968040870E+03   -0.23700E+00   -0.23699E+00   688   0.218E+00-0.103E-03
CGA:   4    -0.487011823495E+03   -0.43783E-01   -0.43783E-01   688   0.462E-01-0.193E-04
CGA:   5    -0.487021887889E+03   -0.10064E-01   -0.10064E-01   688   0.130E-01 0.170E-04
CGA:   6    -0.487025035133E+03   -0.31472E-02   -0.31472E-02   688   0.424E-02-0.387E-05
CGA:   7    -0.487026406770E+03   -0.13716E-02   -0.13713E-02   688   0.202E-02 0.763E-05
CGA:   8    -0.487027104816E+03   -0.69805E-03   -0.69799E-03   688   0.922E-03 0.931E-06
CGA:   9    -0.487027402638E+03   -0.29782E-03   -0.29785E-03   688   0.321E-03-0.881E-06
CGA:  10    -0.487027501308E+03   -0.98670E-04   -0.98627E-04   688   0.101E-03 0.205E-05
  44 F= -.49089371E+03 E0= -.49088182E+03  d E =-.309028E-01  mag=     1.9001
       N       E                     dE             d eps       ncg     rms          ort
SDA:   1    -0.486951337859E+03    0.76065E-01    0.00000E+00   688   0.205E+00 0.000E+00
CGA:   2    -0.487010799581E+03   -0.59462E-01   -0.59462E-01   688   0.554E-01 0.110E-04
CGA:   3    -0.487025151118E+03   -0.14352E-01   -0.14351E-01   688   0.125E-01-0.104E-04
CGA:   4    -0.487027752683E+03   -0.26016E-02   -0.26015E-02   688   0.253E-02-0.143E-06
CGA:   5    -0.487028334663E+03   -0.58198E-03   -0.58193E-03   688   0.675E-03-0.112E-05
CGA:   6    -0.487028505117E+03   -0.17045E-03   -0.17052E-03   688   0.244E-03 0.215E-05
CGA:   7    -0.487028582301E+03   -0.77184E-04   -0.77181E-04   688   0.130E-03 0.901E-07
  45 F= -.49089496E+03 E0= -.49088299E+03  d E =-.321557E-01  mag=     1.8977
       N       E                     dE             d eps       ncg     rms          ort
SDA:   1    -0.486569540303E+03    0.45896E+00    0.00000E+00   688   0.128E+01 0.000E+00
CGA:   2    -0.486941461720E+03   -0.37192E+00   -0.37192E+00   688   0.342E+00 0.136E-03
CGA:   3    -0.487029711635E+03   -0.88250E-01   -0.88252E-01   688   0.826E-01 0.538E-04
CGA:   4    -0.487045594406E+03   -0.15883E-01   -0.15886E-01   688   0.187E-01-0.232E-04
CGA:   5    -0.487049505180E+03   -0.39108E-02   -0.39106E-02   688   0.528E-02 0.101E-04
CGA:   6    -0.487050818117E+03   -0.13129E-02   -0.13128E-02   688   0.168E-02-0.517E-05
CGA:   7    -0.487051381017E+03   -0.56290E-03   -0.56281E-03   688   0.817E-03 0.151E-05
CGA:   8    -0.487051657116E+03   -0.27610E-03   -0.27595E-03   688   0.383E-03 0.241E-05
CGA:   9    -0.487051776443E+03   -0.11933E-03   -0.11939E-03   688   0.137E-03-0.192E-05
CGA:  10    -0.487051817843E+03   -0.41400E-04   -0.41377E-04   688   0.419E-04 0.104E-05
  46 F= -.49091857E+03 E0= -.49090673E+03  d E =-.236143E-01  mag=     1.8878
       N       E                     dE             d eps       ncg     rms          ort
SDA:   1    -0.485042698530E+03    0.20091E+01    0.00000E+00   688   0.537E+01 0.000E+00
CGA:   2    -0.486601448629E+03   -0.15588E+01   -0.15587E+01   688   0.147E+01 0.144E-02
CGA:   3    -0.486967347750E+03   -0.36590E+00   -0.36589E+00   688   0.413E+00 0.408E-04
CGA:   4    -0.487040534400E+03   -0.73187E-01   -0.73320E-01   688   0.892E-01-0.177E-03
CGA:   5    -0.487059631457E+03   -0.19097E-01   -0.19092E-01   688   0.220E-01 0.670E-05
CGA:   6    -0.487065442568E+03   -0.58111E-02   -0.58112E-02   688   0.680E-02-0.164E-05
CGA:   7    -0.487067718738E+03   -0.22762E-02   -0.22762E-02   688   0.340E-02 0.862E-07
CGA:   8    -0.487068838795E+03   -0.11201E-02   -0.11197E-02   688   0.157E-02 0.722E-05
CGA:   9    -0.487069342590E+03   -0.50380E-03   -0.50392E-03   688   0.545E-03-0.310E-05
CGA:  10    -0.487069514315E+03   -0.17172E-03   -0.17168E-03   688   0.171E-03 0.147E-05
CGA:  11    -0.487069573535E+03   -0.59220E-04   -0.59208E-04   688   0.650E-04 0.187E-06
  47 F= -.49093708E+03 E0= -.49092535E+03  d E =-.421195E-01  mag=     1.8665
       N       E                     dE             d eps       ncg     rms          ort
SDA:   1    -0.486793673195E+03    0.27584E+00    0.00000E+00   688   0.786E+00 0.000E+00
CGA:   2    -0.487018423644E+03   -0.22475E+00   -0.22475E+00   688   0.208E+00-0.278E-04
CGA:   3    -0.487071972951E+03   -0.53549E-01   -0.53552E-01   688   0.515E-01 0.434E-04
CGA:   4    -0.487081827416E+03   -0.98545E-02   -0.98557E-02   688   0.114E-01-0.101E-04
CGA:   5    -0.487084189646E+03   -0.23622E-02   -0.23627E-02   688   0.307E-02 0.114E-04
CGA:   6    -0.487084933302E+03   -0.74366E-03   -0.74350E-03   688   0.927E-03-0.438E-05
CGA:   7    -0.487085231756E+03   -0.29845E-03   -0.29841E-03   688   0.436E-03 0.107E-05
CGA:   8    -0.487085378533E+03   -0.14678E-03   -0.14669E-03   688   0.206E-03 0.150E-05
CGA:   9    -0.487085445324E+03   -0.66791E-04   -0.66844E-04   688   0.771E-04-0.136E-05
  48 F= -.49095325E+03 E0= -.49094155E+03  d E =-.161680E-01  mag=     1.8626
       N       E                     dE             d eps       ncg     rms          ort
SDA:   1    -0.485238854552E+03    0.18465E+01    0.00000E+00   688   0.502E+01 0.000E+00
CGA:   2    -0.486668028987E+03   -0.14292E+01   -0.14292E+01   688   0.138E+01-0.389E-03
CGA:   3    -0.487004512000E+03   -0.33648E+00   -0.33650E+00   688   0.403E+00 0.164E-03
CGA:   4    -0.487075088605E+03   -0.70577E-01   -0.70718E-01   688   0.845E-01-0.194E-03
CGA:   5    -0.487093207460E+03   -0.18119E-01   -0.18115E-01   688   0.201E-01 0.187E-04
CGA:   6    -0.487098457913E+03   -0.52505E-02   -0.52505E-02   688   0.598E-02-0.235E-05
CGA:   7    -0.487100401196E+03   -0.19433E-02   -0.19433E-02   688   0.289E-02-0.311E-06
CGA:   8    -0.487101349909E+03   -0.94871E-03   -0.94839E-03   688   0.133E-02 0.658E-05
CGA:   9    -0.487101786491E+03   -0.43658E-03   -0.43672E-03   688   0.480E-03-0.293E-05
CGA:  10    -0.487101938496E+03   -0.15200E-03   -0.15198E-03   688   0.152E-03 0.784E-06
CGA:  11    -0.487101991301E+03   -0.52806E-04   -0.52826E-04   688   0.566E-04-0.320E-06
  49 F= -.49097054E+03 E0= -.49095891E+03  d E =-.334662E-01  mag=     1.8530
       N       E                     dE             d eps       ncg     rms          ort
SDA:   1    -0.486480265383E+03    0.62167E+00    0.00000E+00   688   0.174E+01 0.000E+00
CGA:   2    -0.486975359947E+03   -0.49509E+00   -0.49509E+00   688   0.465E+00-0.130E-03
CGA:   3    -0.487093701040E+03   -0.11834E+00   -0.11835E+00   688   0.123E+00 0.132E-03
CGA:   4    -0.487116278746E+03   -0.22578E-01   -0.22591E-01   688   0.270E-01-0.401E-04
CGA:   5    -0.487121852957E+03   -0.55742E-02   -0.55735E-02   688   0.683E-02 0.122E-04
CGA:   6    -0.487123562458E+03   -0.17095E-02   -0.17094E-02   688   0.199E-02-0.592E-05
CGA:   7    -0.487124210027E+03   -0.64757E-03   -0.64759E-03   688   0.944E-03-0.387E-06
CGA:   8    -0.487124524455E+03   -0.31443E-03   -0.31427E-03   688   0.447E-03 0.299E-05
CGA:   9    -0.487124669522E+03   -0.14507E-03   -0.14514E-03   688   0.167E-03-0.190E-05
CGA:  10    -0.487124721628E+03   -0.52106E-04   -0.52087E-04   688   0.520E-04 0.665E-06
  50 F= -.49099365E+03 E0= -.49098218E+03  d E =-.231031E-01  mag=     1.8566
       N       E                     dE             d eps       ncg     rms          ort
SDA:   1    -0.486029868507E+03    0.10948E+01    0.00000E+00   688   0.299E+01 0.000E+00
CGA:   2    -0.486877793225E+03   -0.84792E+00   -0.84792E+00   688   0.805E+00-0.247E-03
CGA:   3    -0.487079710075E+03   -0.20192E+00   -0.20194E+00   688   0.224E+00 0.205E-03
CGA:   4    -0.487119911788E+03   -0.40202E-01   -0.40249E-01   688   0.484E-01-0.888E-04
CGA:   5    -0.487130068918E+03   -0.10157E-01   -0.10155E-01   688   0.116E-01 0.131E-04
CGA:   6    -0.487133068267E+03   -0.29993E-02   -0.29993E-02   688   0.341E-02-0.568E-05
CGA:   7    -0.487134179201E+03   -0.11109E-02   -0.11110E-02   688   0.164E-02-0.121E-05
CGA:   8    -0.487134720390E+03   -0.54119E-03   -0.54097E-03   688   0.762E-03 0.443E-05
CGA:   9    -0.487134970896E+03   -0.25051E-03   -0.25061E-03   688   0.281E-03-0.232E-05
CGA:  10    -0.487135059374E+03   -0.88478E-04   -0.88457E-04   688   0.887E-04 0.691E-06
  51 F= -.49100448E+03 E0= -.49099323E+03  d E =-.339302E-01  mag=     1.8617
       N       E                     dE             d eps       ncg     rms          ort
SDA:   1    -0.486485291669E+03    0.64968E+00    0.00000E+00   688   0.181E+01 0.000E+00
CGA:   2    -0.487000892579E+03   -0.51560E+00   -0.51560E+00   688   0.476E+00-0.288E-04
CGA:   3    -0.487123879254E+03   -0.12299E+00   -0.12299E+00   688   0.122E+00 0.545E-04
CGA:   4    -0.487146621106E+03   -0.22742E-01   -0.22753E-01   688   0.268E-01-0.276E-04
CGA:   5    -0.487152202528E+03   -0.55814E-02   -0.55811E-02   688   0.693E-02 0.162E-04
CGA:   6    -0.487153952026E+03   -0.17495E-02   -0.17494E-02   688   0.206E-02-0.542E-05
CGA:   7    -0.487154641577E+03   -0.68955E-03   -0.68946E-03   688   0.982E-03 0.165E-05
CGA:   8    -0.487154973384E+03   -0.33181E-03   -0.33167E-03   688   0.465E-03 0.247E-05
CGA:   9    -0.487155122550E+03   -0.14917E-03   -0.14923E-03   688   0.167E-03-0.172E-05
CGA:  10    -0.487155174756E+03   -0.52207E-04   -0.52185E-04   688   0.519E-04 0.758E-06
  52 F= -.49102509E+03 E0= -.49101395E+03  d E =-.206100E-01  mag=     1.8660
       N       E                     dE             d eps       ncg     rms          ort
SDA:   1    -0.485034712576E+03    0.21204E+01    0.00000E+00   688   0.579E+01 0.000E+00
CGA:   2    -0.486671848117E+03   -0.16371E+01   -0.16371E+01   688   0.156E+01 0.131E-03
CGA:   3    -0.487058103196E+03   -0.38626E+00   -0.38623E+00   688   0.461E+00-0.147E-03
CGA:   4    -0.487138144837E+03   -0.80042E-01   -0.80228E-01   688   0.959E-01-0.281E-03
CGA:   5    -0.487158733973E+03   -0.20589E-01   -0.20583E-01   688   0.226E-01 0.157E-04
CGA:   6    -0.487164672363E+03   -0.59384E-02   -0.59384E-02   688   0.673E-02-0.188E-05
CGA:   7    -0.487166869311E+03   -0.21969E-02   -0.21969E-02   688   0.329E-02 0.109E-06
CGA:   8    -0.487167945350E+03   -0.10760E-02   -0.10757E-02   688   0.152E-02 0.710E-05
CGA:   9    -0.487168444278E+03   -0.49893E-03   -0.49905E-03   688   0.541E-03-0.277E-05
CGA:  10    -0.487168616405E+03   -0.17213E-03   -0.17209E-03   688   0.171E-03 0.974E-06
CGA:  11    -0.487168675341E+03   -0.58936E-04   -0.58943E-04   688   0.634E-04-0.120E-06
  53 F= -.49103946E+03 E0= -.49102843E+03  d E =-.349835E-01  mag=     1.8721
       N       E                     dE             d eps       ncg     rms          ort
SDA:   1    -0.486421564071E+03    0.74705E+00    0.00000E+00   688   0.208E+01 0.000E+00
CGA:   2    -0.487013006749E+03   -0.59144E+00   -0.59145E+00   688   0.542E+00 0.222E-03
CGA:   3    -0.487153611897E+03   -0.14061E+00   -0.14060E+00   688   0.137E+00 0.105E-04
CGA:   4    -0.487179480920E+03   -0.25869E-01   -0.25879E-01   688   0.299E-01-0.374E-04
CGA:   5    -0.487185731867E+03   -0.62509E-02   -0.62501E-02   688   0.803E-02 0.115E-04
CGA:   6    -0.487187710325E+03   -0.19785E-02   -0.19783E-02   688   0.240E-02-0.589E-05
CGA:   7    -0.487188506910E+03   -0.79658E-03   -0.79651E-03   688   0.114E-02 0.142E-05
CGA:   8    -0.487188895622E+03   -0.38871E-03   -0.38856E-03   688   0.542E-03 0.278E-05
CGA:   9    -0.487189068974E+03   -0.17335E-03   -0.17341E-03   688   0.196E-03-0.192E-05
CGA:  10    -0.487189129612E+03   -0.60638E-04   -0.60610E-04   688   0.605E-04 0.124E-05
  54 F= -.49106054E+03 E0= -.49104949E+03  d E =-.210798E-01  mag=     1.8748
       N       E                     dE             d eps       ncg     rms          ort
SDA:   1    -0.485640546875E+03    0.15485E+01    0.00000E+00   688   0.423E+01 0.000E+00
CGA:   2    -0.486839912573E+03   -0.11994E+01   -0.11994E+01   688   0.111E+01 0.769E-03
CGA:   3    -0.487123383730E+03   -0.28347E+00   -0.28346E+00   688   0.305E+00-0.802E-04
CGA:   4    -0.487178394594E+03   -0.55011E-01   -0.55081E-01   688   0.662E-01-0.116E-03
CGA:   5    -0.487192320802E+03   -0.13926E-01   -0.13922E-01   688   0.165E-01 0.119E-04
CGA:   6    -0.487196562540E+03   -0.42417E-02   -0.42417E-02   688   0.488E-02-0.546E-05
CGA:   7    -0.487198192309E+03   -0.16298E-02   -0.16297E-02   688   0.236E-02 0.801E-06
CGA:   8    -0.487198985817E+03   -0.79351E-03   -0.79324E-03   688   0.111E-02 0.506E-05
CGA:   9    -0.487199343687E+03   -0.35787E-03   -0.35796E-03   688   0.396E-03-0.251E-05
CGA:  10    -0.487199467902E+03   -0.12422E-03   -0.12417E-03   688   0.124E-03 0.155E-05
CGA:  11    -0.487199510686E+03   -0.42783E-04   -0.42781E-04   688   0.465E-04 0.367E-07
  55 F= -.49107180E+03 E0= -.49106068E+03  d E =-.323416E-01  mag=     1.8780
       N       E                     dE             d eps       ncg     rms          ort
SDA:   1    -0.485978009617E+03    0.12215E+01    0.00000E+00   688   0.339E+01 0.000E+00
CGA:   2    -0.486932777935E+03   -0.95477E+00   -0.95479E+00   688   0.883E+00 0.701E-03
CGA:   3    -0.487161145496E+03   -0.22837E+00   -0.22836E+00   688   0.228E+00-0.760E-04
CGA:   4    -0.487203796080E+03   -0.42651E-01   -0.42679E-01   688   0.499E-01-0.463E-04
CGA:   5    -0.487214126563E+03   -0.10330E-01   -0.10328E-01   688   0.130E-01 0.209E-04
CGA:   6    -0.487217335483E+03   -0.32089E-02   -0.32088E-02   688   0.378E-02-0.564E-05
CGA:   7    -0.487218585630E+03   -0.12501E-02   -0.12500E-02   688   0.177E-02 0.280E-05
CGA:   8    -0.487219193127E+03   -0.60750E-03   -0.60732E-03   688   0.837E-03 0.309E-05
CGA:   9    -0.487219462688E+03   -0.26956E-03   -0.26964E-03   688   0.307E-03-0.233E-05
CGA:  10    -0.487219557038E+03   -0.94350E-04   -0.94320E-04   688   0.959E-04 0.155E-05
  56 F= -.49109282E+03 E0= -.49108136E+03  d E =-.210193E-01  mag=     1.8753
       N       E                     dE             d eps       ncg     rms          ort
SDA:   1    -0.486854372160E+03    0.36509E+00    0.00000E+00   688   0.100E+01 0.000E+00
CGA:   2    -0.487137566838E+03   -0.28319E+00   -0.28320E+00   688   0.259E+00 0.103E-03
CGA:   3    -0.487205761095E+03   -0.68194E-01   -0.68194E-01   688   0.609E-01-0.947E-05
CGA:   4    -0.487217974564E+03   -0.12213E-01   -0.12213E-01   688   0.126E-01-0.985E-05
CGA:   5    -0.487220702008E+03   -0.27274E-02   -0.27279E-02   688   0.354E-02 0.984E-05
CGA:   6    -0.487221543906E+03   -0.84190E-03   -0.84172E-03   688   0.112E-02-0.451E-05
CGA:   7    -0.487221904684E+03   -0.36078E-03   -0.36065E-03   688   0.521E-03 0.304E-05
CGA:   8    -0.487222087382E+03   -0.18270E-03   -0.18271E-03   688   0.242E-03-0.256E-06
CGA:   9    -0.487222167182E+03   -0.79801E-04   -0.79822E-04   688   0.871E-04-0.495E-06
  57 F= -.49109595E+03 E0= -.49108428E+03  d E =-.241534E-01  mag=     1.8734
       N       E                     dE             d eps       ncg     rms          ort
SDA:   1    -0.486480632954E+03    0.74145E+00    0.00000E+00   688   0.208E+01 0.000E+00
CGA:   2    -0.487063982618E+03   -0.58335E+00   -0.58336E+00   688   0.537E+00 0.481E-03
CGA:   3    -0.487204406523E+03   -0.14042E+00   -0.14042E+00   688   0.131E+00-0.684E-04
CGA:   4    -0.487230119097E+03   -0.25713E-01   -0.25718E-01   688   0.279E-01-0.275E-04
CGA:   5    -0.487235894840E+03   -0.57757E-02   -0.57751E-02   688   0.778E-02 0.134E-04
CGA:   6    -0.487237745988E+03   -0.18511E-02   -0.18509E-02   688   0.223E-02-0.718E-05
CGA:   7    -0.487238488113E+03   -0.74212E-03   -0.74201E-03   688   0.101E-02 0.202E-05
CGA:   8    -0.487238847599E+03   -0.35949E-03   -0.35941E-03   688   0.477E-03 0.104E-05
CGA:   9    -0.487239003365E+03   -0.15577E-03   -0.15586E-03   688   0.177E-03-0.210E-05
CGA:  10    -0.487239056640E+03   -0.53275E-04   -0.53252E-04   688   0.556E-04 0.132E-05
  58 F= -.49111346E+03 E0= -.49110150E+03  d E =-.175033E-01  mag=     1.8684
       N       E                     dE             d eps       ncg     rms          ort
SDA:   1    -0.486119385722E+03    0.11196E+01    0.00000E+00   688   0.310E+01 0.000E+00
CGA:   2    -0.486985493369E+03   -0.86611E+00   -0.86613E+00   688   0.800E+00 0.917E-03
CGA:   3    -0.487193611385E+03   -0.20812E+00   -0.20811E+00   688   0.201E+00-0.133E-03
CGA:   4    -0.487232182493E+03   -0.38571E-01   -0.38589E-01   688   0.436E-01-0.370E-04
CGA:   5    -0.487241133903E+03   -0.89514E-02   -0.89494E-02   688   0.116E-01 0.157E-04
CGA:   6    -0.487243954516E+03   -0.28206E-02   -0.28204E-02   688   0.332E-02-0.770E-05
CGA:   7    -0.487245053290E+03   -0.10988E-02   -0.10987E-02   688   0.153E-02 0.189E-05
CGA:   8    -0.487245585020E+03   -0.53173E-03   -0.53161E-03   688   0.724E-03 0.178E-05
CGA:   9    -0.487245818996E+03   -0.23398E-03   -0.23408E-03   688   0.271E-03-0.257E-05
CGA:  10    -0.487245900855E+03   -0.81858E-04   -0.81832E-04   688   0.847E-04 0.144E-05
  59 F= -.49112103E+03 E0= -.49110872E+03  d E =-.250763E-01  mag=     1.8620
       N       E                     dE             d eps       ncg     rms          ort
SDA:   1    -0.486610397311E+03    0.63542E+00    0.00000E+00   688   0.180E+01 0.000E+00
CGA:   2    -0.487110679644E+03   -0.50028E+00   -0.50029E+00   688   0.461E+00 0.290E-03
CGA:   3    -0.487231374847E+03   -0.12070E+00   -0.12069E+00   688   0.111E+00-0.394E-04
CGA:   4    -0.487253506311E+03   -0.22131E-01   -0.22134E-01   688   0.232E-01-0.136E-04
CGA:   5    -0.487258359739E+03   -0.48534E-02   -0.48535E-02   688   0.659E-02 0.157E-04
CGA:   6    -0.487259893279E+03   -0.15335E-02   -0.15333E-02   688   0.193E-02-0.654E-05
CGA:   7    -0.487260522603E+03   -0.62932E-03   -0.62917E-03   688   0.872E-03 0.321E-05
CGA:   8    -0.487260832481E+03   -0.30988E-03   -0.30985E-03   688   0.412E-03 0.363E-06
CGA:   9    -0.487260966411E+03   -0.13393E-03   -0.13401E-03   688   0.156E-03-0.186E-05
CGA:  10    -0.487261012473E+03   -0.46063E-04   -0.46051E-04   688   0.490E-04 0.102E-05
  60 F= -.49113661E+03 E0= -.49112401E+03  d E =-.155799E-01  mag=     1.8531
       N       E                     dE             d eps       ncg     rms          ort
SDA:   1    -0.485210560996E+03    0.20504E+01    0.00000E+00   688   0.570E+01 0.000E+00
CGA:   2    -0.486792295440E+03   -0.15817E+01   -0.15818E+01   688   0.148E+01 0.186E-02
CGA:   3    -0.487170368040E+03   -0.37807E+00   -0.37804E+00   688   0.401E+00-0.311E-03
CGA:   4    -0.487244180659E+03   -0.73813E-01   -0.73906E-01   688   0.872E-01-0.810E-04
CGA:   5    -0.487262113753E+03   -0.17933E-01   -0.17927E-01   688   0.218E-01 0.233E-04
CGA:   6    -0.487267578518E+03   -0.54648E-02   -0.54647E-02   688   0.608E-02-0.567E-05
CGA:   7    -0.487269601586E+03   -0.20231E-02   -0.20229E-02   688   0.283E-02 0.224E-05
CGA:   8    -0.487270569342E+03   -0.96776E-03   -0.96750E-03   688   0.135E-02 0.406E-05
CGA:   9    -0.487271002091E+03   -0.43275E-03   -0.43289E-03   688   0.504E-03-0.377E-05
CGA:  10    -0.487271154902E+03   -0.15281E-03   -0.15278E-03   688   0.157E-03 0.166E-05
CGA:  11    -0.487271208156E+03   -0.53254E-04   -0.53309E-04   688   0.572E-04-0.103E-05
  61 F= -.49114760E+03 E0= -.49113445E+03  d E =-.265733E-01  mag=     1.8357
       N       E                     dE             d eps       ncg     rms          ort
SDA:   1    -0.486365076763E+03    0.90608E+00    0.00000E+00   688   0.256E+01 0.000E+00
CGA:   2    -0.487074929374E+03   -0.70985E+00   -0.70987E+00   688   0.651E+00 0.348E-03
CGA:   3    -0.487245509711E+03   -0.17058E+00   -0.17058E+00   688   0.163E+00-0.280E-04
CGA:   4    -0.487277062950E+03   -0.31553E-01   -0.31564E-01   688   0.349E-01-0.286E-04
CGA:   5    -0.487284238136E+03   -0.71752E-02   -0.71739E-02   688   0.956E-02 0.153E-04
CGA:   6    -0.487286507301E+03   -0.22692E-02   -0.22690E-02   688   0.273E-02-0.705E-05
CGA:   7    -0.487287404891E+03   -0.89759E-03   -0.89747E-03   688   0.125E-02 0.232E-05
CGA:   8    -0.487287842500E+03   -0.43761E-03   -0.43745E-03   688   0.601E-03 0.231E-05
CGA:   9    -0.487288035092E+03   -0.19259E-03   -0.19268E-03   688   0.229E-03-0.245E-05
CGA:  10    -0.487288103007E+03   -0.67914E-04   -0.67897E-04   688   0.699E-04 0.149E-05
  62 F= -.49116498E+03 E0= -.49115157E+03  d E =-.173782E-01  mag=     1.8286
       N       E                     dE             d eps       ncg     rms          ort
SDA:   1    -0.486122438962E+03    0.11656E+01    0.00000E+00   688   0.325E+01 0.000E+00
CGA:   2    -0.487023378968E+03   -0.90094E+00   -0.90096E+00   688   0.830E+00 0.521E-03
CGA:   3    -0.487239676150E+03   -0.21630E+00   -0.21629E+00   688   0.212E+00-0.469E-04
CGA:   4    -0.487280188839E+03   -0.40513E-01   -0.40533E-01   688   0.458E-01-0.356E-04
CGA:   5    -0.487289571288E+03   -0.93824E-02   -0.93803E-02   688   0.121E-01 0.168E-04
CGA:   6    -0.487292520511E+03   -0.29492E-02   -0.29490E-02   688   0.345E-02-0.771E-05
CGA:   7    -0.487293668918E+03   -0.11484E-02   -0.11483E-02   688   0.158E-02 0.273E-05
CGA:   8    -0.487294228070E+03   -0.55915E-03   -0.55898E-03   688   0.753E-03 0.238E-05
CGA:   9    -0.487294472597E+03   -0.24453E-03   -0.24462E-03   688   0.283E-03-0.241E-05
CGA:  10    -0.487294557290E+03   -0.84693E-04   -0.84670E-04   688   0.876E-04 0.158E-05
  63 F= -.49117195E+03 E0= -.49115826E+03  d E =-.243488E-01  mag=     1.8211
       N       E                     dE             d eps       ncg     rms          ort
SDA:   1    -0.486627903937E+03    0.66657E+00    0.00000E+00   688   0.189E+01 0.000E+00
CGA:   2    -0.487151332208E+03   -0.52343E+00   -0.52343E+00   688   0.473E+00 0.833E-04
CGA:   3    -0.487276539094E+03   -0.12521E+00   -0.12521E+00   688   0.116E+00 0.309E-04
CGA:   4    -0.487299430778E+03   -0.22892E-01   -0.22895E-01   688   0.244E-01-0.110E-04
CGA:   5    -0.487304519595E+03   -0.50888E-02   -0.50888E-02   688   0.680E-02 0.161E-04
CGA:   6    -0.487306116763E+03   -0.15972E-02   -0.15970E-02   688   0.201E-02-0.630E-05
CGA:   7    -0.487306775618E+03   -0.65885E-03   -0.65864E-03   688   0.927E-03 0.428E-05
CGA:   8    -0.487307104657E+03   -0.32904E-03   -0.32892E-03   688   0.441E-03 0.156E-05
CGA:   9    -0.487307248492E+03   -0.14384E-03   -0.14388E-03   688   0.164E-03-0.103E-05
CGA:  10    -0.487307297532E+03   -0.49041E-04   -0.49023E-04   688   0.509E-04 0.124E-05
  64 F= -.49118541E+03 E0= -.49117157E+03  d E =-.134531E-01  mag=     1.8240
       N       E                     dE             d eps       ncg     rms          ort
SDA:   1    -0.486466521176E+03    0.84073E+00    0.00000E+00   688   0.235E+01 0.000E+00
CGA:   2    -0.487117502443E+03   -0.65098E+00   -0.65098E+00   688   0.590E+00 0.107E-03
CGA:   3    -0.487272955573E+03   -0.15545E+00   -0.15545E+00   688   0.147E+00 0.460E-04
CGA:   4    -0.487301660144E+03   -0.28705E-01   -0.28711E-01   688   0.313E-01-0.134E-04
CGA:   5    -0.487308160107E+03   -0.65000E-02   -0.64996E-02   688   0.852E-02 0.178E-04
CGA:   6    -0.487310192270E+03   -0.20322E-02   -0.20320E-02   688   0.249E-02-0.628E-05
CGA:   7    -0.487311010495E+03   -0.81822E-03   -0.81800E-03   688   0.116E-02 0.428E-05
CGA:   8    -0.487311415150E+03   -0.40465E-03   -0.40451E-03   688   0.551E-03 0.207E-05
CGA:   9    -0.487311594383E+03   -0.17923E-03   -0.17928E-03   688   0.203E-03-0.116E-05
CGA:  10    -0.487311655797E+03   -0.61415E-04   -0.61390E-04   688   0.630E-04 0.137E-05
  65 F= -.49119054E+03 E0= -.49117656E+03  d E =-.185894E-01  mag=     1.8282
       N       E                     dE             d eps       ncg     rms          ort
SDA:   1    -0.486374465764E+03    0.93713E+00    0.00000E+00   688   0.265E+01 0.000E+00
CGA:   2    -0.487107147408E+03   -0.73268E+00   -0.73269E+00   688   0.660E+00 0.155E-03
CGA:   3    -0.487281367268E+03   -0.17422E+00   -0.17422E+00   688   0.165E+00 0.824E-04
CGA:   4    -0.487313327060E+03   -0.31960E-01   -0.31968E-01   688   0.356E-01-0.245E-04
CGA:   5    -0.487320672176E+03   -0.73451E-02   -0.73440E-02   688   0.962E-02 0.148E-04
[...]
       N       E                     dE             d eps       ncg     rms          ort
SDA:   1    -0.485962608022E+03    0.15007E+01    0.00000E+00   688   0.418E+01 0.000E+00
CGA:   2    -0.487128433392E+03   -0.11658E+01   -0.11658E+01   688   0.106E+01-0.438E-03
CGA:   3    -0.487405468041E+03   -0.27703E+00   -0.27706E+00   688   0.237E+00 0.295E-03
CGA:   4    -0.487455147367E+03   -0.49679E-01   -0.49677E-01   688   0.450E-01 0.218E-04
CGA:   5    -0.487465916147E+03   -0.10769E-01   -0.10769E-01   688   0.105E-01 0.397E-05
CGA:   6    -0.487468682908E+03   -0.27668E-02   -0.27667E-02   688   0.348E-02-0.258E-05
CGA:   7    -0.487469869428E+03   -0.11865E-02   -0.11863E-02   688   0.167E-02 0.430E-05
CGA:   8    -0.487470465038E+03   -0.59561E-03   -0.59566E-03   688   0.767E-03-0.871E-06
CGA:   9    -0.487470712396E+03   -0.24736E-03   -0.24729E-03   688   0.246E-03 0.242E-05
CGA:  10    -0.487470790414E+03   -0.78018E-04   -0.78024E-04   688   0.758E-04-0.332E-06
 102 F= -.49136609E+03 E0= -.49134987E+03  d E =-.855950E-02  mag=     1.7257
       N       E                     dE             d eps       ncg     rms          ort
SDA:   1    -0.486785265220E+03    0.68545E+00    0.00000E+00   688   0.190E+01 0.000E+00
CGA:   2    -0.487315890874E+03   -0.53063E+00   -0.53062E+00   688   0.481E+00-0.137E-03
CGA:   3    -0.487442015217E+03   -0.12612E+00   -0.12613E+00   688   0.108E+00 0.599E-04
CGA:   4    -0.487464575631E+03   -0.22560E-01   -0.22560E-01   688   0.205E-01 0.104E-04
CGA:   5    -0.487469481176E+03   -0.49055E-02   -0.49056E-02   688   0.477E-02 0.329E-06
CGA:   6    -0.487470737850E+03   -0.12567E-02   -0.12566E-02   688   0.159E-02-0.143E-05
CGA:   7    -0.487471276113E+03   -0.53826E-03   -0.53816E-03   688   0.781E-03 0.194E-05
CGA:   8    -0.487471548163E+03   -0.27205E-03   -0.27207E-03   688   0.372E-03-0.301E-06
CGA:   9    -0.487471665878E+03   -0.11771E-03   -0.11769E-03   688   0.121E-03 0.918E-06
CGA:  10    -0.487471704289E+03   -0.38411E-04   -0.38408E-04   688   0.360E-04 0.153E-06
 103 F= -.49136776E+03 E0= -.49135206E+03  d E =-.102278E-01  mag=     1.7405
       N       E                     dE             d eps       ncg     rms          ort
SDA:   1    -0.486290125444E+03    0.11815E+01    0.00000E+00   688   0.329E+01 0.000E+00
CGA:   2    -0.487208556341E+03   -0.91843E+00   -0.91840E+00   688   0.836E+00-0.699E-03
CGA:   3    -0.487426391841E+03   -0.21784E+00   -0.21786E+00   688   0.189E+00 0.251E-03
CGA:   4    -0.487466087355E+03   -0.39696E-01   -0.39691E-01   688   0.355E-01 0.227E-04
CGA:   5    -0.487474606367E+03   -0.85190E-02   -0.85195E-02   688   0.824E-02 0.566E-05
CGA:   6    -0.487476781534E+03   -0.21752E-02   -0.21751E-02   688   0.273E-02-0.212E-05
CGA:   7    -0.487477710638E+03   -0.92910E-03   -0.92890E-03   688   0.131E-02 0.381E-05
CGA:   8    -0.487478178069E+03   -0.46743E-03   -0.46751E-03   688   0.605E-03-0.129E-05
CGA:   9    -0.487478374841E+03   -0.19677E-03   -0.19671E-03   688   0.191E-03 0.200E-05
CGA:  10    -0.487478436663E+03   -0.61822E-04   -0.61843E-04   688   0.589E-04-0.787E-06
 104 F= -.49137545E+03 E0= -.49136021E+03  d E =-.769246E-02  mag=     1.7505
       N       E                     dE             d eps       ncg     rms          ort
SDA:   1    -0.486153871259E+03    0.13245E+01    0.00000E+00   688   0.368E+01 0.000E+00
CGA:   2    -0.487178952955E+03   -0.10251E+01   -0.10250E+01   688   0.934E+00-0.855E-03
CGA:   3    -0.487422134481E+03   -0.24318E+00   -0.24321E+00   688   0.211E+00 0.307E-03
CGA:   4    -0.487466449762E+03   -0.44315E-01   -0.44310E-01   688   0.396E-01 0.246E-04
CGA:   5    -0.487475950688E+03   -0.95009E-02   -0.95015E-02   688   0.923E-02 0.700E-05
CGA:   6    -0.487478372362E+03   -0.24217E-02   -0.24216E-02   688   0.309E-02-0.258E-05
CGA:   7    -0.487479402827E+03   -0.10305E-02   -0.10303E-02   688   0.152E-02 0.417E-05
CGA:   8    -0.487479926060E+03   -0.52323E-03   -0.52329E-03   688   0.722E-03-0.117E-05
CGA:   9    -0.487480157515E+03   -0.23146E-03   -0.23141E-03   688   0.231E-03 0.168E-05
CGA:  10    -0.487480231910E+03   -0.74395E-04   -0.74401E-04   688   0.687E-04-0.203E-06
 105 F= -.49137825E+03 E0= -.49136347E+03  d E =-.104848E-01  mag=     1.7603
       N       E                     dE             d eps       ncg     rms          ort
SDA:   1    -0.486405244961E+03    0.10749E+01    0.00000E+00   688   0.299E+01 0.000E+00
CGA:   2    -0.487241894112E+03   -0.83665E+00   -0.83663E+00   688   0.761E+00-0.495E-03
CGA:   3    -0.487440354023E+03   -0.19846E+00   -0.19848E+00   688   0.172E+00 0.179E-03
CGA:   4    -0.487476319227E+03   -0.35965E-01   -0.35963E-01   688   0.330E-01 0.172E-04
CGA:   5    -0.487484158043E+03   -0.78388E-02   -0.78392E-02   688   0.776E-02 0.497E-05
CGA:   6    -0.487486185066E+03   -0.20270E-02   -0.20269E-02   688   0.261E-02-0.443E-05
CGA:   7    -0.487487047564E+03   -0.86250E-03   -0.86230E-03   688   0.128E-02 0.462E-05
CGA:   8    -0.487487484074E+03   -0.43651E-03   -0.43660E-03   688   0.602E-03-0.189E-05
CGA:   9    -0.487487675687E+03   -0.19161E-03   -0.19156E-03   688   0.194E-03 0.186E-05
CGA:  10    -0.487487737575E+03   -0.61888E-04   -0.61889E-04   688   0.579E-04-0.823E-07
 106 F= -.49138637E+03 E0= -.49137156E+03  d E =-.812671E-02  mag=     1.7573
       N       E                     dE             d eps       ncg     rms          ort
SDA:   1    -0.485700742274E+03    0.17869E+01    0.00000E+00   688   0.495E+01 0.000E+00
CGA:   2    -0.487083740989E+03   -0.13830E+01   -0.13830E+01   688   0.126E+01-0.117E-02
CGA:   3    -0.487411917842E+03   -0.32818E+00   -0.32822E+00   688   0.285E+00 0.481E-03
CGA:   4    -0.487471542862E+03   -0.59625E-01   -0.59620E-01   688   0.550E-01 0.282E-04
CGA:   5    -0.487484532381E+03   -0.12990E-01   -0.12990E-01   688   0.131E-01 0.100E-04
CGA:   6    -0.487487914695E+03   -0.33823E-02   -0.33822E-02   688   0.443E-02-0.607E-05
CGA:   7    -0.487489349874E+03   -0.14352E-02   -0.14349E-02   688   0.218E-02 0.660E-05
CGA:   8    -0.487490083593E+03   -0.73372E-03   -0.73380E-03   688   0.101E-02-0.192E-05
CGA:   9    -0.487490411142E+03   -0.32755E-03   -0.32748E-03   688   0.326E-03 0.220E-05
CGA:  10    -0.487490515820E+03   -0.10468E-03   -0.10467E-03   688   0.970E-04 0.259E-06
CGA:  11    -0.487490550444E+03   -0.34624E-04   -0.34648E-04   688   0.358E-04-0.388E-06
 107 F= -.49138996E+03 E0= -.49137501E+03  d E =-.117134E-01  mag=     1.7512
       N       E                     dE             d eps       ncg     rms          ort
SDA:   1    -0.485839032873E+03    0.16515E+01    0.00000E+00   688   0.456E+01 0.000E+00
CGA:   2    -0.487123122509E+03   -0.12841E+01   -0.12840E+01   688   0.117E+01-0.121E-02
CGA:   3    -0.487424972643E+03   -0.30185E+00   -0.30190E+00   688   0.267E+00 0.473E-03
CGA:   4    -0.487480327923E+03   -0.55355E-01   -0.55346E-01   688   0.514E-01 0.283E-04
CGA:   5    -0.487492408590E+03   -0.12081E-01   -0.12081E-01   688   0.126E-01 0.147E-04
CGA:   6    -0.487495537220E+03   -0.31286E-02   -0.31284E-02   688   0.431E-02-0.705E-05
CGA:   7    -0.487496883193E+03   -0.13460E-02   -0.13458E-02   688   0.206E-02 0.791E-05
CGA:   8    -0.487497589223E+03   -0.70603E-03   -0.70609E-03   688   0.928E-03-0.127E-05
CGA:   9    -0.487497899165E+03   -0.30994E-03   -0.30986E-03   688   0.294E-03 0.190E-05
CGA:  10    -0.487497994118E+03   -0.94953E-04   -0.94938E-04   688   0.871E-04 0.574E-06
 108 F= -.49139811E+03 E0= -.49138262E+03  d E =-.814740E-02  mag=     1.7341
       N       E                     dE             d eps       ncg     rms          ort
SDA:   1    -0.487172529339E+03    0.32537E+00    0.00000E+00   688   0.897E+00 0.000E+00
CGA:   2    -0.487424931750E+03   -0.25240E+00   -0.25240E+00   688   0.229E+00-0.102E-03
CGA:   3    -0.487484281507E+03   -0.59350E-01   -0.59352E-01   688   0.525E-01 0.231E-04
CGA:   4    -0.487495119392E+03   -0.10838E-01   -0.10838E-01   688   0.101E-01 0.113E-04
CGA:   5    -0.487497503453E+03   -0.23841E-02   -0.23842E-02   688   0.239E-02 0.184E-05
CGA:   6    -0.487498120394E+03   -0.61694E-03   -0.61691E-03   688   0.809E-03-0.105E-05
CGA:   7    -0.487498385568E+03   -0.26517E-03   -0.26511E-03   688   0.400E-03 0.146E-05
CGA:   8    -0.487498522076E+03   -0.13651E-03   -0.13651E-03   688   0.189E-03-0.134E-06
CGA:   9    -0.487498582788E+03   -0.60712E-04   -0.60698E-04   688   0.610E-04 0.458E-06
 109 F= -.49139900E+03 E0= -.49138324E+03  d E =-.903867E-02  mag=     1.7249
       N       E                     dE             d eps       ncg     rms          ort
SDA:   1    -0.485510079128E+03    0.19884E+01    0.00000E+00   688   0.546E+01 0.000E+00
CGA:   2    -0.487053846224E+03   -0.15438E+01   -0.15438E+01   688   0.141E+01-0.631E-03
CGA:   3    -0.487418182804E+03   -0.36434E+00   -0.36437E+00   688   0.323E+00 0.458E-03
CGA:   4    -0.487484233634E+03   -0.66051E-01   -0.66049E-01   688   0.640E-01 0.256E-04
CGA:   5    -0.487498939504E+03   -0.14706E-01   -0.14707E-01   688   0.157E-01 0.142E-04
CGA:   6    -0.487502847643E+03   -0.39081E-02   -0.39079E-02   688   0.519E-02-0.861E-05
CGA:   7    -0.487504496636E+03   -0.16490E-02   -0.16487E-02   688   0.243E-02 0.812E-05
CGA:   8    -0.487505336597E+03   -0.83996E-03   -0.84003E-03   688   0.110E-02-0.125E-05
CGA:   9    -0.487505701127E+03   -0.36453E-03   -0.36442E-03   688   0.354E-03 0.249E-05
CGA:  10    -0.487505814953E+03   -0.11383E-03   -0.11380E-03   688   0.104E-03 0.805E-06
CGA:  11    -0.487505852301E+03   -0.37349E-04   -0.37365E-04   688   0.384E-04-0.246E-06
 110 F= -.49140696E+03 E0= -.49139075E+03  d E =-.796560E-02  mag=     1.7101
       N       E                     dE             d eps       ncg     rms          ort
SDA:   1    -0.487444956656E+03    0.60858E-01    0.00000E+00   688   0.167E+00 0.000E+00
CGA:   2    -0.487492075654E+03   -0.47119E-01   -0.47119E-01   688   0.428E-01-0.723E-05
CGA:   3    -0.487503195493E+03   -0.11120E-01   -0.11120E-01   688   0.973E-02 0.151E-05
CGA:   4    -0.487505196878E+03   -0.20014E-02   -0.20015E-02   688   0.187E-02 0.111E-05
CGA:   5    -0.487505639863E+03   -0.44299E-03   -0.44302E-03   688   0.443E-03 0.561E-06
CGA:   6    -0.487505751824E+03   -0.11196E-03   -0.11192E-03   688   0.155E-03-0.127E-05
CGA:   7    -0.487505799925E+03   -0.48101E-04   -0.48079E-04   688   0.749E-04 0.907E-06
 111 F= -.49140703E+03 E0= -.49139072E+03  d E =-.803066E-02  mag=     1.7071
       N       E                     dE             d eps       ncg     rms          ort
SDA:   1    -0.486076364099E+03    0.14294E+01    0.00000E+00   688   0.392E+01 0.000E+00
CGA:   2    -0.487188148953E+03   -0.11118E+01   -0.11118E+01   688   0.101E+01-0.551E-03
CGA:   3    -0.487447717346E+03   -0.25957E+00   -0.25959E+00   688   0.232E+00 0.285E-03
CGA:   4    -0.487495390003E+03   -0.47673E-01   -0.47666E-01   688   0.456E-01 0.157E-04
CGA:   5    -0.487505971344E+03   -0.10581E-01   -0.10582E-01   688   0.112E-01 0.146E-04
CGA:   6    -0.487508753425E+03   -0.27821E-02   -0.27819E-02   688   0.382E-02-0.754E-05
CGA:   7    -0.487509945250E+03   -0.11918E-02   -0.11916E-02   688   0.182E-02 0.704E-05
CGA:   8    -0.487510567862E+03   -0.62261E-03   -0.62271E-03   688   0.832E-03-0.168E-05
CGA:   9    -0.487510840869E+03   -0.27301E-03   -0.27295E-03   688   0.274E-03 0.125E-05
CGA:  10    -0.487510926264E+03   -0.85395E-04   -0.85376E-04   688   0.826E-04 0.803E-06
 112 F= -.49141275E+03 E0= -.49139620E+03  d E =-.572133E-02  mag=     1.6948
       N       E                     dE             d eps       ncg     rms          ort
SDA:   1    -0.487421828919E+03    0.89012E-01    0.00000E+00   688   0.244E+00 0.000E+00
CGA:   2    -0.487490962004E+03   -0.69133E-01   -0.69133E-01   688   0.630E-01-0.907E-05
CGA:   3    -0.487507143245E+03   -0.16181E-01   -0.16181E-01   688   0.144E-01-0.266E-05
CGA:   4    -0.487510104465E+03   -0.29612E-02   -0.29615E-02   688   0.283E-02 0.518E-05
CGA:   5    -0.487510757305E+03   -0.65284E-03   -0.65284E-03   688   0.675E-03-0.155E-06
CGA:   6    -0.487510927604E+03   -0.17030E-03   -0.17030E-03   688   0.229E-03-0.197E-07
CGA:   7    -0.487511001004E+03   -0.73400E-04   -0.73395E-04   688   0.116E-03 0.124E-06
 113 F= -.49141297E+03 E0= -.49139634E+03  d E =-.593945E-02  mag=     1.6912
       N       E                     dE             d eps       ncg     rms          ort
SDA:   1    -0.486863129535E+03    0.64780E+00    0.00000E+00   688   0.177E+01 0.000E+00
CGA:   2    -0.487368439765E+03   -0.50531E+00   -0.50531E+00   688   0.463E+00 0.293E-05
CGA:   3    -0.487487252510E+03   -0.11881E+00   -0.11881E+00   688   0.107E+00 0.220E-04
CGA:   4    -0.487508800957E+03   -0.21548E-01   -0.21548E-01   688   0.216E-01 0.243E-05
CGA:   5    -0.487513754721E+03   -0.49538E-02   -0.49540E-02   688   0.545E-02 0.639E-05
CGA:   6    -0.487515102570E+03   -0.13478E-02   -0.13477E-02   688   0.189E-02-0.579E-05
CGA:   7    -0.487515686149E+03   -0.58358E-03   -0.58347E-03   688   0.922E-03 0.329E-05
CGA:   8    -0.487515992943E+03   -0.30679E-03   -0.30684E-03   688   0.417E-03-0.951E-06
CGA:   9    -0.487516127933E+03   -0.13499E-03   -0.13501E-03   688   0.136E-03-0.412E-06
CGA:  10    -0.487516170335E+03   -0.42402E-04   -0.42371E-04   688   0.406E-04 0.109E-05
 114 F= -.49141844E+03 E0= -.49140171E+03  d E =-.547200E-02  mag=     1.6840
       N       E                     dE             d eps       ncg     rms          ort
SDA:   1    -0.487326491216E+03    0.18964E+00    0.00000E+00   688   0.514E+00 0.000E+00
CGA:   2    -0.487473717662E+03   -0.14723E+00   -0.14723E+00   688   0.135E+00-0.802E-05
CGA:   3    -0.487508394566E+03   -0.34677E-01   -0.34677E-01   688   0.306E-01-0.267E-05
CGA:   4    -0.487514660348E+03   -0.62658E-02   -0.62657E-02   688   0.605E-02 0.230E-05
CGA:   5    -0.487516068652E+03   -0.14083E-02   -0.14084E-02   688   0.144E-02 0.813E-06
CGA:   6    -0.487516441698E+03   -0.37305E-03   -0.37300E-03   688   0.492E-03-0.200E-05
CGA:   7    -0.487516600879E+03   -0.15918E-03   -0.15913E-03   688   0.243E-03 0.119E-05
CGA:   8    -0.487516681964E+03   -0.81085E-04   -0.81134E-04   688   0.114E-03-0.933E-06
 115 F= -.49141911E+03 E0= -.49140232E+03  d E =-.613883E-02  mag=     1.6801
       N       E                     dE             d eps       ncg     rms          ort
SDA:   1    -0.486813390703E+03    0.70321E+00    0.00000E+00   688   0.190E+01 0.000E+00
CGA:   2    -0.487359449514E+03   -0.54606E+00   -0.54606E+00   688   0.511E+00-0.497E-03
CGA:   3    -0.487487626157E+03   -0.12818E+00   -0.12819E+00   688   0.122E+00 0.115E-03
CGA:   4    -0.487511967760E+03   -0.24342E-01   -0.24339E-01   688   0.245E-01 0.742E-05
CGA:   5    -0.487517443276E+03   -0.54755E-02   -0.54760E-02   688   0.630E-02 0.126E-04
CGA:   6    -0.487518963063E+03   -0.15198E-02   -0.15196E-02   688   0.204E-02-0.615E-05
CGA:   7    -0.487519599656E+03   -0.63659E-03   -0.63644E-03   688   0.956E-03 0.414E-05
CGA:   8    -0.487519924621E+03   -0.32496E-03   -0.32497E-03   688   0.436E-03-0.133E-06
CGA:   9    -0.487520067112E+03   -0.14249E-03   -0.14251E-03   688   0.150E-03-0.475E-06
CGA:  10    -0.487520112894E+03   -0.45782E-04   -0.45757E-04   688   0.456E-04 0.104E-05
 116 F= -.49142285E+03 E0= -.49140590E+03  d E =-.374253E-02  mag=     1.6693
       N       E                     dE             d eps       ncg     rms          ort
SDA:   1    -0.487520075015E+03   -0.79033E-05    0.00000E+00   688   0.172E-03 0.000E+00
CGA:   2    -0.487520121131E+03   -0.46116E-04   -0.46125E-04   688   0.650E-04 0.481E-06
 117 F= -.49142286E+03 E0= -.49140590E+03  d E =-.374807E-02  mag=     1.6692
       N       E                     dE             d eps       ncg     rms          ort
SDA:   1    -0.486962434349E+03    0.55764E+00    0.00000E+00   688   0.150E+01 0.000E+00
CGA:   2    -0.487395545020E+03   -0.43311E+00   -0.43312E+00   688   0.409E+00-0.348E-03
CGA:   3    -0.487497844523E+03   -0.10230E+00   -0.10230E+00   688   0.981E-01 0.779E-04
CGA:   4    -0.487516983881E+03   -0.19139E-01   -0.19140E-01   688   0.207E-01-0.804E-06
CGA:   5    -0.487521520891E+03   -0.45370E-02   -0.45374E-02   688   0.514E-02 0.959E-05
CGA:   6    -0.487522795572E+03   -0.12747E-02   -0.12745E-02   688   0.163E-02-0.703E-05
CGA:   7    -0.487523312134E+03   -0.51656E-03   -0.51638E-03   688   0.748E-03 0.405E-05
CGA:   8    -0.487523570117E+03   -0.25798E-03   -0.25801E-03   688   0.330E-03-0.443E-06
CGA:   9    -0.487523680661E+03   -0.11054E-03   -0.11051E-03   688   0.110E-03 0.504E-06
CGA:  10    -0.487523715648E+03   -0.34987E-04   -0.34959E-04   688   0.339E-04 0.752E-06
 118 F= -.49142663E+03 E0= -.49140972E+03  d E =-.377890E-02  mag=     1.6681
       N       E                     dE             d eps       ncg     rms          ort
SDA:   1    -0.487513895359E+03    0.97853E-02    0.00000E+00   688   0.263E-01 0.000E+00
CGA:   2    -0.487521512303E+03   -0.76169E-02   -0.76170E-02   688   0.718E-02-0.522E-05
CGA:   3    -0.487523322023E+03   -0.18097E-02   -0.18098E-02   688   0.165E-02 0.204E-05
CGA:   4    -0.487523653098E+03   -0.33108E-03   -0.33113E-03   688   0.343E-03 0.639E-06
CGA:   5    -0.487523729879E+03   -0.76781E-04   -0.76793E-04   688   0.852E-04 0.221E-06
 119 F= -.49142667E+03 E0= -.49140976E+03  d E =-.381657E-02  mag=     1.6680
       N       E                     dE             d eps       ncg     rms          ort
SDA:   1    -0.487358981853E+03    0.16467E+00    0.00000E+00   688   0.439E+00 0.000E+00
CGA:   2    -0.487487824043E+03   -0.12884E+00   -0.12885E+00   688   0.124E+00-0.125E-03
CGA:   3    -0.487518102016E+03   -0.30278E-01   -0.30280E-01   688   0.300E-01 0.314E-04
CGA:   4    -0.487523970213E+03   -0.58682E-02   -0.58683E-02   688   0.625E-02 0.167E-05
CGA:   5    -0.487525343207E+03   -0.13730E-02   -0.13733E-02   688   0.168E-02 0.756E-05
CGA:   6    -0.487525750906E+03   -0.40770E-03   -0.40759E-03   688   0.566E-03-0.438E-05
CGA:   7    -0.487525928412E+03   -0.17751E-03   -0.17742E-03   688   0.268E-03 0.188E-05
CGA:   8    -0.487526017219E+03   -0.88807E-04   -0.88764E-04   688   0.121E-03 0.716E-06
 120 F= -.49142896E+03 E0= -.49141216E+03  d E =-.229011E-02  mag=     1.6698
       N       E                     dE             d eps       ncg     rms          ort
SDA:   1    -0.487446128709E+03    0.79800E-01    0.00000E+00   688   0.211E+00 0.000E+00
CGA:   2    -0.487508181492E+03   -0.62053E-01   -0.62054E-01   688   0.592E-01-0.447E-04
CGA:   3    -0.487522773022E+03   -0.14592E-01   -0.14592E-01   688   0.140E-01 0.137E-04
CGA:   4    -0.487525531503E+03   -0.27585E-02   -0.27586E-02   688   0.280E-02 0.338E-05
CGA:   5    -0.487526168124E+03   -0.63662E-03   -0.63677E-03   688   0.761E-03 0.365E-05
CGA:   6    -0.487526353172E+03   -0.18505E-03   -0.18499E-03   688   0.271E-03-0.247E-05
CGA:   7    -0.487526436165E+03   -0.82993E-04   -0.82942E-04   688   0.130E-03 0.125E-05
 121 F= -.49142938E+03 E0= -.49141266E+03  d E =-.271015E-02  mag=     1.6713
       N       E                     dE             d eps       ncg     rms          ort
SDA:   1    -0.487398006445E+03    0.12835E+00    0.00000E+00   688   0.341E+00 0.000E+00
CGA:   2    -0.487498183070E+03   -0.10018E+00   -0.10018E+00   688   0.985E-01-0.302E-04
CGA:   3    -0.487522096442E+03   -0.23913E-01   -0.23914E-01   688   0.243E-01 0.188E-04
CGA:   4    -0.487526641095E+03   -0.45447E-02   -0.45447E-02   688   0.520E-02-0.386E-05
CGA:   5    -0.487527790040E+03   -0.11489E-02   -0.11491E-02   688   0.133E-02 0.454E-05
CGA:   6    -0.487528122093E+03   -0.33205E-03   -0.33199E-03   688   0.446E-03-0.382E-05
CGA:   7    -0.487528259131E+03   -0.13704E-03   -0.13701E-03   688   0.211E-03 0.714E-06
CGA:   8    -0.487528326748E+03   -0.67617E-04   -0.67579E-04   688   0.948E-04 0.711E-06
 122 F= -.49143129E+03 E0= -.49141457E+03  d E =-.191102E-02  mag=     1.6710
