       N       E                     dE             d eps       ncg     rms          ort
DAV:   1     0.254994948080E+04    0.25499E+04   -0.10233E+05   688   0.116E+03
DAV:   2     0.715712878945E+02   -0.24784E+04   -0.23772E+04   688   0.278E+02
DAV:   3    -0.481462151155E+03   -0.55303E+03   -0.54871E+03   688   0.145E+02
DAV:   4    -0.505455895817E+03   -0.23994E+02   -0.23346E+02   688   0.406E+01
DAV:   5    -0.506608195338E+03   -0.11523E+01   -0.11381E+01   688   0.749E+00
SDA:   6    -0.437309686555E+03    0.69299E+02   -0.11381E+01   688   0.206E+03 0.000E+00
CGA:   7    -0.473451056868E+03   -0.36141E+02   -0.36278E+02   688   0.319E+02 0.252E+01
CGA:   8    -0.478059565244E+03   -0.46085E+01   -0.47247E+01   688   0.125E+02-0.742E+00
CGA:   9    -0.480139595385E+03   -0.20800E+01   -0.20786E+01   688   0.312E+01-0.540E-01
CGA:  10    -0.480890856344E+03   -0.75126E+00   -0.75143E+00   688   0.101E+01-0.144E-02
CGA:  11    -0.481176429418E+03   -0.28557E+00   -0.28734E+00   688   0.364E+00-0.170E-01
CGA:  12    -0.481267738861E+03   -0.91309E-01   -0.91499E-01   688   0.205E+00-0.248E-02
CGA:  13    -0.481309638394E+03   -0.41900E-01   -0.41901E-01   688   0.943E-01-0.666E-03
CGA:  14    -0.481332933275E+03   -0.23295E-01   -0.23287E-01   688   0.578E-01 0.110E-03
CGA:  15    -0.481344631338E+03   -0.11698E-01   -0.11695E-01   688   0.297E-01-0.364E-03
CGA:  16    -0.481353354685E+03   -0.87233E-02   -0.87325E-02   688   0.131E-01-0.102E-03
CGA:  17    -0.481357802299E+03   -0.44476E-02   -0.44165E-02   688   0.796E-02 0.202E-03
CGA:  18    -0.481360045876E+03   -0.22436E-02   -0.22372E-02   688   0.505E-02 0.682E-04
CGA:  19    -0.481361675509E+03   -0.16296E-02   -0.16262E-02   688   0.317E-02 0.284E-04
CGA:  20    -0.481363040634E+03   -0.13651E-02   -0.13485E-02   688   0.282E-02 0.792E-04
CGA:  21    -0.481364300520E+03   -0.12599E-02   -0.12890E-02   688   0.404E-02-0.131E-03
CGA:  22    -0.481365499425E+03   -0.11989E-02   -0.11814E-02   688   0.344E-02 0.197E-03
CGA:  23    -0.481366833188E+03   -0.13338E-02   -0.13407E-02   688   0.315E-02-0.439E-04
CGA:  24    -0.481367789562E+03   -0.95637E-03   -0.95589E-03   688   0.237E-02 0.125E-04
CGA:  25    -0.481368549372E+03   -0.75981E-03   -0.75460E-03   688   0.143E-02 0.609E-04
CGA:  26    -0.481369080468E+03   -0.53110E-03   -0.53287E-03   688   0.112E-02-0.117E-04
CGA:  27    -0.481369366524E+03   -0.28606E-03   -0.28615E-03   688   0.727E-03 0.106E-04
CGA:  28    -0.481369622213E+03   -0.25569E-03   -0.25553E-03   688   0.470E-03 0.236E-05
CGA:  29    -0.481369765331E+03   -0.14312E-03   -0.14320E-03   688   0.382E-03-0.150E-05
CGA:  30    -0.481369884326E+03   -0.11899E-03   -0.11896E-03   688   0.236E-03 0.344E-06
CGA:  31    -0.481369958721E+03   -0.74395E-04   -0.74571E-04   688   0.192E-03-0.435E-05
   1 F= -.48524307E+03 E0= -.48521964E+03  d E =-.485243E+03  mag=     0.7024
       N       E                     dE             d eps       ncg     rms          ort
SDA:   1    -0.419888522881E+03    0.61481E+02    0.00000E+00   688   0.162E+03 0.000E+00
CGA:   2    -0.465701277976E+03   -0.45813E+02   -0.45764E+02   688   0.537E+02 0.405E+01
CGA:   3    -0.478321364724E+03   -0.12620E+02   -0.12663E+02   688   0.160E+02 0.401E+00
CGA:   4    -0.481250333505E+03   -0.29290E+01   -0.29622E+01   688   0.338E+01 0.101E+00
CGA:   5    -0.481991221720E+03   -0.74089E+00   -0.74244E+00   688   0.727E+00 0.916E-02
CGA:   6    -0.482166435174E+03   -0.17521E+00   -0.17518E+00   688   0.209E+00-0.403E-03
CGA:   7    -0.482224958035E+03   -0.58523E-01   -0.58516E-01   688   0.758E-01 0.279E-03
CGA:   8    -0.482249584021E+03   -0.24626E-01   -0.24609E-01   688   0.324E-01 0.205E-03
CGA:   9    -0.482260418853E+03   -0.10835E-01   -0.10832E-01   688   0.133E-01 0.336E-04
CGA:  10    -0.482264601028E+03   -0.41822E-02   -0.41802E-02   688   0.514E-02 0.412E-04
CGA:  11    -0.482266164180E+03   -0.15632E-02   -0.15627E-02   688   0.210E-02 0.133E-04
CGA:  12    -0.482266809564E+03   -0.64538E-03   -0.64519E-03   688   0.921E-03 0.535E-05
CGA:  13    -0.482267122230E+03   -0.31267E-03   -0.31278E-03   688   0.430E-03-0.263E-05
CGA:  14    -0.482267282957E+03   -0.16073E-03   -0.16097E-03   688   0.233E-03-0.260E-05
CGA:  15    -0.482267367516E+03   -0.84559E-04   -0.84526E-04   688   0.147E-03 0.247E-06
   2 F= -.48614997E+03 E0= -.48612697E+03  d E =-.906903E+00  mag=     0.7070
       N       E                     dE             d eps       ncg     rms          ort
SDA:   1    -0.474422303873E+03    0.78450E+01    0.00000E+00   688   0.239E+02 0.000E+00
CGA:   2    -0.480934020030E+03   -0.65117E+01   -0.65009E+01   688   0.819E+01-0.192E+00
CGA:   3    -0.482858807537E+03   -0.19248E+01   -0.19345E+01   688   0.200E+01 0.501E-01
CGA:   4    -0.483252641583E+03   -0.39383E+00   -0.39381E+00   688   0.459E+00 0.538E-03
CGA:   5    -0.483347541045E+03   -0.94899E-01   -0.94822E-01   688   0.982E-01 0.877E-04
CGA:   6    -0.483370401555E+03   -0.22861E-01   -0.22865E-01   688   0.245E-01 0.160E-04
CGA:   7    -0.483377583919E+03   -0.71824E-02   -0.71828E-02   688   0.958E-02-0.187E-04
CGA:   8    -0.483380694673E+03   -0.31108E-02   -0.31104E-02   688   0.467E-02 0.965E-05
CGA:   9    -0.483382300205E+03   -0.16055E-02   -0.16060E-02   688   0.210E-02-0.555E-05
CGA:  10    -0.483382980885E+03   -0.68068E-03   -0.68057E-03   688   0.884E-03 0.262E-05
CGA:  11    -0.483383277114E+03   -0.29623E-03   -0.29660E-03   688   0.448E-03-0.762E-05
CGA:  12    -0.483383454110E+03   -0.17700E-03   -0.17708E-03   688   0.371E-03-0.693E-06
CGA:  13    -0.483383643781E+03   -0.18967E-03   -0.19008E-03   688   0.531E-03-0.173E-05
CGA:  14    -0.483384068593E+03   -0.42481E-03   -0.43284E-03   688   0.140E-02-0.194E-04
CGA:  15    -0.483384696599E+03   -0.62801E-03   -0.94272E-03   688   0.425E-02-0.874E-03
CGA:  16    -0.483385826344E+03   -0.11297E-02   -0.11295E-02   688   0.251E-02-0.331E-05
CGA:  17    -0.483386826217E+03   -0.99987E-03   -0.99949E-03   688   0.150E-02 0.620E-05
CGA:  18    -0.483387533469E+03   -0.70725E-03   -0.70794E-03   688   0.868E-03-0.481E-05
CGA:  19    -0.483387943702E+03   -0.41023E-03   -0.41113E-03   688   0.571E-03-0.234E-05
CGA:  20    -0.483388218673E+03   -0.27497E-03   -0.27426E-03   688   0.454E-03 0.247E-05
CGA:  21    -0.483388393991E+03   -0.17532E-03   -0.17552E-03   688   0.336E-03-0.515E-05
CGA:  22    -0.483388531395E+03   -0.13740E-03   -0.13755E-03   688   0.188E-03-0.374E-05
CGA:  23    -0.483388609647E+03   -0.78252E-04   -0.78008E-04   688   0.113E-03 0.292E-05
   3 F= -.48726882E+03 E0= -.48725689E+03  d E =-.202576E+01  mag=     0.1106
       N       E                     dE             d eps       ncg     rms          ort
SDA:   1    -0.462715289688E+03    0.20673E+02    0.00000E+00   688   0.610E+02 0.000E+00
CGA:   2    -0.479329804291E+03   -0.16615E+02   -0.16752E+02   688   0.183E+02 0.240E+00
CGA:   3    -0.484070372302E+03   -0.47406E+01   -0.46522E+01   688   0.378E+01 0.465E-01
CGA:   4    -0.484934452449E+03   -0.86408E+00   -0.86412E+00   688   0.795E+00 0.142E-02
CGA:   5    -0.485112248566E+03   -0.17780E+00   -0.17794E+00   688   0.165E+00 0.688E-04
CGA:   6    -0.485154019125E+03   -0.41771E-01   -0.41762E-01   688   0.568E-01 0.500E-04
CGA:   7    -0.485170343403E+03   -0.16324E-01   -0.16325E-01   688   0.240E-01 0.287E-04
CGA:   8    -0.485178685010E+03   -0.83416E-02   -0.83417E-02   688   0.113E-01-0.104E-04
CGA:   9    -0.485182285716E+03   -0.36007E-02   -0.36011E-02   688   0.450E-02 0.181E-04
CGA:  10    -0.485183548500E+03   -0.12628E-02   -0.12616E-02   688   0.168E-02-0.388E-05
CGA:  11    -0.485184025296E+03   -0.47680E-03   -0.47720E-03   688   0.608E-03 0.632E-05
CGA:  12    -0.485184227162E+03   -0.20187E-03   -0.20184E-03   688   0.270E-03-0.457E-05
CGA:  13    -0.485184317725E+03   -0.90564E-04   -0.90566E-04   688   0.136E-03-0.129E-05
   4 F= -.48906811E+03 E0= -.48905745E+03  d E =-.179929E+01  mag=     0.0842
       N       E                     dE             d eps       ncg     rms          ort
SDA:   1    -0.471349924176E+03    0.13834E+02    0.00000E+00   688   0.390E+02 0.000E+00
CGA:   2    -0.481838778992E+03   -0.10489E+02   -0.10549E+02   688   0.119E+02 0.259E+00
CGA:   3    -0.484867002716E+03   -0.30282E+01   -0.29423E+01   688   0.267E+01-0.796E-01
CGA:   4    -0.485446715781E+03   -0.57971E+00   -0.58101E+00   688   0.571E+00 0.402E-03
CGA:   5    -0.485571202073E+03   -0.12449E+00   -0.12429E+00   688   0.127E+00 0.514E-05
CGA:   6    -0.485600386171E+03   -0.29184E-01   -0.29175E-01   688   0.428E-01 0.670E-04
CGA:   7    -0.485612313799E+03   -0.11928E-01   -0.11928E-01   688   0.169E-01 0.104E-04
CGA:   8    -0.485618299003E+03   -0.59852E-02   -0.59844E-02   688   0.811E-02 0.173E-04
CGA:   9    -0.485620917322E+03   -0.26183E-02   -0.26184E-02   688   0.341E-02-0.533E-05
CGA:  10    -0.485621844671E+03   -0.92735E-03   -0.92780E-03   688   0.128E-02 0.925E-05
CGA:  11    -0.485622200985E+03   -0.35631E-03   -0.35624E-03   688   0.494E-03-0.168E-05
CGA:  12    -0.485622344845E+03   -0.14386E-03   -0.14391E-03   688   0.224E-03 0.207E-05
CGA:  13    -0.485622415546E+03   -0.70701E-04   -0.70722E-04   688   0.113E-03-0.429E-05
   5 F= -.48950740E+03 E0= -.48949748E+03  d E =-.223857E+01  mag=     0.0677
       N       E                     dE             d eps       ncg     rms          ort
SDA:   1    -0.481515534959E+03    0.41068E+01    0.00000E+00   688   0.127E+02 0.000E+00
CGA:   2    -0.484845817903E+03   -0.33303E+01   -0.33362E+01   688   0.396E+01 0.436E-01
CGA:   3    -0.485861545047E+03   -0.10157E+01   -0.10080E+01   688   0.100E+01-0.397E-01
CGA:   4    -0.486066854079E+03   -0.20531E+00   -0.20657E+00   688   0.212E+00 0.632E-03
CGA:   5    -0.486117890204E+03   -0.51036E-01   -0.50971E-01   688   0.509E-01-0.286E-03
CGA:   6    -0.486131702466E+03   -0.13812E-01   -0.13815E-01   688   0.204E-01 0.664E-04
CGA:   7    -0.486137801342E+03   -0.60989E-02   -0.60990E-02   688   0.106E-01-0.384E-04
CGA:   8    -0.486141113746E+03   -0.33124E-02   -0.33122E-02   688   0.451E-02 0.795E-05
CGA:   9    -0.486142475598E+03   -0.13619E-02   -0.13620E-02   688   0.174E-02-0.186E-04
CGA:  10    -0.486142929090E+03   -0.45349E-03   -0.45362E-03   688   0.678E-03 0.190E-05
CGA:  11    -0.486143125995E+03   -0.19690E-03   -0.19688E-03   688   0.270E-03-0.426E-05
CGA:  12    -0.486143217368E+03   -0.91373E-04   -0.91324E-04   688   0.130E-03 0.925E-06
   6 F= -.49002760E+03 E0= -.49001692E+03  d E =-.520200E+00  mag=     0.0791
       N       E                     dE             d eps       ncg     rms          ort
SDA:   1    -0.474088420822E+03    0.12055E+02    0.00000E+00   688   0.339E+02 0.000E+00
CGA:   2    -0.482989791025E+03   -0.89014E+01   -0.89189E+01   688   0.104E+02 0.191E+00
CGA:   3    -0.485708981769E+03   -0.27192E+01   -0.27038E+01   688   0.261E+01-0.128E+00
CGA:   4    -0.486248248060E+03   -0.53927E+00   -0.54063E+00   688   0.561E+00 0.210E-02
CGA:   5    -0.486381080115E+03   -0.13283E+00   -0.13279E+00   688   0.144E+00-0.100E-03
CGA:   6    -0.486417421213E+03   -0.36341E-01   -0.36337E-01   688   0.603E-01-0.361E-04
CGA:   7    -0.486433796510E+03   -0.16375E-01   -0.16379E-01   688   0.303E-01 0.143E-03
CGA:   8    -0.486442796997E+03   -0.90005E-02   -0.90022E-02   688   0.137E-01-0.106E-03
CGA:   9    -0.486446808707E+03   -0.40117E-02   -0.40117E-02   688   0.489E-02-0.236E-05
CGA:  10    -0.486448264506E+03   -0.14558E-02   -0.14559E-02   688   0.174E-02-0.114E-04
CGA:  11    -0.486448797340E+03   -0.53283E-03   -0.53289E-03   688   0.795E-03-0.195E-05
CGA:  12    -0.486449047475E+03   -0.25013E-03   -0.25031E-03   688   0.384E-03-0.578E-05
CGA:  13    -0.486449182641E+03   -0.13517E-03   -0.13542E-03   688   0.183E-03-0.365E-05
CGA:  14    -0.486449248498E+03   -0.65857E-04   -0.66024E-04   688   0.879E-04-0.221E-05
   7 F= -.49032967E+03 E0= -.49031729E+03  d E =-.822270E+00  mag=     0.1055
       N       E                     dE             d eps       ncg     rms          ort
SDA:   1    -0.481872843479E+03    0.45763E+01    0.00000E+00   688   0.120E+02 0.000E+00
CGA:   2    -0.485360727091E+03   -0.34879E+01   -0.34877E+01   688   0.420E+01-0.119E-01
CGA:   3    -0.486327359492E+03   -0.96663E+00   -0.96574E+00   688   0.114E+01-0.189E-02
CGA:   4    -0.486542384629E+03   -0.21503E+00   -0.21537E+00   688   0.234E+00-0.113E-03
CGA:   5    -0.486593035064E+03   -0.50650E-01   -0.50630E-01   688   0.659E-01 0.343E-04
CGA:   6    -0.486607976727E+03   -0.14942E-01   -0.14919E-01   688   0.221E-01-0.105E-03
CGA:   7    -0.486613936367E+03   -0.59596E-02   -0.59604E-02   688   0.970E-02 0.296E-04
CGA:   8    -0.486617098518E+03   -0.31622E-02   -0.31634E-02   688   0.422E-02-0.222E-04
CGA:   9    -0.486618530944E+03   -0.14324E-02   -0.14329E-02   688   0.165E-02-0.787E-05
CGA:  10    -0.486619029200E+03   -0.49826E-03   -0.49840E-03   688   0.673E-03-0.908E-05
CGA:  11    -0.486619205786E+03   -0.17659E-03   -0.17654E-03   688   0.271E-03-0.167E-05
CGA:  12    -0.486619291657E+03   -0.85871E-04   -0.85964E-04   688   0.108E-03-0.295E-05
   8 F= -.49049727E+03 E0= -.49048502E+03  d E =-.167608E+00  mag=     0.1034
       N       E                     dE             d eps       ncg     rms          ort
SDA:   1    -0.486456142892E+03    0.16306E+00    0.00000E+00   688   0.431E+00 0.000E+00
CGA:   2    -0.486582969055E+03   -0.12683E+00   -0.12683E+00   688   0.147E+00 0.975E-04
CGA:   3    -0.486617748551E+03   -0.34779E-01   -0.34797E-01   688   0.379E-01 0.115E-03
CGA:   4    -0.486625067760E+03   -0.73192E-02   -0.73135E-02   688   0.764E-02-0.151E-04
CGA:   5    -0.486626779756E+03   -0.17120E-02   -0.17125E-02   688   0.210E-02 0.571E-05
CGA:   6    -0.486627284185E+03   -0.50443E-03   -0.50424E-03   688   0.730E-03-0.468E-05
CGA:   7    -0.486627490029E+03   -0.20584E-03   -0.20583E-03   688   0.321E-03 0.568E-05
CGA:   8    -0.486627594776E+03   -0.10475E-03   -0.10468E-03   688   0.137E-03 0.144E-05
CGA:   9    -0.486627639036E+03   -0.44261E-04   -0.44158E-04   688   0.500E-04 0.266E-05
   9 F= -.49050621E+03 E0= -.49049377E+03  d E =-.176541E+00  mag=     0.1058
       N       E                     dE             d eps       ncg     rms          ort
SDA:   1    -0.483775726728E+03    0.28519E+01    0.00000E+00   688   0.787E+01 0.000E+00
CGA:   2    -0.486104394176E+03   -0.23287E+01   -0.23287E+01   688   0.277E+01-0.266E-02
CGA:   3    -0.486645006848E+03   -0.54061E+00   -0.54677E+00   688   0.863E+00 0.406E-02
CGA:   4    -0.486803406356E+03   -0.15840E+00   -0.15841E+00   688   0.155E+00-0.101E-03
CGA:   5    -0.486838339099E+03   -0.34933E-01   -0.34927E-01   688   0.385E-01-0.132E-04
CGA:   6    -0.486847951597E+03   -0.96125E-02   -0.96127E-02   688   0.127E-01-0.275E-05
CGA:   7    -0.486851542956E+03   -0.35914E-02   -0.35915E-02   688   0.626E-02-0.176E-04
CGA:   8    -0.486853474171E+03   -0.19312E-02   -0.19307E-02   688   0.305E-02 0.129E-04
CGA:   9    -0.486854441563E+03   -0.96739E-03   -0.96777E-03   688   0.124E-02-0.947E-05
CGA:  10    -0.486854832461E+03   -0.39090E-03   -0.39089E-03   688   0.414E-03 0.156E-06
CGA:  11    -0.486854973668E+03   -0.14121E-03   -0.14131E-03   688   0.174E-03-0.161E-05
CGA:  12    -0.486855031244E+03   -0.57576E-04   -0.57517E-04   688   0.955E-04 0.115E-05
  10 F= -.49073402E+03 E0= -.49072298E+03  d E =-.227812E+00  mag=     0.0947
       N       E                     dE             d eps       ncg     rms          ort
SDA:   1    -0.482639197815E+03    0.42158E+01    0.00000E+00   688   0.110E+02 0.000E+00
CGA:   2    -0.485881507019E+03   -0.32423E+01   -0.32424E+01   688   0.396E+01-0.461E-02
CGA:   3    -0.486650129016E+03   -0.76862E+00   -0.77850E+00   688   0.121E+01 0.560E-02
CGA:   4    -0.486874367864E+03   -0.22424E+00   -0.22456E+00   688   0.218E+00-0.156E-03
CGA:   5    -0.486923273906E+03   -0.48906E-01   -0.48894E-01   688   0.541E-01-0.359E-04
CGA:   6    -0.486936809681E+03   -0.13536E-01   -0.13537E-01   688   0.173E-01 0.713E-05
CGA:   7    -0.486941857265E+03   -0.50476E-02   -0.50478E-02   688   0.843E-02-0.166E-04
CGA:   8    -0.486944575035E+03   -0.27178E-02   -0.27171E-02   688   0.406E-02 0.132E-04
CGA:   9    -0.486945915634E+03   -0.13406E-02   -0.13411E-02   688   0.163E-02-0.101E-04
CGA:  10    -0.486946445253E+03   -0.52962E-03   -0.52966E-03   688   0.545E-03-0.866E-06
CGA:  11    -0.486946640191E+03   -0.19494E-03   -0.19502E-03   688   0.223E-03-0.106E-05
CGA:  12    -0.486946724622E+03   -0.84432E-04   -0.84392E-04   688   0.117E-03 0.401E-06
  11 F= -.49082521E+03 E0= -.49081618E+03  d E =-.319001E+00  mag=     0.0733
       N       E                     dE             d eps       ncg     rms          ort
SDA:   1    -0.485122169561E+03    0.18245E+01    0.00000E+00   688   0.531E+01 0.000E+00
CGA:   2    -0.486637911770E+03   -0.15157E+01   -0.15157E+01   688   0.165E+01-0.194E-02
CGA:   3    -0.486992764082E+03   -0.35485E+00   -0.35635E+00   688   0.509E+00 0.292E-02
CGA:   4    -0.487083275782E+03   -0.90512E-01   -0.90608E-01   688   0.992E-01-0.169E-03
CGA:   5    -0.487104866022E+03   -0.21590E-01   -0.21585E-01   688   0.227E-01 0.130E-04
CGA:   6    -0.487110515752E+03   -0.56497E-02   -0.56499E-02   688   0.679E-02-0.132E-05
CGA:   7    -0.487112463514E+03   -0.19478E-02   -0.19478E-02   688   0.310E-02-0.698E-05
CGA:   8    -0.487113432706E+03   -0.96919E-03   -0.96873E-03   688   0.144E-02 0.134E-04
CGA:   9    -0.487113916797E+03   -0.48409E-03   -0.48428E-03   688   0.567E-03-0.363E-05
CGA:  10    -0.487114101736E+03   -0.18494E-03   -0.18490E-03   688   0.189E-03 0.912E-06
CGA:  11    -0.487114166069E+03   -0.64333E-04   -0.64326E-04   688   0.763E-04 0.109E-06
  12 F= -.49099449E+03 E0= -.49098617E+03  d E =-.169281E+00  mag=     0.0654
       N       E                     dE             d eps       ncg     rms          ort
SDA:   1    -0.469386249167E+03    0.17728E+02    0.00000E+00   688   0.491E+02 0.000E+00
CGA:   2    -0.482552318229E+03   -0.13166E+02   -0.13169E+02   688   0.185E+02 0.582E-01
CGA:   3    -0.486123561604E+03   -0.35712E+01   -0.35910E+01   688   0.506E+01 0.138E-01
CGA:   4    -0.487134909543E+03   -0.10113E+01   -0.10148E+01   688   0.863E+00 0.416E-02
CGA:   5    -0.487336619801E+03   -0.20171E+00   -0.20162E+00   688   0.206E+00-0.451E-03
CGA:   6    -0.487387211946E+03   -0.50592E-01   -0.50597E-01   688   0.603E-01 0.408E-04
CGA:   7    -0.487405352172E+03   -0.18140E-01   -0.18140E-01   688   0.254E-01 0.142E-04
CGA:   8    -0.487414056143E+03   -0.87040E-02   -0.87024E-02   688   0.116E-01 0.276E-04
CGA:   9    -0.487417982184E+03   -0.39260E-02   -0.39257E-02   688   0.456E-02 0.409E-05
CGA:  10    -0.487419418237E+03   -0.14361E-02   -0.14359E-02   688   0.154E-02 0.395E-05
CGA:  11    -0.487419912318E+03   -0.49408E-03   -0.49406E-03   688   0.651E-03 0.448E-06
CGA:  12    -0.487420116998E+03   -0.20468E-03   -0.20471E-03   688   0.306E-03-0.128E-05
CGA:  13    -0.487420224411E+03   -0.10741E-03   -0.10741E-03   688   0.132E-03 0.745E-07
CGA:  14    -0.487420275037E+03   -0.50626E-04   -0.50622E-04   688   0.528E-04 0.499E-07
  13 F= -.49130445E+03 E0= -.49129770E+03  d E =-.479238E+00  mag=     0.0514
       N       E                     dE             d eps       ncg     rms          ort
SDA:   1    -0.413485173026E+03    0.73935E+02    0.00000E+00   688   0.222E+03 0.000E+00
CGA:   2    -0.461234817851E+03   -0.47750E+02   -0.48669E+02   688   0.850E+02 0.162E+01
CGA:   3    -0.481177885070E+03   -0.19943E+02   -0.19939E+02   688   0.209E+02 0.156E+00
CGA:   4    -0.485767048894E+03   -0.45892E+01   -0.45798E+01   688   0.455E+01 0.182E-02
CGA:   5    -0.486647565411E+03   -0.88052E+00   -0.88791E+00   688   0.142E+01 0.530E-02
CGA:   6    -0.486978325332E+03   -0.33076E+00   -0.33067E+00   688   0.390E+00-0.208E-03
CGA:   7    -0.487084823293E+03   -0.10650E+00   -0.10649E+00   688   0.156E+00-0.158E-03
CGA:   8    -0.487129029692E+03   -0.44206E-01   -0.44206E-01   688   0.661E-01 0.211E-03
CGA:   9    -0.487148596845E+03   -0.19567E-01   -0.19566E-01   688   0.287E-01 0.866E-04
CGA:  10    -0.487157246989E+03   -0.86501E-02   -0.86499E-02   688   0.115E-01 0.106E-04
CGA:  11    -0.487160962786E+03   -0.37158E-02   -0.37159E-02   688   0.449E-02-0.255E-05
CGA:  12    -0.487162464198E+03   -0.15014E-02   -0.15011E-02   688   0.189E-02 0.637E-05
CGA:  13    -0.487163069241E+03   -0.60504E-03   -0.60511E-03   688   0.850E-03-0.234E-05
CGA:  14    -0.487163347142E+03   -0.27790E-03   -0.27791E-03   688   0.350E-03-0.216E-06
CGA:  15    -0.487163476712E+03   -0.12957E-03   -0.12960E-03   688   0.147E-03-0.406E-06
CGA:  16    -0.487163531098E+03   -0.54386E-04   -0.54437E-04   688   0.666E-04-0.517E-06
  14 F= -.49105508E+03 E0= -.49105044E+03  d E =-.229869E+00  mag=     0.0319
       N       E                     dE             d eps       ncg     rms          ort
SDA:   1    -0.450482721379E+03    0.36681E+02    0.00000E+00   688   0.103E+03 0.000E+00
CGA:   2    -0.477313381337E+03   -0.26831E+02   -0.26901E+02   688   0.347E+02 0.603E+00
CGA:   3    -0.485068123239E+03   -0.77547E+01   -0.76701E+01   688   0.977E+01-0.110E+00
CGA:   4    -0.486889676737E+03   -0.18216E+01   -0.18322E+01   688   0.175E+01 0.439E-02
CGA:   5    -0.487292426038E+03   -0.40275E+00   -0.40240E+00   688   0.414E+00-0.128E-02
CGA:   6    -0.487398052283E+03   -0.10563E+00   -0.10563E+00   688   0.119E+00 0.120E-04
CGA:   7    -0.487435275433E+03   -0.37223E-01   -0.37222E-01   688   0.518E-01 0.348E-04
CGA:   8    -0.487452723555E+03   -0.17448E-01   -0.17448E-01   688   0.223E-01 0.887E-05
CGA:   9    -0.487460086456E+03   -0.73629E-02   -0.73624E-02   688   0.844E-02 0.124E-04
CGA:  10    -0.487462671955E+03   -0.25855E-02   -0.25853E-02   688   0.281E-02 0.130E-04
CGA:  11    -0.487463571042E+03   -0.89909E-03   -0.89926E-03   688   0.108E-02-0.574E-05
CGA:  12    -0.487463943304E+03   -0.37226E-03   -0.37216E-03   688   0.446E-03 0.196E-05
CGA:  13    -0.487464117476E+03   -0.17417E-03   -0.17459E-03   688   0.194E-03-0.438E-05
CGA:  14    -0.487464189039E+03   -0.71563E-04   -0.71611E-04   688   0.817E-04-0.622E-06
  15 F= -.49135016E+03 E0= -.49134443E+03  d E =-.524953E+00  mag=     0.0413
       N       E                     dE             d eps       ncg     rms          ort
SDA:   1    -0.485617615532E+03    0.18465E+01    0.00000E+00   688   0.534E+01 0.000E+00
CGA:   2    -0.487163134591E+03   -0.15455E+01   -0.15455E+01   688   0.156E+01 0.338E-03
CGA:   3    -0.487522420590E+03   -0.35929E+00   -0.35987E+00   688   0.448E+00 0.154E-02
CGA:   4    -0.487603049122E+03   -0.80629E-01   -0.80769E-01   688   0.956E-01-0.252E-03
CGA:   5    -0.487623174323E+03   -0.20125E-01   -0.20117E-01   688   0.217E-01 0.111E-04
CGA:   6    -0.487628694346E+03   -0.55200E-02   -0.55201E-02   688   0.643E-02-0.348E-05
CGA:   7    -0.487630659184E+03   -0.19648E-02   -0.19649E-02   688   0.296E-02-0.191E-05
CGA:   8    -0.487631616130E+03   -0.95695E-03   -0.95659E-03   688   0.139E-02 0.112E-04
CGA:   9    -0.487632070685E+03   -0.45455E-03   -0.45464E-03   688   0.515E-03-0.262E-05
CGA:  10    -0.487632235484E+03   -0.16480E-03   -0.16477E-03   688   0.159E-03 0.115E-05
CGA:  11    -0.487632288502E+03   -0.53018E-04   -0.52970E-04   688   0.590E-04 0.126E-05
  16 F= -.49152056E+03 E0= -.49151483E+03  d E =-.170399E+00  mag=     0.0428
       N       E                     dE             d eps       ncg     rms          ort
SDA:   1    -0.469708325509E+03    0.17924E+02    0.00000E+00   688   0.489E+02 0.000E+00
CGA:   2    -0.483296502466E+03   -0.13588E+02   -0.13592E+02   688   0.165E+02 0.635E-01
CGA:   3    -0.486693371679E+03   -0.33969E+01   -0.33997E+01   688   0.489E+01 0.125E-01
CGA:   4    -0.487607562228E+03   -0.91419E+00   -0.92031E+00   688   0.899E+00-0.157E-02
CGA:   5    -0.487811078649E+03   -0.20352E+00   -0.20338E+00   688   0.201E+00-0.341E-03
CGA:   6    -0.487862786438E+03   -0.51708E-01   -0.51712E-01   688   0.592E-01 0.609E-04
CGA:   7    -0.487880990022E+03   -0.18204E-01   -0.18202E-01   688   0.262E-01 0.318E-04
CGA:   8    -0.487889906947E+03   -0.89169E-02   -0.89157E-02   688   0.118E-01 0.278E-04
CGA:   9    -0.487893912597E+03   -0.40057E-02   -0.40053E-02   688   0.453E-02 0.461E-05
CGA:  10    -0.487895302115E+03   -0.13895E-02   -0.13895E-02   688   0.160E-02 0.353E-05
CGA:  11    -0.487895748683E+03   -0.44657E-03   -0.44660E-03   688   0.769E-03 0.269E-05
CGA:  12    -0.487895945948E+03   -0.19727E-03   -0.19726E-03   688   0.346E-03-0.609E-07
CGA:  13    -0.487896056887E+03   -0.11094E-03   -0.11098E-03   688   0.154E-03-0.121E-05
CGA:  14    -0.487896108755E+03   -0.51868E-04   -0.51876E-04   688   0.669E-04-0.179E-06
  17 F= -.49179105E+03 E0= -.49178565E+03  d E =-.440892E+00  mag=     0.0416
       N       E                     dE             d eps       ncg     rms          ort
SDA:   1    -0.487104504473E+03    0.79155E+00    0.00000E+00   688   0.211E+01 0.000E+00
CGA:   2    -0.487718021465E+03   -0.61352E+00   -0.61352E+00   688   0.602E+00 0.416E-04
CGA:   3    -0.487861968511E+03   -0.14395E+00   -0.14402E+00   688   0.159E+00 0.409E-03
CGA:   4    -0.487891471428E+03   -0.29503E-01   -0.29526E-01   688   0.359E-01-0.550E-04
CGA:   5    -0.487898835206E+03   -0.73638E-02   -0.73622E-02   688   0.828E-02 0.105E-04
CGA:   6    -0.487900949760E+03   -0.21146E-02   -0.21144E-02   688   0.242E-02-0.641E-05
CGA:   7    -0.487901713363E+03   -0.76360E-03   -0.76359E-03   688   0.111E-02 0.220E-06
CGA:   8    -0.487902078479E+03   -0.36512E-03   -0.36484E-03   688   0.523E-03 0.577E-05
CGA:   9    -0.487902248235E+03   -0.16976E-03   -0.16983E-03   688   0.203E-03-0.200E-05
CGA:  10    -0.487902309558E+03   -0.61323E-04   -0.61311E-04   688   0.689E-04 0.687E-06
  18 F= -.49179863E+03 E0= -.49179330E+03  d E =-.448469E+00  mag=     0.0408
       N       E                     dE             d eps       ncg     rms          ort
SDA:   1    -0.485648874332E+03    0.22534E+01    0.00000E+00   688   0.625E+01 0.000E+00
CGA:   2    -0.487516386852E+03   -0.18675E+01   -0.18674E+01   688   0.170E+01 0.360E-02
CGA:   3    -0.487944166324E+03   -0.42778E+00   -0.42779E+00   688   0.397E+00 0.129E-03
CGA:   4    -0.488024311135E+03   -0.80145E-01   -0.80155E-01   688   0.882E-01-0.646E-05
CGA:   5    -0.488042939856E+03   -0.18629E-01   -0.18625E-01   688   0.227E-01 0.182E-04
CGA:   6    -0.488048610223E+03   -0.56704E-02   -0.56703E-02   688   0.722E-02-0.581E-05
CGA:   7    -0.488050989564E+03   -0.23793E-02   -0.23788E-02   688   0.338E-02 0.962E-05
CGA:   8    -0.488052179871E+03   -0.11903E-02   -0.11900E-02   688   0.155E-02 0.464E-05
CGA:   9    -0.488052682262E+03   -0.50239E-03   -0.50246E-03   688   0.531E-03-0.177E-05
CGA:  10    -0.488052847757E+03   -0.16550E-03   -0.16544E-03   688   0.158E-03 0.225E-05
CGA:  11    -0.488052903848E+03   -0.56090E-04   -0.56155E-04   688   0.598E-04-0.973E-06
  19 F= -.49195280E+03 E0= -.49194747E+03  d E =-.154171E+00  mag=     0.0408
       N       E                     dE             d eps       ncg     rms          ort
SDA:   1    -0.475686093262E+03    0.12367E+02    0.00000E+00   688   0.326E+02 0.000E+00
CGA:   2    -0.485367905229E+03   -0.96818E+01   -0.96816E+01   688   0.912E+01 0.406E-01
CGA:   3    -0.487569686173E+03   -0.22018E+01   -0.22019E+01   688   0.243E+01 0.235E-02
CGA:   4    -0.488017631127E+03   -0.44794E+00   -0.44942E+00   688   0.550E+00-0.474E-03
CGA:   5    -0.488134149253E+03   -0.11652E+00   -0.11640E+00   688   0.127E+00-0.997E-04
CGA:   6    -0.488167385532E+03   -0.33236E-01   -0.33238E-01   688   0.394E-01 0.319E-04
CGA:   7    -0.488180165066E+03   -0.12780E-01   -0.12779E-01   688   0.192E-01 0.101E-04
CGA:   8    -0.488186552528E+03   -0.63875E-02   -0.63866E-02   688   0.894E-02 0.214E-04
CGA:   9    -0.488189439968E+03   -0.28874E-02   -0.28876E-02   688   0.309E-02-0.452E-05
CGA:  10    -0.488190413983E+03   -0.97401E-03   -0.97389E-03   688   0.966E-03 0.456E-05
CGA:  11    -0.488190725346E+03   -0.31136E-03   -0.31137E-03   688   0.427E-03-0.216E-06
CGA:  12    -0.488190849835E+03   -0.12449E-03   -0.12449E-03   688   0.218E-03-0.207E-05
CGA:  13    -0.488190918302E+03   -0.68466E-04   -0.68499E-04   688   0.880E-04-0.131E-05
  20 F= -.49209857E+03 E0= -.49209315E+03  d E =-.299945E+00  mag=     0.0408
       N       E                     dE             d eps       ncg     rms          ort
SDA:   1    -0.484921987348E+03    0.32689E+01    0.00000E+00   688   0.890E+01 0.000E+00
CGA:   2    -0.487587211696E+03   -0.26652E+01   -0.26652E+01   688   0.242E+01 0.933E-02
CGA:   3    -0.488196052747E+03   -0.60884E+00   -0.60878E+00   688   0.531E+00-0.355E-03
CGA:   4    -0.488309884249E+03   -0.11383E+00   -0.11384E+00   688   0.101E+00 0.246E-05
CGA:   5    -0.488333732984E+03   -0.23849E-01   -0.23849E-01   688   0.256E-01 0.771E-05
CGA:   6    -0.488340219328E+03   -0.64863E-02   -0.64862E-02   688   0.876E-02-0.555E-05
CGA:   7    -0.488342992844E+03   -0.27735E-02   -0.27733E-02   688   0.416E-02 0.793E-05
CGA:   8    -0.488344409094E+03   -0.14163E-02   -0.14164E-02   688   0.183E-02-0.292E-05
CGA:   9    -0.488345004156E+03   -0.59506E-03   -0.59503E-03   688   0.589E-03 0.895E-06
CGA:  10    -0.488345189242E+03   -0.18509E-03   -0.18507E-03   688   0.182E-03 0.679E-06
CGA:  11    -0.488345250845E+03   -0.61604E-04   -0.61623E-04   688   0.717E-04-0.432E-06
  21 F= -.49225682E+03 E0= -.49225140E+03  d E =-.158246E+00  mag=     0.0402
       N       E                     dE             d eps       ncg     rms          ort
SDA:   1    -0.477282308667E+03    0.11063E+02    0.00000E+00   688   0.290E+02 0.000E+00
CGA:   2    -0.485956365009E+03   -0.86741E+01   -0.86739E+01   688   0.792E+01 0.491E-01
CGA:   3    -0.487926687823E+03   -0.19703E+01   -0.19705E+01   688   0.182E+01 0.259E-02
CGA:   4    -0.488302830365E+03   -0.37614E+00   -0.37631E+00   688   0.375E+00 0.382E-03
CGA:   5    -0.488385048875E+03   -0.82219E-01   -0.82185E-01   688   0.998E-01-0.218E-04
CGA:   6    -0.488409075659E+03   -0.24027E-01   -0.24030E-01   688   0.316E-01 0.673E-05
CGA:   7    -0.488419120394E+03   -0.10045E-01   -0.10044E-01   688   0.145E-01 0.129E-04
CGA:   8    -0.488424141701E+03   -0.50213E-02   -0.50211E-02   688   0.647E-02 0.407E-05
CGA:   9    -0.488426245301E+03   -0.21036E-02   -0.21037E-02   688   0.221E-02-0.175E-05
CGA:  10    -0.488426920132E+03   -0.67483E-03   -0.67478E-03   688   0.690E-03 0.423E-05
CGA:  11    -0.488427147378E+03   -0.22725E-03   -0.22730E-03   688   0.267E-03-0.144E-05
CGA:  12    -0.488427239568E+03   -0.92191E-04   -0.92223E-04   688   0.126E-03-0.619E-06
  22 F= -.49234559E+03 E0= -.49234017E+03  d E =-.247018E+00  mag=     0.0390
       N       E                     dE             d eps       ncg     rms          ort
SDA:   1    -0.487057824047E+03    0.13693E+01    0.00000E+00   688   0.380E+01 0.000E+00
CGA:   2    -0.488191025055E+03   -0.11332E+01   -0.11332E+01   688   0.102E+01 0.174E-02
CGA:   3    -0.488449389597E+03   -0.25836E+00   -0.25835E+00   688   0.219E+00-0.129E-03
CGA:   4    -0.488496938799E+03   -0.47549E-01   -0.47545E-01   688   0.409E-01-0.105E-04
CGA:   5    -0.488506769446E+03   -0.98306E-02   -0.98310E-02   688   0.101E-01 0.485E-05
CGA:   6    -0.488509388810E+03   -0.26194E-02   -0.26194E-02   688   0.352E-02 0.672E-06
CGA:   7    -0.488510517560E+03   -0.11287E-02   -0.11287E-02   688   0.170E-02 0.161E-05
CGA:   8    -0.488511090739E+03   -0.57318E-03   -0.57326E-03   688   0.743E-03-0.168E-05
CGA:   9    -0.488511329698E+03   -0.23896E-03   -0.23896E-03   688   0.236E-03-0.170E-06
CGA:  10    -0.488511403932E+03   -0.74234E-04   -0.74243E-04   688   0.743E-04-0.451E-06
  23 F= -.49243198E+03 E0= -.49242648E+03  d E =-.863878E-01  mag=     0.0391
       N       E                     dE             d eps       ncg     rms          ort
SDA:   1    -0.475554389936E+03    0.12957E+02    0.00000E+00   688   0.343E+02 0.000E+00
CGA:   2    -0.485759136632E+03   -0.10205E+02   -0.10205E+02   688   0.931E+01 0.347E-01
CGA:   3    -0.488071101910E+03   -0.23120E+01   -0.23129E+01   688   0.215E+01 0.755E-02
CGA:   4    -0.488510374026E+03   -0.43927E+00   -0.43954E+00   688   0.465E+00 0.548E-03
CGA:   5    -0.488609228191E+03   -0.98854E-01   -0.98762E-01   688   0.123E+00-0.641E-04
CGA:   6    -0.488638990476E+03   -0.29762E-01   -0.29765E-01   688   0.367E-01 0.851E-05
CGA:   7    -0.488650963999E+03   -0.11974E-01   -0.11973E-01   688   0.168E-01 0.832E-05
CGA:   8    -0.488656754578E+03   -0.57906E-02   -0.57905E-02   688   0.764E-02 0.455E-05
CGA:   9    -0.488659159879E+03   -0.24053E-02   -0.24054E-02   688   0.269E-02-0.385E-05
CGA:  10    -0.488659961169E+03   -0.80129E-03   -0.80126E-03   688   0.827E-03 0.373E-05
CGA:  11    -0.488660233923E+03   -0.27275E-03   -0.27284E-03   688   0.316E-03-0.236E-05
CGA:  12    -0.488660344771E+03   -0.11085E-03   -0.11094E-03   688   0.148E-03-0.154E-05
CGA:  13    -0.488660396063E+03   -0.51292E-04   -0.51350E-04   688   0.696E-04-0.109E-05
  24 F= -.49258737E+03 E0= -.49258161E+03  d E =-.241775E+00  mag=     0.0396
       N       E                     dE             d eps       ncg     rms          ort
SDA:   1    -0.435918135065E+03    0.52742E+02    0.00000E+00   688   0.138E+03 0.000E+00
CGA:   2    -0.476562477443E+03   -0.40644E+02   -0.40647E+02   688   0.395E+02 0.129E+00
CGA:   3    -0.485792795469E+03   -0.92303E+01   -0.92504E+01   688   0.105E+02 0.105E+00
CGA:   4    -0.487757107878E+03   -0.19643E+01   -0.19777E+01   688   0.239E+01 0.327E-02
CGA:   5    -0.488267594368E+03   -0.51049E+00   -0.50939E+00   688   0.551E+00-0.137E-02
CGA:   6    -0.488412199495E+03   -0.14461E+00   -0.14462E+00   688   0.162E+00 0.345E-03
CGA:   7    -0.488463152830E+03   -0.50953E-01   -0.50951E-01   688   0.787E-01 0.602E-04
CGA:   8    -0.488487977450E+03   -0.24825E-01   -0.24827E-01   688   0.352E-01-0.164E-04
CGA:   9    -0.488499355742E+03   -0.11378E-01   -0.11378E-01   688   0.120E-01 0.522E-05
CGA:  10    -0.488503225320E+03   -0.38696E-02   -0.38694E-02   688   0.361E-02 0.648E-05
CGA:  11    -0.488504485914E+03   -0.12606E-02   -0.12607E-02   688   0.132E-02-0.163E-05
CGA:  12    -0.488504997656E+03   -0.51174E-03   -0.51219E-03   688   0.575E-03-0.469E-05
CGA:  13    -0.488505226785E+03   -0.22913E-03   -0.22959E-03   688   0.250E-03-0.450E-05
CGA:  14    -0.488505314694E+03   -0.87908E-04   -0.87960E-04   688   0.106E-03-0.927E-06
  25 F= -.49244387E+03 E0= -.49243755E+03  d E =-.982732E-01  mag=     0.0394
       N       E                     dE             d eps       ncg     rms          ort
SDA:   1    -0.460421236810E+03    0.28084E+02    0.00000E+00   688   0.743E+02 0.000E+00
CGA:   2    -0.482269446832E+03   -0.21848E+02   -0.21843E+02   688   0.217E+02-0.162E+00
CGA:   3    -0.487209096705E+03   -0.49396E+01   -0.49561E+01   688   0.593E+01 0.514E-01
CGA:   4    -0.488274222425E+03   -0.10651E+01   -0.10739E+01   688   0.131E+01-0.793E-02
CGA:   5    -0.488555701311E+03   -0.28148E+00   -0.28103E+00   688   0.281E+00-0.166E-03
CGA:   6    -0.488629391138E+03   -0.73690E-01   -0.73700E-01   688   0.825E-01 0.158E-03
CGA:   7    -0.488655051263E+03   -0.25660E-01   -0.25658E-01   688   0.398E-01 0.509E-04
CGA:   8    -0.488668064057E+03   -0.13013E-01   -0.13011E-01   688   0.182E-01 0.466E-04
CGA:   9    -0.488674044439E+03   -0.59804E-02   -0.59799E-02   688   0.637E-02 0.114E-04
CGA:  10    -0.488676041669E+03   -0.19972E-02   -0.19971E-02   688   0.185E-02 0.818E-05
CGA:  11    -0.488676674814E+03   -0.63314E-03   -0.63298E-03   688   0.632E-03 0.372E-05
CGA:  12    -0.488676915115E+03   -0.24030E-03   -0.24043E-03   688   0.275E-03-0.157E-05
CGA:  13    -0.488677017258E+03   -0.10214E-03   -0.10207E-03   688   0.124E-03 0.100E-05
CGA:  14    -0.488677057337E+03   -0.40079E-04   -0.40086E-04   688   0.547E-04-0.409E-06
  26 F= -.49260728E+03 E0= -.49260141E+03  d E =-.261688E+00  mag=     0.0391
       N       E                     dE             d eps       ncg     rms          ort
SDA:   1    -0.488028016609E+03    0.64900E+00    0.00000E+00   688   0.195E+01 0.000E+00
CGA:   2    -0.488617681758E+03   -0.58967E+00   -0.58966E+00   688   0.538E+00-0.282E-03
CGA:   3    -0.488754202503E+03   -0.13652E+00   -0.13653E+00   688   0.119E+00 0.970E-04
CGA:   4    -0.488779571638E+03   -0.25369E-01   -0.25366E-01   688   0.248E-01-0.150E-04
CGA:   5    -0.488785213795E+03   -0.56422E-02   -0.56423E-02   688   0.749E-02 0.132E-04
CGA:   6    -0.488787016756E+03   -0.18030E-02   -0.18026E-02   688   0.272E-02-0.939E-05
CGA:   7    -0.488787907069E+03   -0.89031E-03   -0.89019E-03   688   0.132E-02 0.346E-05
CGA:   8    -0.488788364062E+03   -0.45699E-03   -0.45700E-03   688   0.585E-03-0.159E-06
CGA:   9    -0.488788544702E+03   -0.18064E-03   -0.18066E-03   688   0.206E-03-0.186E-05
CGA:  10    -0.488788604261E+03   -0.59559E-04   -0.59562E-04   688   0.649E-04 0.612E-06
  27 F= -.49271903E+03 E0= -.49271279E+03  d E =-.111750E+00  mag=     0.0424
       N       E                     dE             d eps       ncg     rms          ort
SDA:   1    -0.482136341456E+03    0.66522E+01    0.00000E+00   688   0.175E+02 0.000E+00
CGA:   2    -0.487423457551E+03   -0.52871E+01   -0.52872E+01   688   0.497E+01-0.838E-02
CGA:   3    -0.488639987280E+03   -0.12165E+01   -0.12171E+01   688   0.125E+01 0.329E-02
CGA:   4    -0.488880791065E+03   -0.24080E+00   -0.24114E+00   688   0.292E+00-0.656E-04
CGA:   5    -0.488942132206E+03   -0.61341E-01   -0.61280E-01   688   0.754E-01-0.273E-04
CGA:   6    -0.488961825027E+03   -0.19693E-01   -0.19694E-01   688   0.242E-01 0.372E-05
CGA:   7    -0.488970110822E+03   -0.82858E-02   -0.82858E-02   688   0.125E-01-0.164E-05
CGA:   8    -0.488974251611E+03   -0.41408E-02   -0.41403E-02   688   0.582E-02 0.125E-04
CGA:   9    -0.488976069498E+03   -0.18179E-02   -0.18180E-02   688   0.197E-02-0.674E-05
CGA:  10    -0.488976689571E+03   -0.62007E-03   -0.62003E-03   688   0.597E-03 0.165E-05
CGA:  11    -0.488976898806E+03   -0.20923E-03   -0.20930E-03   688   0.229E-03-0.110E-05
CGA:  12    -0.488976984409E+03   -0.85603E-04   -0.85672E-04   688   0.102E-03-0.874E-06
  28 F= -.49290758E+03 E0= -.49290002E+03  d E =-.300304E+00  mag=     0.0532
       N       E                     dE             d eps       ncg     rms          ort
SDA:   1    -0.488090165693E+03    0.88673E+00    0.00000E+00   688   0.231E+01 0.000E+00
CGA:   2    -0.488788438449E+03   -0.69827E+00   -0.69827E+00   688   0.640E+00-0.558E-03
CGA:   3    -0.488949896694E+03   -0.16146E+00   -0.16148E+00   688   0.144E+00 0.178E-03
CGA:   4    -0.488980205945E+03   -0.30309E-01   -0.30305E-01   688   0.305E-01-0.211E-04
CGA:   5    -0.488986951492E+03   -0.67455E-02   -0.67452E-02   688   0.926E-02 0.146E-04
CGA:   6    -0.488989159313E+03   -0.22078E-02   -0.22075E-02   688   0.315E-02-0.102E-04
CGA:   7    -0.488990222258E+03   -0.10629E-02   -0.10629E-02   688   0.152E-02 0.208E-05
CGA:   8    -0.488990763046E+03   -0.54079E-03   -0.54076E-03   688   0.691E-03 0.470E-06
CGA:   9    -0.488990977820E+03   -0.21477E-03   -0.21482E-03   688   0.249E-03-0.302E-05
CGA:  10    -0.488991050229E+03   -0.72409E-04   -0.72413E-04   688   0.778E-04 0.913E-06
  29 F= -.49292155E+03 E0= -.49291339E+03  d E =-.314266E+00  mag=     0.0572
       N       E                     dE             d eps       ncg     rms          ort
SDA:   1    -0.488232904701E+03    0.75807E+00    0.00000E+00   688   0.214E+01 0.000E+00
CGA:   2    -0.488877775472E+03   -0.64487E+00   -0.64488E+00   688   0.611E+00-0.871E-03
CGA:   3    -0.489030089290E+03   -0.15231E+00   -0.15236E+00   688   0.147E+00 0.329E-03
CGA:   4    -0.489059568688E+03   -0.29479E-01   -0.29480E-01   688   0.333E-01-0.228E-04
CGA:   5    -0.489066449007E+03   -0.68803E-02   -0.68794E-02   688   0.931E-02 0.195E-04
CGA:   6    -0.489068780596E+03   -0.23316E-02   -0.23314E-02   688   0.298E-02-0.790E-05
CGA:   7    -0.489069780125E+03   -0.99953E-03   -0.99946E-03   688   0.145E-02 0.167E-05
CGA:   8    -0.489070271601E+03   -0.49148E-03   -0.49132E-03   688   0.663E-03 0.308E-05
CGA:   9    -0.489070480857E+03   -0.20926E-03   -0.20933E-03   688   0.240E-03-0.295E-05
CGA:  10    -0.489070554303E+03   -0.73446E-04   -0.73431E-04   688   0.743E-04 0.949E-06
  30 F= -.49300088E+03 E0= -.49299267E+03  d E =-.793291E-01  mag=     0.0568
       N       E                     dE             d eps       ncg     rms          ort
SDA:   1    -0.486054581945E+03    0.30159E+01    0.00000E+00   688   0.787E+01 0.000E+00
CGA:   2    -0.488415031689E+03   -0.23604E+01   -0.23605E+01   688   0.231E+01-0.634E-02
CGA:   3    -0.488969115506E+03   -0.55408E+00   -0.55450E+00   688   0.629E+00 0.213E-02
CGA:   4    -0.489085419266E+03   -0.11630E+00   -0.11645E+00   688   0.144E+00-0.161E-03
CGA:   5    -0.489115247111E+03   -0.29828E-01   -0.29809E-01   688   0.354E-01 0.142E-04
CGA:   6    -0.489124611941E+03   -0.93648E-02   -0.93649E-02   688   0.113E-01-0.384E-05
CGA:   7    -0.489128302959E+03   -0.36910E-02   -0.36913E-02   688   0.581E-02-0.429E-05
CGA:   8    -0.489130170453E+03   -0.18675E-02   -0.18672E-02   688   0.265E-02 0.962E-05
CGA:   9    -0.489131025180E+03   -0.85473E-03   -0.85492E-03   688   0.935E-03-0.555E-05
CGA:  10    -0.489131324060E+03   -0.29888E-03   -0.29884E-03   688   0.292E-03 0.114E-05
CGA:  11    -0.489131427492E+03   -0.10343E-03   -0.10349E-03   688   0.111E-03-0.949E-06
CGA:  12    -0.489131470188E+03   -0.42696E-04   -0.42737E-04   688   0.500E-04-0.428E-06
  31 F= -.49306116E+03 E0= -.49305243E+03  d E =-.139616E+00  mag=     0.0586
       N       E                     dE             d eps       ncg     rms          ort
SDA:   1    -0.488339122970E+03    0.79230E+00    0.00000E+00   688   0.214E+01 0.000E+00
CGA:   2    -0.488991026686E+03   -0.65190E+00   -0.65189E+00   688   0.628E+00 0.145E-02
CGA:   3    -0.489145185816E+03   -0.15416E+00   -0.15410E+00   688   0.153E+00-0.231E-03
CGA:   4    -0.489175093328E+03   -0.29908E-01   -0.29919E-01   688   0.357E-01-0.217E-04
CGA:   5    -0.489182547366E+03   -0.74540E-02   -0.74531E-02   688   0.995E-02 0.208E-04
CGA:   6    -0.489185120514E+03   -0.25731E-02   -0.25729E-02   688   0.343E-02-0.711E-05
CGA:   7    -0.489186217414E+03   -0.10969E-02   -0.10968E-02   688   0.170E-02 0.542E-05
CGA:   8    -0.489186766412E+03   -0.54900E-03   -0.54892E-03   688   0.742E-03 0.314E-05
CGA:   9    -0.489187002149E+03   -0.23574E-03   -0.23578E-03   688   0.272E-03-0.142E-05
CGA:  10    -0.489187084368E+03   -0.82219E-04   -0.82202E-04   688   0.942E-04 0.164E-05
  32 F= -.49311895E+03 E0= -.49310917E+03  d E =-.577839E-01  mag=     0.0668
       N       E                     dE             d eps       ncg     rms          ort
SDA:   1    -0.487200128951E+03    0.19869E+01    0.00000E+00   688   0.509E+01 0.000E+00
CGA:   2    -0.488747734399E+03   -0.15476E+01   -0.15475E+01   688   0.152E+01 0.553E-02
CGA:   3    -0.489110923761E+03   -0.36319E+00   -0.36297E+00   688   0.411E+00-0.888E-03
CGA:   4    -0.489186196575E+03   -0.75273E-01   -0.75390E-01   688   0.954E-01-0.148E-03
CGA:   5    -0.489206346301E+03   -0.20150E-01   -0.20143E-01   688   0.241E-01 0.225E-04
CGA:   6    -0.489212819899E+03   -0.64736E-02   -0.64734E-02   688   0.851E-02-0.105E-04
CGA:   7    -0.489215463416E+03   -0.26435E-02   -0.26437E-02   688   0.435E-02-0.252E-06
CGA:   8    -0.489216838766E+03   -0.13754E-02   -0.13753E-02   688   0.189E-02 0.472E-05
CGA:   9    -0.489217445591E+03   -0.60682E-03   -0.60694E-03   688   0.711E-03-0.272E-05
CGA:  10    -0.489217660183E+03   -0.21459E-03   -0.21456E-03   688   0.253E-03 0.231E-05
CGA:  11    -0.489217742637E+03   -0.82454E-04   -0.82512E-04   688   0.107E-03-0.152E-05
  33 F= -.49315292E+03 E0= -.49314125E+03  d E =-.917603E-01  mag=     0.0832
       N       E                     dE             d eps       ncg     rms          ort
SDA:   1    -0.488255222298E+03    0.96244E+00    0.00000E+00   688   0.256E+01 0.000E+00
CGA:   2    -0.489012851500E+03   -0.75763E+00   -0.75760E+00   688   0.797E+00 0.414E-02
CGA:   3    -0.489202847594E+03   -0.19000E+00   -0.18987E+00   688   0.205E+00-0.535E-03
CGA:   4    -0.489241576563E+03   -0.38729E-01   -0.38752E-01   688   0.450E-01-0.470E-04
CGA:   5    -0.489250981552E+03   -0.94050E-02   -0.94038E-02   688   0.113E-01 0.107E-04
CGA:   6    -0.489253825799E+03   -0.28442E-02   -0.28440E-02   688   0.359E-02-0.986E-05
CGA:   7    -0.489254881626E+03   -0.10558E-02   -0.10558E-02   688   0.162E-02 0.485E-05
CGA:   8    -0.489255396502E+03   -0.51488E-03   -0.51478E-03   688   0.716E-03 0.293E-05
CGA:   9    -0.489255623984E+03   -0.22748E-03   -0.22749E-03   688   0.285E-03-0.354E-06
CGA:  10    -0.489255707616E+03   -0.83632E-04   -0.83617E-04   688   0.998E-04 0.156E-05
  34 F= -.49319380E+03 E0= -.49318167E+03  d E =-.408764E-01  mag=     0.0920
       N       E                     dE             d eps       ncg     rms          ort
SDA:   1    -0.489149232562E+03    0.10639E+00    0.00000E+00   688   0.275E+00 0.000E+00
CGA:   2    -0.489231139367E+03   -0.81907E-01   -0.81904E-01   688   0.851E-01 0.148E-03
CGA:   3    -0.489251850045E+03   -0.20711E-01   -0.20707E-01   688   0.198E-01-0.175E-04
CGA:   4    -0.489255882233E+03   -0.40322E-02   -0.40322E-02   688   0.409E-02-0.375E-05
CGA:   5    -0.489256781306E+03   -0.89907E-03   -0.89906E-03   688   0.107E-02-0.582E-07
CGA:   6    -0.489257059146E+03   -0.27784E-03   -0.27780E-03   688   0.363E-03-0.237E-05
CGA:   7    -0.489257168037E+03   -0.10889E-03   -0.10883E-03   688   0.177E-03 0.238E-05
CGA:   8    -0.489257222688E+03   -0.54651E-04   -0.54656E-04   688   0.817E-04-0.166E-06
  35 F= -.49319627E+03 E0= -.49318400E+03  d E =-.433440E-01  mag=     0.0955
       N       E                     dE             d eps       ncg     rms          ort
SDA:   1    -0.488686773606E+03    0.57039E+00    0.00000E+00   688   0.155E+01 0.000E+00
CGA:   2    -0.489148268200E+03   -0.46149E+00   -0.46145E+00   688   0.460E+00 0.136E-02
CGA:   3    -0.489261499017E+03   -0.11323E+00   -0.11321E+00   688   0.108E+00-0.241E-03
CGA:   4    -0.489283306418E+03   -0.21807E-01   -0.21811E-01   688   0.238E-01-0.423E-05
CGA:   5    -0.489288306387E+03   -0.50000E-02   -0.50001E-02   688   0.679E-02 0.168E-04
CGA:   6    -0.489289975380E+03   -0.16690E-02   -0.16688E-02   688   0.227E-02-0.873E-05
CGA:   7    -0.489290661322E+03   -0.68594E-03   -0.68574E-03   688   0.105E-02 0.631E-05
CGA:   8    -0.489290997775E+03   -0.33645E-03   -0.33640E-03   688   0.469E-03 0.118E-05
CGA:   9    -0.489291140403E+03   -0.14263E-03   -0.14265E-03   688   0.187E-03-0.719E-06
CGA:  10    -0.489291193056E+03   -0.52654E-04   -0.52648E-04   688   0.624E-04 0.101E-05
  36 F= -.49323254E+03 E0= -.49322043E+03  d E =-.362696E-01  mag=     0.0964
       N       E                     dE             d eps       ncg     rms          ort
SDA:   1    -0.486844071592E+03    0.24471E+01    0.00000E+00   688   0.635E+01 0.000E+00
CGA:   2    -0.488723034566E+03   -0.18790E+01   -0.18787E+01   688   0.194E+01 0.101E-01
CGA:   3    -0.489180518501E+03   -0.45748E+00   -0.45722E+00   688   0.533E+00-0.171E-02
CGA:   4    -0.489277667995E+03   -0.97149E-01   -0.97331E-01   688   0.119E+00-0.102E-03
CGA:   5    -0.489302583041E+03   -0.24915E-01   -0.24908E-01   688   0.290E-01 0.200E-04
CGA:   6    -0.489310141051E+03   -0.75580E-02   -0.75578E-02   688   0.948E-02-0.144E-04
CGA:   7    -0.489313005422E+03   -0.28644E-02   -0.28640E-02   688   0.438E-02 0.792E-05
CGA:   8    -0.489314417665E+03   -0.14122E-02   -0.14118E-02   688   0.195E-02 0.826E-05
CGA:   9    -0.489315018111E+03   -0.60045E-03   -0.60049E-03   688   0.784E-03-0.186E-05
CGA:  10    -0.489315244897E+03   -0.22679E-03   -0.22675E-03   688   0.258E-03 0.260E-05
CGA:  11    -0.489315331493E+03   -0.86595E-04   -0.86680E-04   688   0.961E-04-0.146E-05
  37 F= -.49326124E+03 E0= -.49324955E+03  d E =-.649720E-01  mag=     0.0949
       N       E                     dE             d eps       ncg     rms          ort
SDA:   1    -0.489035079385E+03    0.28017E+00    0.00000E+00   688   0.774E+00 0.000E+00
CGA:   2    -0.489268757699E+03   -0.23368E+00   -0.23368E+00   688   0.218E+00 0.852E-05
CGA:   3    -0.489324154298E+03   -0.55397E-01   -0.55396E-01   688   0.481E-01-0.143E-04
CGA:   4    -0.489334138501E+03   -0.99842E-02   -0.99841E-02   688   0.998E-02-0.506E-05
CGA:   5    -0.489336361029E+03   -0.22225E-02   -0.22229E-02   688   0.309E-02 0.973E-05
CGA:   6    -0.489337086688E+03   -0.72566E-03   -0.72539E-03   688   0.112E-02-0.691E-05
CGA:   7    -0.489337428655E+03   -0.34197E-03   -0.34191E-03   688   0.535E-03 0.174E-05
CGA:   8    -0.489337604749E+03   -0.17609E-03   -0.17613E-03   688   0.245E-03-0.591E-06
CGA:   9    -0.489337679289E+03   -0.74540E-04   -0.74579E-04   688   0.968E-04-0.150E-05
  38 F= -.49328444E+03 E0= -.49327251E+03  d E =-.232042E-01  mag=     0.0947
       N       E                     dE             d eps       ncg     rms          ort
SDA:   1    -0.487093880358E+03    0.22437E+01    0.00000E+00   688   0.581E+01 0.000E+00
CGA:   2    -0.488838700385E+03   -0.17448E+01   -0.17448E+01   688   0.168E+01 0.624E-03
CGA:   3    -0.489248825941E+03   -0.41013E+00   -0.41007E+00   688   0.440E+00-0.520E-03
CGA:   4    -0.489329722909E+03   -0.80897E-01   -0.81009E-01   688   0.993E-01-0.632E-04
CGA:   5    -0.489350416245E+03   -0.20693E-01   -0.20687E-01   688   0.258E-01 0.220E-04
CGA:   6    -0.489357132805E+03   -0.67166E-02   -0.67163E-02   688   0.843E-02-0.169E-04
CGA:   7    -0.489359822367E+03   -0.26896E-02   -0.26897E-02   688   0.417E-02-0.186E-05
CGA:   8    -0.489361161961E+03   -0.13396E-02   -0.13396E-02   688   0.190E-02 0.759E-06
CGA:   9    -0.489361751827E+03   -0.58987E-03   -0.59000E-03   688   0.735E-03-0.381E-05
CGA:  10    -0.489361964072E+03   -0.21224E-03   -0.21225E-03   688   0.254E-03-0.117E-06
CGA:  11    -0.489362044494E+03   -0.80422E-04   -0.80489E-04   688   0.984E-04-0.170E-05
  39 F= -.49331103E+03 E0= -.49329802E+03  d E =-.497869E-01  mag=     0.0983
       N       E                     dE             d eps       ncg     rms          ort
SDA:   1    -0.488784558300E+03    0.57741E+00    0.00000E+00   688   0.158E+01 0.000E+00
CGA:   2    -0.489248974910E+03   -0.46442E+00   -0.46441E+00   688   0.428E+00 0.156E-03
CGA:   3    -0.489358947411E+03   -0.10997E+00   -0.10997E+00   688   0.973E-01-0.143E-04
CGA:   4    -0.489378998297E+03   -0.20051E-01   -0.20050E-01   688   0.195E-01-0.160E-04
CGA:   5    -0.489383455276E+03   -0.44570E-02   -0.44571E-02   688   0.560E-02 0.895E-05
CGA:   6    -0.489384783513E+03   -0.13282E-02   -0.13280E-02   688   0.197E-02-0.743E-05
CGA:   7    -0.489385374545E+03   -0.59103E-03   -0.59092E-03   688   0.944E-03 0.445E-05
CGA:   8    -0.489385681468E+03   -0.30692E-03   -0.30699E-03   688   0.441E-03-0.131E-05
CGA:   9    -0.489385815072E+03   -0.13360E-03   -0.13362E-03   688   0.173E-03-0.451E-06
CGA:  10    -0.489385863262E+03   -0.48191E-04   -0.48191E-04   688   0.591E-04 0.577E-06
  40 F= -.49333545E+03 E0= -.49332153E+03  d E =-.244209E-01  mag=     0.1063
       N       E                     dE             d eps       ncg     rms          ort
SDA:   1    -0.488179193119E+03    0.12066E+01    0.00000E+00   688   0.321E+01 0.000E+00
CGA:   2    -0.489119950842E+03   -0.94076E+00   -0.94074E+00   688   0.870E+00 0.495E-03
CGA:   3    -0.489342168192E+03   -0.22222E+00   -0.22221E+00   688   0.203E+00-0.305E-04
CGA:   4    -0.489383081062E+03   -0.40913E-01   -0.40916E-01   688   0.426E-01-0.211E-04
CGA:   5    -0.489392377259E+03   -0.92962E-02   -0.92956E-02   688   0.122E-01 0.147E-04
CGA:   6    -0.489395305024E+03   -0.29278E-02   -0.29274E-02   688   0.399E-02-0.122E-04
CGA:   7    -0.489396556444E+03   -0.12514E-02   -0.12512E-02   688   0.192E-02 0.589E-05
CGA:   8    -0.489397176149E+03   -0.61971E-03   -0.61982E-03   688   0.925E-03-0.187E-05
CGA:   9    -0.489397449641E+03   -0.27349E-03   -0.27350E-03   688   0.359E-03-0.289E-06
CGA:  10    -0.489397552226E+03   -0.10259E-03   -0.10258E-03   688   0.119E-03 0.467E-06
CGA:  11    -0.489397590264E+03   -0.38038E-04   -0.38049E-04   688   0.475E-04-0.268E-06
  41 F= -.49334802E+03 E0= -.49333267E+03  d E =-.369931E-01  mag=     0.1201
       N       E                     dE             d eps       ncg     rms          ort
SDA:   1    -0.489233290168E+03    0.16426E+00    0.00000E+00   688   0.471E+00 0.000E+00
CGA:   2    -0.489369746813E+03   -0.13646E+00   -0.13646E+00   688   0.127E+00 0.636E-05
CGA:   3    -0.489402337263E+03   -0.32590E-01   -0.32590E-01   688   0.294E-01-0.144E-04
CGA:   4    -0.489408399599E+03   -0.60623E-02   -0.60623E-02   688   0.567E-02 0.464E-05
CGA:   5    -0.489409742734E+03   -0.13431E-02   -0.13432E-02   688   0.148E-02 0.544E-06
CGA:   6    -0.489410120673E+03   -0.37794E-03   -0.37798E-03   688   0.510E-03 0.183E-05
CGA:   7    -0.489410282152E+03   -0.16148E-03   -0.16147E-03   688   0.256E-03 0.293E-06
CGA:   8    -0.489410364271E+03   -0.82119E-04   -0.82094E-04   688   0.119E-03 0.570E-06
  42 F= -.49336116E+03 E0= -.49334534E+03  d E =-.131383E-01  mag=     0.1266
       N       E                     dE             d eps       ncg     rms          ort
SDA:   1    -0.488228320980E+03    0.11820E+01    0.00000E+00   688   0.318E+01 0.000E+00
CGA:   2    -0.489149342289E+03   -0.92102E+00   -0.92102E+00   688   0.862E+00 0.146E-03
CGA:   3    -0.489368646238E+03   -0.21930E+00   -0.21930E+00   688   0.205E+00 0.144E-04
CGA:   4    -0.489410132550E+03   -0.41486E-01   -0.41483E-01   688   0.406E-01-0.605E-05
CGA:   5    -0.489419331989E+03   -0.91994E-02   -0.91995E-02   688   0.116E-01 0.175E-04
CGA:   6    -0.489422074139E+03   -0.27421E-02   -0.27418E-02   688   0.395E-02-0.901E-05
CGA:   7    -0.489423248056E+03   -0.11739E-02   -0.11737E-02   688   0.188E-02 0.896E-05
CGA:   8    -0.489423850806E+03   -0.60275E-03   -0.60285E-03   688   0.877E-03-0.179E-05
CGA:   9    -0.489424117725E+03   -0.26692E-03   -0.26692E-03   688   0.349E-03 0.348E-06
CGA:  10    -0.489424214708E+03   -0.96982E-04   -0.96982E-04   688   0.125E-03 0.287E-06
  43 F= -.49337595E+03 E0= -.49335901E+03  d E =-.279319E-01  mag=     0.1397
       N       E                     dE             d eps       ncg     rms          ort
SDA:   1    -0.489300968214E+03    0.12315E+00    0.00000E+00   688   0.361E+00 0.000E+00
CGA:   2    -0.489405415604E+03   -0.10445E+00   -0.10445E+00   688   0.949E-01 0.194E-04
CGA:   3    -0.489430261690E+03   -0.24846E-01   -0.24846E-01   688   0.209E-01 0.316E-05
CGA:   4    -0.489434721014E+03   -0.44593E-02   -0.44590E-02   688   0.405E-02-0.401E-05
CGA:   5    -0.489435686036E+03   -0.96502E-03   -0.96505E-03   688   0.117E-02 0.109E-05
CGA:   6    -0.489435972213E+03   -0.28618E-03   -0.28616E-03   688   0.452E-03-0.754E-06
CGA:   7    -0.489436110716E+03   -0.13850E-03   -0.13845E-03   688   0.226E-03 0.142E-05
CGA:   8    -0.489436185874E+03   -0.75158E-04   -0.75162E-04   688   0.105E-03-0.651E-07
  44 F= -.49338833E+03 E0= -.49337119E+03  d E =-.123814E-01  mag=     0.1455
       N       E                     dE             d eps       ncg     rms          ort
SDA:   1    -0.488240614384E+03    0.11955E+01    0.00000E+00   688   0.325E+01 0.000E+00
CGA:   2    -0.489180056318E+03   -0.93944E+00   -0.93943E+00   688   0.859E+00 0.722E-03
CGA:   3    -0.489402228128E+03   -0.22217E+00   -0.22218E+00   688   0.203E+00 0.237E-03
CGA:   4    -0.489443139178E+03   -0.40911E-01   -0.40913E-01   688   0.425E-01-0.207E-04
CGA:   5    -0.489452453439E+03   -0.93143E-02   -0.93136E-02   688   0.127E-01 0.151E-04
CGA:   6    -0.489455463901E+03   -0.30105E-02   -0.30101E-02   688   0.423E-02-0.109E-04
CGA:   7    -0.489456808870E+03   -0.13450E-02   -0.13446E-02   688   0.207E-02 0.815E-05
CGA:   8    -0.489457467551E+03   -0.65868E-03   -0.65873E-03   688   0.105E-02-0.712E-06
CGA:   9    -0.489457757793E+03   -0.29024E-03   -0.29024E-03   688   0.410E-03-0.131E-07
CGA:  10    -0.489457873767E+03   -0.11597E-03   -0.11597E-03   688   0.130E-03 0.643E-06
CGA:  11    -0.489457915590E+03   -0.41823E-04   -0.41826E-04   688   0.518E-04-0.619E-07
  45 F= -.49341125E+03 E0= -.49339399E+03  d E =-.353040E-01  mag=     0.1495
       N       E                     dE             d eps       ncg     rms          ort
SDA:   1    -0.484563029498E+03    0.48948E+01    0.00000E+00   688   0.130E+02 0.000E+00
CGA:   2    -0.488313147909E+03   -0.37501E+01   -0.37500E+01   688   0.353E+01 0.675E-02
CGA:   3    -0.489191193925E+03   -0.87805E+00   -0.87805E+00   688   0.966E+00 0.462E-03
CGA:   4    -0.489367289903E+03   -0.17610E+00   -0.17641E+00   688   0.213E+00-0.988E-04
CGA:   5    -0.489412364585E+03   -0.45075E-01   -0.45062E-01   688   0.544E-01 0.713E-05
CGA:   6    -0.489426292440E+03   -0.13928E-01   -0.13928E-01   688   0.171E-01-0.157E-04
CGA:   7    -0.489431644659E+03   -0.53522E-02   -0.53522E-02   688   0.905E-02 0.251E-05
CGA:   8    -0.489434297612E+03   -0.26530E-02   -0.26530E-02   688   0.439E-02 0.184E-05
CGA:   9    -0.489435609766E+03   -0.13122E-02   -0.13122E-02   688   0.164E-02-0.467E-06
CGA:  10    -0.489436103058E+03   -0.49329E-03   -0.49326E-03   688   0.551E-03 0.132E-05
CGA:  11    -0.489436277425E+03   -0.17437E-03   -0.17438E-03   688   0.215E-03-0.388E-06
CGA:  12    -0.489436350635E+03   -0.73210E-04   -0.73173E-04   688   0.104E-03 0.567E-06
  46 F= -.49339190E+03 E0= -.49337451E+03  d E =-.159527E-01  mag=     0.1495
       N       E                     dE             d eps       ncg     rms          ort
SDA:   1    -0.486926273968E+03    0.25100E+01    0.00000E+00   688   0.678E+01 0.000E+00
CGA:   2    -0.488876836808E+03   -0.19506E+01   -0.19506E+01   688   0.183E+01-0.180E-02
CGA:   3    -0.489335241044E+03   -0.45840E+00   -0.45838E+00   688   0.493E+00-0.106E-03
CGA:   4    -0.489425068062E+03   -0.89827E-01   -0.89944E-01   688   0.111E+00-0.787E-04
CGA:   5    -0.489448365734E+03   -0.23298E-01   -0.23295E-01   688   0.277E-01 0.405E-04
CGA:   6    -0.489455586376E+03   -0.72206E-02   -0.72206E-02   688   0.855E-02-0.965E-05
CGA:   7    -0.489458400583E+03   -0.28142E-02   -0.28140E-02   688   0.420E-02 0.352E-05
CGA:   8    -0.489459759853E+03   -0.13593E-02   -0.13590E-02   688   0.197E-02 0.461E-05
CGA:   9    -0.489460344048E+03   -0.58419E-03   -0.58418E-03   688   0.785E-03 0.513E-06
CGA:  10    -0.489460550012E+03   -0.20596E-03   -0.20598E-03   688   0.279E-03 0.854E-06
CGA:  11    -0.489460630415E+03   -0.80403E-04   -0.80413E-04   688   0.100E-03-0.102E-05
  47 F= -.49341461E+03 E0= -.49339703E+03  d E =-.386592E-01  mag=     0.1544
       N       E                     dE             d eps       ncg     rms          ort
SDA:   1    -0.489069744344E+03    0.39081E+00    0.00000E+00   688   0.110E+01 0.000E+00
CGA:   2    -0.489383765881E+03   -0.31402E+00   -0.31402E+00   688   0.287E+00 0.585E-04
CGA:   3    -0.489457560416E+03   -0.73795E-01   -0.73796E-01   688   0.709E-01 0.353E-04
CGA:   4    -0.489471527777E+03   -0.13967E-01   -0.13967E-01   688   0.150E-01-0.181E-04
CGA:   5    -0.489474758943E+03   -0.32312E-02   -0.32315E-02   688   0.431E-02 0.116E-04
CGA:   6    -0.489475792095E+03   -0.10332E-02   -0.10330E-02   688   0.137E-02-0.652E-05
CGA:   7    -0.489476217370E+03   -0.42528E-03   -0.42516E-03   688   0.671E-03 0.313E-05
CGA:   8    -0.489476418475E+03   -0.20110E-03   -0.20110E-03   688   0.341E-03-0.431E-07
CGA:   9    -0.489476514628E+03   -0.96153E-04   -0.96156E-04   688   0.127E-03-0.512E-06
  48 F= -.49343139E+03 E0= -.49341407E+03  d E =-.167791E-01  mag=     0.1545
       N       E                     dE             d eps       ncg     rms          ort
SDA:   1    -0.485836591701E+03    0.36398E+01    0.00000E+00   688   0.992E+01 0.000E+00
CGA:   2    -0.488653964550E+03   -0.28174E+01   -0.28173E+01   688   0.267E+01 0.310E-02
CGA:   3    -0.489307676321E+03   -0.65371E+00   -0.65367E+00   688   0.778E+00-0.264E-03
CGA:   4    -0.489446960733E+03   -0.13928E+00   -0.13952E+00   688   0.163E+00-0.104E-03
CGA:   5    -0.489482173134E+03   -0.35212E-01   -0.35203E-01   688   0.405E-01-0.463E-05
CGA:   6    -0.489492566165E+03   -0.10393E-01   -0.10393E-01   688   0.129E-01 0.415E-05
CGA:   7    -0.489496432462E+03   -0.38663E-02   -0.38662E-02   688   0.684E-02 0.350E-05
CGA:   8    -0.489498419452E+03   -0.19870E-02   -0.19868E-02   688   0.317E-02 0.794E-05
CGA:   9    -0.489499433490E+03   -0.10140E-02   -0.10140E-02   688   0.118E-02 0.268E-06
CGA:  10    -0.489499804194E+03   -0.37070E-03   -0.37068E-03   688   0.392E-03 0.512E-06
CGA:  11    -0.489499930343E+03   -0.12615E-03   -0.12616E-03   688   0.155E-03-0.259E-06
CGA:  12    -0.489499981048E+03   -0.50705E-04   -0.50709E-04   688   0.793E-04-0.123E-06
  49 F= -.49345749E+03 E0= -.49344113E+03  d E =-.428809E-01  mag=     0.1452
       N       E                     dE             d eps       ncg     rms          ort
SDA:   1    -0.488586715864E+03    0.91321E+00    0.00000E+00   688   0.254E+01 0.000E+00
CGA:   2    -0.489296884121E+03   -0.71017E+00   -0.71017E+00   688   0.691E+00-0.335E-03
CGA:   3    -0.489468604987E+03   -0.17172E+00   -0.17175E+00   688   0.196E+00 0.319E-03
CGA:   4    -0.489504567914E+03   -0.35963E-01   -0.35971E-01   688   0.409E-01-0.235E-04
CGA:   5    -0.489513273136E+03   -0.87052E-02   -0.87049E-02   688   0.105E-01 0.221E-04
CGA:   6    -0.489515873094E+03   -0.26000E-02   -0.25999E-02   688   0.316E-02-0.495E-05
CGA:   7    -0.489516849931E+03   -0.97684E-03   -0.97672E-03   688   0.152E-02 0.301E-05
CGA:   8    -0.489517322042E+03   -0.47211E-03   -0.47199E-03   688   0.740E-03 0.303E-05
CGA:   9    -0.489517546697E+03   -0.22465E-03   -0.22468E-03   688   0.297E-03-0.101E-05
CGA:  10    -0.489517634360E+03   -0.87663E-04   -0.87660E-04   688   0.102E-03 0.126E-06
  50 F= -.49347578E+03 E0= -.49345951E+03  d E =-.182937E-01  mag=     0.1416
       N       E                     dE             d eps       ncg     rms          ort
SDA:   1    -0.489497982942E+03    0.19564E-01    0.00000E+00   688   0.543E-01 0.000E+00
CGA:   2    -0.489513207902E+03   -0.15225E-01   -0.15225E-01   688   0.145E-01-0.276E-05
CGA:   3    -0.489516918454E+03   -0.37106E-02   -0.37107E-02   688   0.369E-02 0.623E-05
CGA:   4    -0.489517636505E+03   -0.71805E-03   -0.71781E-03   688   0.799E-03-0.296E-05
CGA:   5    -0.489517802453E+03   -0.16595E-03   -0.16616E-03   688   0.214E-03 0.328E-05
CGA:   6    -0.489517856684E+03   -0.54231E-04   -0.54211E-04   688   0.717E-04-0.112E-05
  51 F= -.49347610E+03 E0= -.49345994E+03  d E =-.186111E-01  mag=     0.1392
       N       E                     dE             d eps       ncg     rms          ort
SDA:   1    -0.489178659454E+03    0.33914E+00    0.00000E+00   688   0.965E+00 0.000E+00
CGA:   2    -0.489447820528E+03   -0.26916E+00   -0.26916E+00   688   0.257E+00-0.836E-04
CGA:   3    -0.489512818223E+03   -0.64998E-01   -0.65009E-01   688   0.698E-01 0.259E-03
CGA:   4    -0.489525884644E+03   -0.13066E-01   -0.13064E-01   688   0.154E-01-0.272E-04
CGA:   5    -0.489529081287E+03   -0.31966E-02   -0.31968E-02   688   0.415E-02 0.111E-04
CGA:   6    -0.489530128014E+03   -0.10467E-02   -0.10467E-02   688   0.127E-02-0.500E-05
CGA:   7    -0.489530546384E+03   -0.41837E-03   -0.41834E-03   688   0.634E-03 0.493E-06
CGA:   8    -0.489530747747E+03   -0.20136E-03   -0.20121E-03   688   0.311E-03 0.293E-05
CGA:   9    -0.489530841048E+03   -0.93300E-04   -0.93354E-04   688   0.121E-03-0.188E-05
  52 F= -.49348924E+03 E0= -.49347301E+03  d E =-.131392E-01  mag=     0.1380
       N       E                     dE             d eps       ncg     rms          ort
SDA:   1    -0.487806030460E+03    0.17247E+01    0.00000E+00   688   0.476E+01 0.000E+00
CGA:   2    -0.489128922202E+03   -0.13229E+01   -0.13229E+01   688   0.130E+01-0.490E-03
CGA:   3    -0.489444752091E+03   -0.31583E+00   -0.31601E+00   688   0.399E+00 0.227E-02
CGA:   4    -0.489515354969E+03   -0.70603E-01   -0.70654E-01   688   0.820E-01-0.657E-04
CGA:   5    -0.489532929162E+03   -0.17574E-01   -0.17570E-01   688   0.201E-01 0.375E-05
CGA:   6    -0.489538149068E+03   -0.52199E-02   -0.52199E-02   688   0.620E-02-0.327E-05
CGA:   7    -0.489540076454E+03   -0.19274E-02   -0.19274E-02   688   0.316E-02-0.120E-05
CGA:   8    -0.489541048430E+03   -0.97198E-03   -0.97160E-03   688   0.147E-02 0.891E-05
CGA:   9    -0.489541521446E+03   -0.47302E-03   -0.47315E-03   688   0.555E-03-0.271E-05
CGA:  10    -0.489541693168E+03   -0.17172E-03   -0.17168E-03   688   0.186E-03 0.105E-05
CGA:  11    -0.489541752033E+03   -0.58865E-04   -0.58827E-04   688   0.770E-04 0.822E-06
  53 F= -.49350054E+03 E0= -.49348404E+03  d E =-.244411E-01  mag=     0.1385
       N       E                     dE             d eps       ncg     rms          ort
SDA:   1    -0.489349830850E+03    0.19186E+00    0.00000E+00   688   0.555E+00 0.000E+00
CGA:   2    -0.489506241774E+03   -0.15641E+00   -0.15641E+00   688   0.144E+00 0.307E-04
CGA:   3    -0.489543908729E+03   -0.37667E-01   -0.37668E-01   688   0.353E-01 0.393E-04
CGA:   4    -0.489550847826E+03   -0.69391E-02   -0.69376E-02   688   0.758E-02-0.185E-04
CGA:   5    -0.489552446690E+03   -0.15989E-02   -0.15992E-02   688   0.213E-02 0.754E-05
CGA:   6    -0.489552955522E+03   -0.50883E-03   -0.50869E-03   688   0.668E-03-0.488E-05
CGA:   7    -0.489553171121E+03   -0.21560E-03   -0.21550E-03   688   0.315E-03 0.183E-05
CGA:   8    -0.489553278169E+03   -0.10705E-03   -0.10700E-03   688   0.149E-03 0.766E-06
CGA:   9    -0.489553325375E+03   -0.47206E-04   -0.47250E-04   688   0.559E-04-0.105E-05
  54 F= -.49351219E+03 E0= -.49349567E+03  d E =-.116459E-01  mag=     0.1350
       N       E                     dE             d eps       ncg     rms          ort
SDA:   1    -0.488612947899E+03    0.94033E+00    0.00000E+00   688   0.259E+01 0.000E+00
CGA:   2    -0.489341923598E+03   -0.72898E+00   -0.72897E+00   688   0.683E+00 0.493E-03
CGA:   3    -0.489515939867E+03   -0.17402E+00   -0.17403E+00   688   0.187E+00 0.290E-03
CGA:   4    -0.489550209480E+03   -0.34270E-01   -0.34276E-01   688   0.409E-01-0.460E-04
CGA:   5    -0.489558745449E+03   -0.85360E-02   -0.85351E-02   688   0.104E-01 0.131E-04
CGA:   6    -0.489561399267E+03   -0.26538E-02   -0.26538E-02   688   0.309E-02-0.619E-05
CGA:   7    -0.489562432545E+03   -0.10333E-02   -0.10332E-02   688   0.150E-02 0.125E-05
CGA:   8    -0.489562927695E+03   -0.49515E-03   -0.49491E-03   688   0.708E-03 0.412E-05
CGA:   9    -0.489563149303E+03   -0.22161E-03   -0.22172E-03   688   0.260E-03-0.298E-05
CGA:  10    -0.489563225752E+03   -0.76449E-04   -0.76411E-04   688   0.861E-04 0.198E-05
  55 F= -.49352224E+03 E0= -.49350531E+03  d E =-.217005E-01  mag=     0.1338
       N       E                     dE             d eps       ncg     rms          ort
SDA:   1    -0.489450177201E+03    0.11297E+00    0.00000E+00   688   0.333E+00 0.000E+00
CGA:   2    -0.489543488483E+03   -0.93311E-01   -0.93311E-01   688   0.863E-01 0.146E-04
CGA:   3    -0.489566100930E+03   -0.22612E-01   -0.22612E-01   688   0.208E-01 0.161E-05
CGA:   4    -0.489570270043E+03   -0.41691E-02   -0.41687E-02   688   0.429E-02-0.460E-05
CGA:   5    -0.489571198840E+03   -0.92880E-03   -0.92914E-03   688   0.118E-02 0.663E-05
CGA:   6    -0.489571481569E+03   -0.28273E-03   -0.28262E-03   688   0.383E-03-0.335E-05
CGA:   7    -0.489571602044E+03   -0.12047E-03   -0.12035E-03   688   0.179E-03 0.276E-05
CGA:   8    -0.489571664302E+03   -0.62258E-04   -0.62315E-04   688   0.840E-04-0.759E-06
  56 F= -.49353076E+03 E0= -.49351369E+03  d E =-.852010E-02  mag=     0.1337
       N       E                     dE             d eps       ncg     rms          ort
SDA:   1    -0.489111266202E+03    0.46034E+00    0.00000E+00   688   0.128E+01 0.000E+00
CGA:   2    -0.489469664924E+03   -0.35840E+00   -0.35840E+00   688   0.333E+00 0.134E-03
CGA:   3    -0.489556002674E+03   -0.86338E-01   -0.86338E-01   688   0.849E-01 0.162E-04
CGA:   4    -0.489572339032E+03   -0.16336E-01   -0.16337E-01   688   0.181E-01-0.130E-04
CGA:   5    -0.489576141730E+03   -0.38027E-02   -0.38032E-02   688   0.496E-02 0.154E-04
CGA:   6    -0.489577329755E+03   -0.11880E-02   -0.11879E-02   688   0.151E-02-0.602E-05
CGA:   7    -0.489577813559E+03   -0.48380E-03   -0.48360E-03   688   0.701E-03 0.405E-05
CGA:   8    -0.489578053530E+03   -0.23997E-03   -0.23994E-03   688   0.323E-03 0.424E-06
CGA:   9    -0.489578159909E+03   -0.10638E-03   -0.10642E-03   688   0.114E-03-0.829E-06
CGA:  10    -0.489578195837E+03   -0.35928E-04   -0.35909E-04   688   0.359E-04 0.509E-06
  57 F= -.49353745E+03 E0= -.49352010E+03  d E =-.152111E-01  mag=     0.1336
       N       E                     dE             d eps       ncg     rms          ort
SDA:   1    -0.489538260362E+03    0.39900E-01    0.00000E+00   688   0.125E+00 0.000E+00
CGA:   2    -0.489573009565E+03   -0.34749E-01   -0.34749E-01   688   0.315E-01-0.218E-06
CGA:   3    -0.489581396447E+03   -0.83869E-02   -0.83869E-02   688   0.727E-02 0.118E-05
CGA:   4    -0.489582892345E+03   -0.14959E-02   -0.14956E-02   688   0.148E-02-0.461E-05
CGA:   5    -0.489583215567E+03   -0.32322E-03   -0.32337E-03   688   0.427E-03 0.272E-05
CGA:   6    -0.489583315176E+03   -0.99608E-04   -0.99516E-04   688   0.143E-03-0.223E-05
  58 F= -.49354262E+03 E0= -.49352528E+03  d E =-.516437E-02  mag=     0.1341
       N       E                     dE             d eps       ncg     rms          ort
SDA:   1    -0.489187714140E+03    0.39550E+00    0.00000E+00   688   0.112E+01 0.000E+00
CGA:   2    -0.489500245727E+03   -0.31253E+00   -0.31253E+00   688   0.284E+00 0.283E-03
CGA:   3    -0.489575366759E+03   -0.75121E-01   -0.75120E-01   688   0.690E-01-0.183E-04
CGA:   4    -0.489588980643E+03   -0.13614E-01   -0.13615E-01   688   0.157E-01-0.160E-04
CGA:   5    -0.489592175155E+03   -0.31945E-02   -0.31947E-02   688   0.447E-02 0.116E-04
CGA:   6    -0.489593255704E+03   -0.10805E-02   -0.10804E-02   688   0.137E-02-0.606E-05
CGA:   7    -0.489593713912E+03   -0.45821E-03   -0.45807E-03   688   0.679E-03 0.205E-05
CGA:   8    -0.489593937928E+03   -0.22402E-03   -0.22396E-03   688   0.333E-03 0.967E-06
CGA:   9    -0.489594036547E+03   -0.98619E-04   -0.98665E-04   688   0.128E-03-0.196E-05
  59 F= -.49355347E+03 E0= -.49353634E+03  d E =-.160156E-01  mag=     0.1333
       N       E                     dE             d eps       ncg     rms          ort
SDA:   1    -0.487968555737E+03    0.16254E+01    0.00000E+00   688   0.449E+01 0.000E+00
CGA:   2    -0.489218253154E+03   -0.12497E+01   -0.12497E+01   688   0.115E+01 0.239E-02
CGA:   3    -0.489515807411E+03   -0.29755E+00   -0.29755E+00   688   0.305E+00-0.609E-04
CGA:   4    -0.489572138586E+03   -0.56331E-01   -0.56376E-01   688   0.682E-01-0.244E-04
CGA:   5    -0.489586128916E+03   -0.13990E-01   -0.13987E-01   688   0.172E-01 0.181E-04
CGA:   6    -0.489590493212E+03   -0.43643E-02   -0.43642E-02   688   0.504E-02-0.909E-05
CGA:   7    -0.489592186872E+03   -0.16937E-02   -0.16934E-02   688   0.246E-02 0.333E-05
CGA:   8    -0.489593006615E+03   -0.81974E-03   -0.81957E-03   688   0.120E-02 0.268E-05
CGA:   9    -0.489593370183E+03   -0.36357E-03   -0.36365E-03   688   0.467E-03-0.270E-05
CGA:  10    -0.489593496195E+03   -0.12601E-03   -0.12602E-03   688   0.169E-03 0.108E-05
CGA:  11    -0.489593543240E+03   -0.47045E-04   -0.47046E-04   688   0.614E-04-0.318E-06
  60 F= -.49355321E+03 E0= -.49353665E+03  d E =-.157563E-01  mag=     0.1286
       N       E                     dE             d eps       ncg     rms          ort
SDA:   1    -0.489181309352E+03    0.41219E+00    0.00000E+00   688   0.115E+01 0.000E+00
CGA:   2    -0.489501664490E+03   -0.32036E+00   -0.32036E+00   688   0.291E+00-0.297E-03
CGA:   3    -0.489579117327E+03   -0.77453E-01   -0.77455E-01   688   0.659E-01 0.935E-04
CGA:   4    -0.489593010385E+03   -0.13893E-01   -0.13893E-01   688   0.125E-01-0.213E-05
CGA:   5    -0.489595953673E+03   -0.29433E-02   -0.29436E-02   688   0.351E-02 0.105E-04
CGA:   6    -0.489596788297E+03   -0.83462E-03   -0.83448E-03   688   0.125E-02-0.505E-05
CGA:   7    -0.489597172081E+03   -0.38378E-03   -0.38368E-03   688   0.576E-03 0.276E-05
CGA:   8    -0.489597368355E+03   -0.19627E-03   -0.19628E-03   688   0.261E-03-0.542E-07
CGA:   9    -0.489597450476E+03   -0.82121E-04   -0.82084E-04   688   0.958E-04 0.927E-06
  61 F= -.49355700E+03 E0= -.49354022E+03  d E =-.195496E-01  mag=     0.1297
       N       E                     dE             d eps       ncg     rms          ort
SDA:   1    -0.489473756181E+03    0.12361E+00    0.00000E+00   688   0.363E+00 0.000E+00
CGA:   2    -0.489574104427E+03   -0.10035E+00   -0.10035E+00   688   0.924E-01 0.240E-04
CGA:   3    -0.489598235634E+03   -0.24131E-01   -0.24131E-01   688   0.231E-01 0.872E-05
CGA:   4    -0.489602752447E+03   -0.45168E-02   -0.45161E-02   688   0.474E-02-0.130E-04
CGA:   5    -0.489603772265E+03   -0.10198E-02   -0.10200E-02   688   0.127E-02 0.426E-05
CGA:   6    -0.489604069454E+03   -0.29719E-03   -0.29706E-03   688   0.378E-03-0.391E-05
CGA:   7    -0.489604185905E+03   -0.11645E-03   -0.11638E-03   688   0.168E-03 0.178E-05
CGA:   8    -0.489604242344E+03   -0.56439E-04   -0.56471E-04   688   0.823E-04-0.505E-06
  62 F= -.49356382E+03 E0= -.49354709E+03  d E =-.681278E-02  mag=     0.1291
       N       E                     dE             d eps       ncg     rms          ort
SDA:   1    -0.489124499130E+03    0.47969E+00    0.00000E+00   688   0.135E+01 0.000E+00
CGA:   2    -0.489497239736E+03   -0.37274E+00   -0.37274E+00   688   0.344E+00 0.332E-03
CGA:   3    -0.489586527063E+03   -0.89287E-01   -0.89288E-01   688   0.887E-01 0.182E-04
CGA:   4    -0.489603573183E+03   -0.17046E-01   -0.17047E-01   688   0.182E-01-0.239E-04
CGA:   5    -0.489607462085E+03   -0.38889E-02   -0.38890E-02   688   0.490E-02 0.862E-05
CGA:   6    -0.489608627489E+03   -0.11654E-02   -0.11652E-02   688   0.149E-02-0.737E-05
CGA:   7    -0.489609092389E+03   -0.46490E-03   -0.46475E-03   688   0.695E-03 0.314E-05
CGA:   8    -0.489609323637E+03   -0.23125E-03   -0.23127E-03   688   0.347E-03-0.417E-06
CGA:   9    -0.489609427156E+03   -0.10352E-03   -0.10354E-03   688   0.144E-03-0.805E-06
CGA:  10    -0.489609465370E+03   -0.38215E-04   -0.38219E-04   688   0.485E-04 0.672E-06
  63 F= -.49356908E+03 E0= -.49355250E+03  d E =-.120759E-01  mag=     0.1272
       N       E                     dE             d eps       ncg     rms          ort
SDA:   1    -0.489520646578E+03    0.88781E-01    0.00000E+00   688   0.264E+00 0.000E+00
CGA:   2    -0.489593782692E+03   -0.73136E-01   -0.73136E-01   688   0.660E-01 0.981E-05
CGA:   3    -0.489611224417E+03   -0.17442E-01   -0.17442E-01   688   0.158E-01-0.184E-05
CGA:   4    -0.489614426045E+03   -0.32016E-02   -0.32014E-02   688   0.317E-02-0.476E-05
CGA:   5    -0.489615122167E+03   -0.69612E-03   -0.69634E-03   688   0.879E-03 0.494E-05
CGA:   6    -0.489615330647E+03   -0.20848E-03   -0.20839E-03   688   0.290E-03-0.312E-05
CGA:   7    -0.489615422098E+03   -0.91451E-04   -0.91329E-04   688   0.137E-03 0.237E-05
  64 F= -.49357512E+03 E0= -.49355859E+03  d E =-.604229E-02  mag=     0.1259
       N       E                     dE             d eps       ncg     rms          ort
SDA:   1    -0.488771456565E+03    0.84387E+00    0.00000E+00   688   0.237E+01 0.000E+00
CGA:   2    -0.489429457264E+03   -0.65800E+00   -0.65799E+00   688   0.597E+00 0.587E-03
CGA:   3    -0.489585571466E+03   -0.15611E+00   -0.15611E+00   688   0.151E+00-0.788E-04
CGA:   4    -0.489614801948E+03   -0.29230E-01   -0.29235E-01   688   0.322E-01-0.116E-04
CGA:   5    -0.489621658539E+03   -0.68566E-02   -0.68565E-02   688   0.874E-02 0.171E-04
CGA:   6    -0.489623766658E+03   -0.21081E-02   -0.21080E-02   688   0.273E-02-0.832E-05
CGA:   7    -0.489624636648E+03   -0.86999E-03   -0.86970E-03   688   0.135E-02 0.546E-05
CGA:   8    -0.489625068919E+03   -0.43227E-03   -0.43225E-03   688   0.695E-03 0.318E-06
CGA:   9    -0.489625268693E+03   -0.19977E-03   -0.19980E-03   688   0.277E-03-0.126E-05
CGA:  10    -0.489625344552E+03   -0.75859E-04   -0.75855E-04   688   0.907E-04 0.103E-05
  65 F= -.49358529E+03 E0= -.49356884E+03  d E =-.162113E-01  mag=     0.1226
       N       E                     dE             d eps       ncg     rms          ort
SDA:   1    -0.489522754999E+03    0.10251E+00    0.00000E+00   688   0.287E+00 0.000E+00
CGA:   2    -0.489602325490E+03   -0.79570E-01   -0.79570E-01   688   0.719E-01 0.125E-04
CGA:   3    -0.489621290200E+03   -0.18965E-01   -0.18965E-01   688   0.173E-01-0.283E-05
CGA:   4    -0.489624776684E+03   -0.34865E-02   -0.34862E-02   688   0.354E-02-0.480E-05
CGA:   5    -0.489625542493E+03   -0.76581E-03   -0.76602E-03   688   0.971E-03 0.468E-05
CGA:   6    -0.489625775206E+03   -0.23271E-03   -0.23264E-03   688   0.316E-03-0.273E-05
CGA:   7    -0.489625875602E+03   -0.10040E-03   -0.10029E-03   688   0.156E-03 0.200E-05
CGA:   8    -0.489625927603E+03   -0.52001E-04   -0.52032E-04   688   0.810E-04-0.479E-06
  66 F= -.49358596E+03 E0= -.49356955E+03  d E =-.168764E-01  mag=     0.1209
       N       E                     dE             d eps       ncg     rms          ort
SDA:   1    -0.489546556534E+03    0.79319E-01    0.00000E+00   688   0.234E+00 0.000E+00
CGA:   2    -0.489611584343E+03   -0.65028E-01   -0.65028E-01   688   0.575E-01 0.427E-05
CGA:   3    -0.489626947474E+03   -0.15363E-01   -0.15363E-01   688   0.133E-01-0.342E-05
CGA:   4    -0.489629717921E+03   -0.27704E-02   -0.27704E-02   688   0.247E-02-0.799E-06
CGA:   5    -0.489630317860E+03   -0.59994E-03   -0.59998E-03   688   0.667E-03 0.153E-05
CGA:   6    -0.489630480186E+03   -0.16233E-03   -0.16229E-03   688   0.268E-03-0.140E-05
CGA:   7    -0.489630557004E+03   -0.76818E-04   -0.76786E-04   688   0.129E-03 0.153E-05
  67 F= -.49359091E+03 E0= -.49357457E+03  d E =-.495458E-02  mag=     0.1195
       N       E                     dE             d eps       ncg     rms          ort
SDA:   1    -0.488883097443E+03    0.74738E+00    0.00000E+00   688   0.211E+01 0.000E+00
CGA:   2    -0.489467955317E+03   -0.58486E+00   -0.58485E+00   688   0.519E+00 0.222E-03
CGA:   3    -0.489605990822E+03   -0.13804E+00   -0.13804E+00   688   0.123E+00-0.316E-04
CGA:   4    -0.489630988109E+03   -0.24997E-01   -0.24998E-01   688   0.254E-01-0.598E-05
CGA:   5    -0.489636588259E+03   -0.56002E-02   -0.56004E-02   688   0.721E-02 0.131E-04
CGA:   6    -0.489638283196E+03   -0.16949E-02   -0.16947E-02   688   0.239E-02-0.790E-05
CGA:   7    -0.489639047750E+03   -0.76455E-03   -0.76422E-03   688   0.113E-02 0.591E-05
CGA:   8    -0.489639436919E+03   -0.38917E-03   -0.38915E-03   688   0.541E-03 0.174E-06
CGA:   9    -0.489639601338E+03   -0.16442E-03   -0.16443E-03   688   0.203E-03-0.332E-06
CGA:  10    -0.489639656824E+03   -0.55486E-04   -0.55485E-04   688   0.695E-04 0.784E-06
  68 F= -.49360098E+03 E0= -.49358488E+03  d E =-.150209E-01  mag=     0.1151
       N       E                     dE             d eps       ncg     rms          ort
SDA:   1    -0.486609746337E+03    0.30299E+01    0.00000E+00   688   0.843E+01 0.000E+00
CGA:   2    -0.488947778945E+03   -0.23380E+01   -0.23380E+01   688   0.209E+01 0.166E-02
CGA:   3    -0.489496623285E+03   -0.54884E+00   -0.54885E+00   688   0.527E+00 0.221E-03
CGA:   4    -0.489598832342E+03   -0.10221E+00   -0.10225E+00   688   0.115E+00 0.531E-04
[...]
CGA:  12    -0.489786943131E+03   -0.11798E-03   -0.11798E-03   688   0.204E-03-0.933E-06
CGA:  13    -0.489787008153E+03   -0.65021E-04   -0.65045E-04   688   0.995E-04-0.476E-06
  95 F= -.49376794E+03 E0= -.49374591E+03  d E =-.115347E-01  mag=     0.2730
       N       E                     dE             d eps       ncg     rms          ort
SDA:   1    -0.486116758690E+03    0.36702E+01    0.00000E+00   688   0.101E+02 0.000E+00
CGA:   2    -0.488968269368E+03   -0.28515E+01   -0.28515E+01   688   0.255E+01 0.118E-02
CGA:   3    -0.489635525856E+03   -0.66726E+00   -0.66728E+00   688   0.582E+00 0.994E-03
CGA:   4    -0.489756702576E+03   -0.12118E+00   -0.12117E+00   688   0.117E+00 0.389E-04
CGA:   5    -0.489783418986E+03   -0.26716E-01   -0.26725E-01   688   0.328E-01 0.591E-04
CGA:   6    -0.489790933781E+03   -0.75148E-02   -0.75143E-02   688   0.116E-01 0.355E-05
CGA:   7    -0.489794319324E+03   -0.33855E-02   -0.33853E-02   688   0.569E-02 0.676E-05
CGA:   8    -0.489796076039E+03   -0.17567E-02   -0.17567E-02   688   0.279E-02 0.122E-05
CGA:   9    -0.489796895875E+03   -0.81984E-03   -0.81972E-03   688   0.114E-02 0.457E-05
CGA:  10    -0.489797201127E+03   -0.30525E-03   -0.30525E-03   688   0.411E-03-0.654E-06
CGA:  11    -0.489797311596E+03   -0.11047E-03   -0.11047E-03   688   0.163E-03-0.589E-06
CGA:  12    -0.489797361088E+03   -0.49492E-04   -0.49489E-04   688   0.752E-04 0.101E-06
  96 F= -.49377677E+03 E0= -.49375460E+03  d E =-.203646E-01  mag=     0.2844
       N       E                     dE             d eps       ncg     rms          ort
SDA:   1    -0.489064360415E+03    0.73295E+00    0.00000E+00   688   0.201E+01 0.000E+00
CGA:   2    -0.489637349951E+03   -0.57299E+00   -0.57299E+00   688   0.519E+00-0.311E-03
CGA:   3    -0.489771728644E+03   -0.13438E+00   -0.13438E+00   688   0.118E+00 0.130E-03
CGA:   4    -0.489796584948E+03   -0.24856E-01   -0.24855E-01   688   0.230E-01 0.955E-05
CGA:   5    -0.489802010756E+03   -0.54258E-02   -0.54262E-02   688   0.589E-02 0.115E-04
CGA:   6    -0.489803494430E+03   -0.14837E-02   -0.14836E-02   688   0.206E-02-0.482E-05
CGA:   7    -0.489804133710E+03   -0.63928E-03   -0.63911E-03   688   0.104E-02 0.448E-05
CGA:   8    -0.489804441977E+03   -0.30827E-03   -0.30830E-03   688   0.541E-03-0.137E-05
CGA:   9    -0.489804581382E+03   -0.13940E-03   -0.13940E-03   688   0.220E-03 0.634E-08
CGA:  10    -0.489804637582E+03   -0.56200E-04   -0.56211E-04   688   0.705E-04 0.735E-06
  97 F= -.49378452E+03 E0= -.49376210E+03  d E =-.774659E-02  mag=     0.2940
       N       E                     dE             d eps       ncg     rms          ort
SDA:   1    -0.489666957661E+03    0.13762E+00    0.00000E+00   688   0.376E+00 0.000E+00
CGA:   2    -0.489773999893E+03   -0.10704E+00   -0.10704E+00   688   0.968E-01-0.234E-04
CGA:   3    -0.489799105540E+03   -0.25106E-01   -0.25106E-01   688   0.221E-01 0.390E-05
CGA:   4    -0.489803734503E+03   -0.46290E-02   -0.46291E-02   688   0.436E-02 0.510E-05
CGA:   5    -0.489804743847E+03   -0.10093E-02   -0.10095E-02   688   0.114E-02 0.354E-05
CGA:   6    -0.489805024082E+03   -0.28023E-03   -0.28020E-03   688   0.420E-03-0.154E-05
CGA:   7    -0.489805146115E+03   -0.12203E-03   -0.12201E-03   688   0.233E-03 0.977E-06
CGA:   8    -0.489805212648E+03   -0.66533E-04   -0.66533E-04   688   0.119E-03 0.239E-07
  98 F= -.49378529E+03 E0= -.49376270E+03  d E =-.851967E-02  mag=     0.3025
       N       E                     dE             d eps       ncg     rms          ort
SDA:   1    -0.489166902358E+03    0.63824E+00    0.00000E+00   688   0.176E+01 0.000E+00
CGA:   2    -0.489667540469E+03   -0.50064E+00   -0.50064E+00   688   0.451E+00-0.128E-03
CGA:   3    -0.489785213266E+03   -0.11767E+00   -0.11767E+00   688   0.101E+00 0.495E-04
CGA:   4    -0.489806584100E+03   -0.21371E-01   -0.21371E-01   688   0.198E-01 0.177E-05
CGA:   5    -0.489811311293E+03   -0.47272E-02   -0.47273E-02   688   0.519E-02 0.666E-05
CGA:   6    -0.489812601149E+03   -0.12899E-02   -0.12897E-02   688   0.202E-02-0.611E-05
CGA:   7    -0.489813179175E+03   -0.57803E-03   -0.57797E-03   688   0.108E-02 0.273E-05
CGA:   8    -0.489813488311E+03   -0.30914E-03   -0.30916E-03   688   0.540E-03-0.647E-06
CGA:   9    -0.489813640110E+03   -0.15180E-03   -0.15182E-03   688   0.219E-03-0.132E-05
CGA:  10    -0.489813698934E+03   -0.58825E-04   -0.58823E-04   688   0.764E-04 0.113E-05
  99 F= -.49379391E+03 E0= -.49377108E+03  d E =-.861217E-02  mag=     0.3133
       N       E                     dE             d eps       ncg     rms          ort
SDA:   1    -0.488966249579E+03    0.84739E+00    0.00000E+00   688   0.231E+01 0.000E+00
CGA:   2    -0.489624315943E+03   -0.65807E+00   -0.65807E+00   688   0.594E+00-0.214E-03
CGA:   3    -0.489779136032E+03   -0.15482E+00   -0.15482E+00   688   0.134E+00 0.749E-04
CGA:   4    -0.489807276447E+03   -0.28140E-01   -0.28140E-01   688   0.270E-01 0.979E-06
CGA:   5    -0.489813444215E+03   -0.61678E-02   -0.61677E-02   688   0.741E-02 0.674E-05
CGA:   6    -0.489815182841E+03   -0.17386E-02   -0.17384E-02   688   0.273E-02-0.734E-05
CGA:   7    -0.489815965433E+03   -0.78259E-03   -0.78257E-03   688   0.141E-02 0.153E-05
CGA:   8    -0.489816382882E+03   -0.41745E-03   -0.41746E-03   688   0.720E-03 0.316E-06
CGA:   9    -0.489816589100E+03   -0.20622E-03   -0.20626E-03   688   0.303E-03-0.177E-05
CGA:  10    -0.489816671386E+03   -0.82286E-04   -0.82282E-04   688   0.109E-03 0.935E-06
 100 F= -.49379699E+03 E0= -.49377391E+03  d E =-.116983E-01  mag=     0.3245
       N       E                     dE             d eps       ncg     rms          ort
SDA:   1    -0.489459582945E+03    0.35701E+00    0.00000E+00   688   0.987E+00 0.000E+00
CGA:   2    -0.489741145307E+03   -0.28156E+00   -0.28156E+00   688   0.252E+00-0.785E-04
CGA:   3    -0.489806598440E+03   -0.65453E-01   -0.65453E-01   688   0.570E-01 0.710E-05
CGA:   4    -0.489818469139E+03   -0.11871E-01   -0.11870E-01   688   0.117E-01-0.186E-05
CGA:   5    -0.489821068225E+03   -0.25991E-02   -0.25993E-02   688   0.318E-02 0.616E-05
CGA:   6    -0.489821815299E+03   -0.74707E-03   -0.74696E-03   688   0.111E-02-0.400E-05
CGA:   7    -0.489822144404E+03   -0.32910E-03   -0.32906E-03   688   0.588E-03 0.125E-05
CGA:   8    -0.489822312029E+03   -0.16762E-03   -0.16762E-03   688   0.320E-03 0.617E-06
CGA:   9    -0.489822402035E+03   -0.90006E-04   -0.90023E-04   688   0.132E-03-0.103E-05
 101 F= -.49380267E+03 E0= -.49377960E+03  d E =-.567284E-02  mag=     0.3402
       N       E                     dE             d eps       ncg     rms          ort
SDA:   1    -0.487589580772E+03    0.22327E+01    0.00000E+00   688   0.609E+01 0.000E+00
CGA:   2    -0.489326792402E+03   -0.17372E+01   -0.17372E+01   688   0.156E+01-0.136E-02
CGA:   3    -0.489730395206E+03   -0.40360E+00   -0.40361E+00   688   0.352E+00 0.621E-03
CGA:   4    -0.489804047597E+03   -0.73652E-01   -0.73655E-01   688   0.710E-01 0.265E-04
CGA:   5    -0.489820188530E+03   -0.16141E-01   -0.16141E-01   688   0.190E-01 0.213E-04
CGA:   6    -0.489824735294E+03   -0.45468E-02   -0.45466E-02   688   0.656E-02-0.113E-04
CGA:   7    -0.489826777272E+03   -0.20420E-02   -0.20416E-02   688   0.313E-02 0.874E-05
CGA:   8    -0.489827771533E+03   -0.99426E-03   -0.99430E-03   688   0.168E-02-0.407E-06
CGA:   9    -0.489828189817E+03   -0.41828E-03   -0.41828E-03   688   0.754E-03-0.568E-06
CGA:  10    -0.489828374280E+03   -0.18446E-03   -0.18449E-03   688   0.235E-03 0.168E-05
CGA:  11    -0.489828447554E+03   -0.73274E-04   -0.73260E-04   688   0.939E-04 0.276E-06
 102 F= -.49380852E+03 E0= -.49378578E+03  d E =-.115298E-01  mag=     0.3678
       N       E                     dE             d eps       ncg     rms          ort
SDA:   1    -0.489400322165E+03    0.42805E+00    0.00000E+00   688   0.117E+01 0.000E+00
CGA:   2    -0.489736727420E+03   -0.33641E+00   -0.33641E+00   688   0.305E+00-0.179E-03
CGA:   3    -0.489814800703E+03   -0.78073E-01   -0.78075E-01   688   0.709E-01 0.391E-04
CGA:   4    -0.489829323873E+03   -0.14523E-01   -0.14522E-01   688   0.142E-01 0.507E-05
CGA:   5    -0.489832561282E+03   -0.32374E-02   -0.32378E-02   688   0.355E-02 0.969E-05
CGA:   6    -0.489833446522E+03   -0.88524E-03   -0.88517E-03   688   0.119E-02-0.404E-05
CGA:   7    -0.489833831185E+03   -0.38466E-03   -0.38445E-03   688   0.577E-03 0.360E-05
CGA:   8    -0.489834027269E+03   -0.19608E-03   -0.19618E-03   688   0.304E-03-0.130E-05
CGA:   9    -0.489834113298E+03   -0.86029E-04   -0.86022E-04   688   0.156E-03 0.628E-06
 103 F= -.49381424E+03 E0= -.49379139E+03  d E =-.571236E-02  mag=     0.3961
       N       E                     dE             d eps       ncg     rms          ort
SDA:   1    -0.489649626503E+03    0.18440E+00    0.00000E+00   688   0.502E+00 0.000E+00
CGA:   2    -0.489793583965E+03   -0.14396E+00   -0.14396E+00   688   0.130E+00-0.579E-04
CGA:   3    -0.489826955994E+03   -0.33372E-01   -0.33372E-01   688   0.300E-01 0.717E-05
CGA:   4    -0.489833191203E+03   -0.62352E-02   -0.62352E-02   688   0.580E-02 0.309E-05
CGA:   5    -0.489834527785E+03   -0.13366E-02   -0.13368E-02   688   0.156E-02 0.667E-05
CGA:   6    -0.489834904246E+03   -0.37646E-03   -0.37638E-03   688   0.561E-03-0.344E-05
CGA:   7    -0.489835081542E+03   -0.17730E-03   -0.17717E-03   688   0.279E-03 0.238E-05
CGA:   8    -0.489835183259E+03   -0.10172E-03   -0.10177E-03   688   0.150E-03-0.542E-06
CGA:   9    -0.489835237739E+03   -0.54480E-04   -0.54480E-04   688   0.754E-04 0.408E-08
 104 F= -.49381538E+03 E0= -.49379239E+03  d E =-.686171E-02  mag=     0.4337
       N       E                     dE             d eps       ncg     rms          ort
SDA:   1    -0.489285703147E+03    0.54948E+00    0.00000E+00   688   0.150E+01 0.000E+00
CGA:   2    -0.489716987638E+03   -0.43128E+00   -0.43129E+00   688   0.391E+00-0.199E-03
CGA:   3    -0.489817370299E+03   -0.10038E+00   -0.10039E+00   688   0.888E-01 0.631E-04
CGA:   4    -0.489835662283E+03   -0.18292E-01   -0.18292E-01   688   0.182E-01-0.318E-05
CGA:   5    -0.489839710565E+03   -0.40483E-02   -0.40488E-02   688   0.492E-02 0.127E-04
CGA:   6    -0.489840884951E+03   -0.11744E-02   -0.11741E-02   688   0.164E-02-0.795E-05
CGA:   7    -0.489841416022E+03   -0.53107E-03   -0.53090E-03   688   0.767E-03 0.344E-05
CGA:   8    -0.489841694828E+03   -0.27881E-03   -0.27886E-03   688   0.368E-03-0.645E-06
CGA:   9    -0.489841822129E+03   -0.12730E-03   -0.12730E-03   688   0.153E-03-0.693E-07
CGA:  10    -0.489841873903E+03   -0.51774E-04   -0.51736E-04   688   0.957E-04 0.741E-06
 105 F= -.49382220E+03 E0= -.49379889E+03  d E =-.681897E-02  mag=     0.4837
       N       E                     dE             d eps       ncg     rms          ort
SDA:   1    -0.489233087173E+03    0.60873E+00    0.00000E+00   688   0.165E+01 0.000E+00
CGA:   2    -0.489706712734E+03   -0.47363E+00   -0.47363E+00   688   0.430E+00-0.220E-03
CGA:   3    -0.489817027325E+03   -0.11031E+00   -0.11032E+00   688   0.983E-01 0.576E-04
CGA:   4    -0.489837146399E+03   -0.20119E-01   -0.20119E-01   688   0.205E-01-0.242E-05
CGA:   5    -0.489841671688E+03   -0.45253E-02   -0.45256E-02   688   0.544E-02 0.115E-04
CGA:   6    -0.489842971046E+03   -0.12994E-02   -0.12991E-02   688   0.184E-02-0.728E-05
CGA:   7    -0.489843541192E+03   -0.57015E-03   -0.57006E-03   688   0.955E-03 0.264E-05
CGA:   8    -0.489843830094E+03   -0.28890E-03   -0.28890E-03   688   0.574E-03 0.412E-06
CGA:   9    -0.489843983981E+03   -0.15389E-03   -0.15388E-03   688   0.274E-03-0.918E-06
CGA:  10    -0.489844068913E+03   -0.84932E-04   -0.84910E-04   688   0.127E-03 0.856E-06
 106 F= -.49382457E+03 E0= -.49380093E+03  d E =-.918826E-02  mag=     0.5405
       N       E                     dE             d eps       ncg     rms          ort
SDA:   1    -0.489677745436E+03    0.16624E+00    0.00000E+00   688   0.454E+00 0.000E+00
CGA:   2    -0.489809108727E+03   -0.13136E+00   -0.13136E+00   688   0.121E+00-0.458E-04
CGA:   3    -0.489840101516E+03   -0.30993E-01   -0.30994E-01   688   0.277E-01 0.254E-04
CGA:   4    -0.489845748723E+03   -0.56472E-02   -0.56470E-02   688   0.589E-02-0.433E-05
CGA:   5    -0.489847029829E+03   -0.12811E-02   -0.12815E-02   688   0.157E-02 0.693E-05
CGA:   6    -0.489847418454E+03   -0.38862E-03   -0.38849E-03   688   0.546E-03-0.454E-05
CGA:   7    -0.489847600436E+03   -0.18198E-03   -0.18190E-03   688   0.305E-03 0.153E-05
CGA:   8    -0.489847704282E+03   -0.10385E-03   -0.10381E-03   688   0.216E-03 0.458E-06
CGA:   9    -0.489847767788E+03   -0.63505E-04   -0.63513E-04   688   0.147E-03-0.545E-06
 107 F= -.49382855E+03 E0= -.49380482E+03  d E =-.397313E-02  mag=     0.5885
       N       E                     dE             d eps       ncg     rms          ort
SDA:   1    -0.489243471173E+03    0.60423E+00    0.00000E+00   688   0.162E+01 0.000E+00
CGA:   2    -0.489712064625E+03   -0.46859E+00   -0.46860E+00   688   0.434E+00-0.297E-03
CGA:   3    -0.489822380771E+03   -0.11032E+00   -0.11033E+00   688   0.101E+00 0.136E-03
CGA:   4    -0.489842741483E+03   -0.20361E-01   -0.20362E-01   688   0.211E-01-0.404E-05
CGA:   5    -0.489847320808E+03   -0.45793E-02   -0.45795E-02   688   0.578E-02 0.124E-04
CGA:   6    -0.489848690779E+03   -0.13700E-02   -0.13697E-02   688   0.190E-02-0.747E-05
CGA:   7    -0.489849284679E+03   -0.59390E-03   -0.59385E-03   688   0.963E-03 0.168E-05
CGA:   8    -0.489849576677E+03   -0.29200E-03   -0.29195E-03   688   0.564E-03 0.189E-05
CGA:   9    -0.489849727222E+03   -0.15055E-03   -0.15053E-03   688   0.264E-03-0.925E-06
CGA:  10    -0.489849805302E+03   -0.78080E-04   -0.78070E-04   688   0.117E-03 0.441E-06
 108 F= -.49383108E+03 E0= -.49380738E+03  d E =-.650776E-02  mag=     0.6241
       N       E                     dE             d eps       ncg     rms          ort
SDA:   1    -0.489745887652E+03    0.10384E+00    0.00000E+00   688   0.283E+00 0.000E+00
CGA:   2    -0.489827971296E+03   -0.82084E-01   -0.82084E-01   688   0.770E-01-0.399E-04
CGA:   3    -0.489847223174E+03   -0.19252E-01   -0.19253E-01   688   0.185E-01 0.154E-04
CGA:   4    -0.489850895263E+03   -0.36721E-02   -0.36721E-02   688   0.397E-02 0.850E-06
CGA:   5    -0.489851739650E+03   -0.84439E-03   -0.84477E-03   688   0.103E-02 0.650E-05
CGA:   6    -0.489851994612E+03   -0.25496E-03   -0.25490E-03   688   0.351E-03-0.231E-05
CGA:   7    -0.489852107600E+03   -0.11299E-03   -0.11294E-03   688   0.206E-03 0.912E-06
CGA:   8    -0.489852174380E+03   -0.66779E-04   -0.66725E-04   688   0.142E-03 0.110E-05
 109 F= -.49383373E+03 E0= -.49380997E+03  d E =-.264913E-02  mag=     0.6519
       N       E                     dE             d eps       ncg     rms          ort
SDA:   1    -0.489714706681E+03    0.13740E+00    0.00000E+00   688   0.368E+00 0.000E+00
CGA:   2    -0.489821548191E+03   -0.10684E+00   -0.10684E+00   688   0.997E-01-0.578E-04
CGA:   3    -0.489846554487E+03   -0.25006E-01   -0.25007E-01   688   0.238E-01 0.186E-04
CGA:   4    -0.489851316143E+03   -0.47617E-02   -0.47618E-02   688   0.470E-02 0.361E-05
CGA:   5    -0.489852393749E+03   -0.10776E-02   -0.10779E-02   688   0.127E-02 0.634E-05
CGA:   6    -0.489852699515E+03   -0.30577E-03   -0.30567E-03   688   0.471E-03-0.306E-05
CGA:   7    -0.489852838977E+03   -0.13946E-03   -0.13942E-03   688   0.257E-03 0.166E-05
CGA:   8    -0.489852919403E+03   -0.80427E-04   -0.80388E-04   688   0.156E-03 0.915E-06
 110 F= -.49383479E+03 E0= -.49381101E+03  d E =-.370944E-02  mag=     0.6743
       N       E                     dE             d eps       ncg     rms          ort
SDA:   1    -0.489804950918E+03    0.47888E-01    0.00000E+00   688   0.132E+00 0.000E+00
CGA:   2    -0.489843700399E+03   -0.38749E-01   -0.38750E-01   688   0.365E-01-0.215E-04
CGA:   3    -0.489852895938E+03   -0.91955E-02   -0.91961E-02   688   0.844E-02 0.143E-04
CGA:   4    -0.489854597578E+03   -0.17016E-02   -0.17016E-02   688   0.170E-02 0.347E-07
CGA:   5    -0.489854996772E+03   -0.39919E-03   -0.39928E-03   688   0.487E-03 0.251E-05
CGA:   6    -0.489855118660E+03   -0.12189E-03   -0.12185E-03   688   0.206E-03-0.193E-05
CGA:   7    -0.489855184104E+03   -0.65443E-04   -0.65391E-04   688   0.120E-03 0.103E-05
 111 F= -.49383727E+03 E0= -.49381335E+03  d E =-.247603E-02  mag=     0.6983
       N       E                     dE             d eps       ncg     rms          ort
SDA:   1    -0.489471316773E+03    0.38380E+00    0.00000E+00   688   0.101E+01 0.000E+00
CGA:   2    -0.489768499846E+03   -0.29718E+00   -0.29719E+00   688   0.284E+00-0.378E-03
CGA:   3    -0.489838982813E+03   -0.70483E-01   -0.70493E-01   688   0.690E-01 0.146E-03
CGA:   4    -0.489852254265E+03   -0.13271E-01   -0.13272E-01   688   0.152E-01-0.751E-05
CGA:   5    -0.489855531691E+03   -0.32774E-02   -0.32778E-02   688   0.400E-02 0.120E-04
CGA:   6    -0.489856528460E+03   -0.99677E-03   -0.99666E-03   688   0.133E-02-0.569E-05
CGA:   7    -0.489856957783E+03   -0.42932E-03   -0.42922E-03   688   0.674E-03 0.191E-05
CGA:   8    -0.489857172626E+03   -0.21484E-03   -0.21472E-03   688   0.363E-03 0.263E-05
CGA:   9    -0.489857274429E+03   -0.10180E-03   -0.10181E-03   688   0.180E-03-0.582E-06
CGA:  10    -0.489857322580E+03   -0.48151E-04   -0.48155E-04   688   0.856E-04 0.668E-06
 112 F= -.49383997E+03 E0= -.49381583E+03  d E =-.518026E-02  mag=     0.7418
       N       E                     dE             d eps       ncg     rms          ort
SDA:   1    -0.489813132828E+03    0.44142E-01    0.00000E+00   688   0.119E+00 0.000E+00
CGA:   2    -0.489848279308E+03   -0.35146E-01   -0.35147E-01   688   0.338E-01-0.204E-04
CGA:   3    -0.489856636079E+03   -0.83568E-02   -0.83574E-02   688   0.814E-02 0.139E-04
CGA:   4    -0.489858218528E+03   -0.15824E-02   -0.15822E-02   688   0.181E-02-0.410E-05
CGA:   5    -0.489858598940E+03   -0.38041E-03   -0.38062E-03   688   0.491E-03 0.365E-05
CGA:   6    -0.489858722336E+03   -0.12340E-03   -0.12336E-03   688   0.177E-03-0.188E-05
CGA:   7    -0.489858781872E+03   -0.59536E-04   -0.59548E-04   688   0.108E-03-0.192E-06
 113 F= -.49384154E+03 E0= -.49381727E+03  d E =-.156995E-02  mag=     0.7673
       N       E                     dE             d eps       ncg     rms          ort
SDA:   1    -0.489702541188E+03    0.15618E+00    0.00000E+00   688   0.411E+00 0.000E+00
CGA:   2    -0.489823559711E+03   -0.12102E+00   -0.12102E+00   688   0.116E+00-0.865E-04
CGA:   3    -0.489852249712E+03   -0.28690E-01   -0.28693E-01   688   0.286E-01 0.525E-04
CGA:   4    -0.489857673396E+03   -0.54237E-02   -0.54236E-02   688   0.632E-02-0.856E-05
CGA:   5    -0.489859045295E+03   -0.13719E-02   -0.13722E-02   688   0.170E-02 0.743E-05
CGA:   6    -0.489859469171E+03   -0.42388E-03   -0.42381E-03   688   0.588E-03-0.387E-05
CGA:   7    -0.489859657476E+03   -0.18830E-03   -0.18829E-03   688   0.305E-03 0.191E-06
CGA:   8    -0.489859757086E+03   -0.99610E-04   -0.99514E-04   688   0.153E-03 0.171E-05
 114 F= -.49384272E+03 E0= -.49381824E+03  d E =-.274610E-02  mag=     0.7963
       N       E                     dE             d eps       ncg     rms          ort
SDA:   1    -0.489818481296E+03    0.41176E-01    0.00000E+00   688   0.111E+00 0.000E+00
CGA:   2    -0.489851406439E+03   -0.32925E-01   -0.32926E-01   688   0.317E-01-0.138E-04
CGA:   3    -0.489859125727E+03   -0.77193E-02   -0.77194E-02   688   0.784E-02-0.788E-06
CGA:   4    -0.489860660490E+03   -0.15348E-02   -0.15350E-02   688   0.151E-02 0.477E-05
CGA:   5    -0.489861012118E+03   -0.35163E-03   -0.35169E-03   688   0.439E-03 0.150E-05
CGA:   6    -0.489861117049E+03   -0.10493E-03   -0.10493E-03   688   0.173E-03-0.124E-06
CGA:   7    -0.489861169530E+03   -0.52481E-04   -0.52482E-04   688   0.931E-04-0.296E-07
 115 F= -.49384424E+03 E0= -.49381973E+03  d E =-.152442E-02  mag=     0.8136
