  71  71   0   0
  0.4011563E+02  0.1487831E-08  0.1477209E-08  0.1500000E-08  0.3000000E-15
  1.000000000000000E-004
  CAR 
 unknown system                          
      5.27029309    -48.59080511  301     -2.13594300      1.00000000
    -48.591  0.0000E+00  0.0000E+00  0.0000E+00  0.0000E+00
    -48.411  0.0000E+00  0.0000E+00  0.0000E+00  0.0000E+00
    -48.232  0.0000E+00  0.0000E+00  0.0000E+00  0.0000E+00
    -48.052  0.0000E+00  0.0000E+00  0.0000E+00  0.0000E+00
    -47.873  0.0000E+00  0.0000E+00  0.0000E+00  0.0000E+00
    -47.693  0.0000E+00  0.0000E+00  0.0000E+00  0.0000E+00
    -47.514  0.0000E+00  0.0000E+00  0.0000E+00  0.0000E+00
    -47.334  0.0000E+00  0.0000E+00  0.0000E+00  0.0000E+00
    -47.155  0.0000E+00  0.0000E+00  0.0000E+00  0.0000E+00
    -46.975  0.0000E+00  0.0000E+00  0.0000E+00  0.0000E+00
    -46.795  0.0000E+00  0.0000E+00  0.0000E+00  0.0000E+00
    -46.616  0.1514E-12  0.0000E+00  0.2718E-13  0.0000E+00
    -46.436  0.2267E-06  0.0000E+00  0.4070E-07  0.0000E+00
    -46.257  0.7390E-03  0.0000E+00  0.1327E-03  0.0000E+00
    -46.077  0.1141E-01  0.0000E+00  0.2181E-02  0.0000E+00
    -45.898  0.1896E-01  0.0000E+00  0.5586E-02  0.0000E+00
    -45.718  0.1053E-01  0.0000E+00  0.7476E-02  0.0000E+00
    -45.539  0.1331E-03  0.0000E+00  0.7500E-02  0.0000E+00
    -45.359  0.6850E-08  0.0000E+00  0.7500E-02  0.0000E+00
    -45.180  0.7312E-15  0.0000E+00  0.7500E-02  0.0000E+00
    -45.000  0.0000E+00  0.0000E+00  0.7500E-02  0.0000E+00
    -44.821  0.0000E+00  0.0000E+00  0.7500E-02  0.0000E+00
    -44.641  0.0000E+00  0.5190E-12  0.7500E-02  0.9318E-13
    -44.461  0.0000E+00  0.4958E-06  0.7500E-02  0.8902E-07
    -44.282  0.0000E+00  0.1057E-02  0.7500E-02  0.1898E-03
    -44.102  0.0000E+00  0.1155E-01  0.7500E-02  0.2264E-02
    -43.923  0.0000E+00  0.1234E-01  0.7500E-02  0.4480E-02
    -43.743  0.0000E+00  0.1043E-01  0.7500E-02  0.6352E-02
    -43.564  0.0000E+00  0.6338E-02  0.7500E-02  0.7490E-02
    -43.384  0.0000E+00  0.5732E-04  0.7500E-02  0.7500E-02
    -43.205  0.0000E+00  0.1533E-08  0.7500E-02  0.7500E-02
    -43.025  0.0000E+00  0.8039E-16  0.7500E-02  0.7500E-02
    -42.846  0.0000E+00  0.0000E+00  0.7500E-02  0.7500E-02
    -42.666  0.0000E+00  0.0000E+00  0.7500E-02  0.7500E-02
    -42.487  0.0000E+00  0.0000E+00  0.7500E-02  0.7500E-02
    -42.307  0.0000E+00  0.0000E+00  0.7500E-02  0.7500E-02
    -42.127  0.0000E+00  0.0000E+00  0.7500E-02  0.7500E-02
    -41.948  0.0000E+00  0.0000E+00  0.7500E-02  0.7500E-02
    -41.768  0.0000E+00  0.0000E+00  0.7500E-02  0.7500E-02
    -41.589  0.0000E+00  0.0000E+00  0.7500E-02  0.7500E-02
    -41.409  0.0000E+00  0.0000E+00  0.7500E-02  0.7500E-02
    -41.230  0.0000E+00  0.0000E+00  0.7500E-02  0.7500E-02
    -41.050  0.0000E+00  0.0000E+00  0.7500E-02  0.7500E-02
    -40.871  0.0000E+00  0.0000E+00  0.7500E-02  0.7500E-02
    -40.691  0.0000E+00  0.0000E+00  0.7500E-02  0.7500E-02
    -40.512  0.0000E+00  0.0000E+00  0.7500E-02  0.7500E-02
    -40.332  0.0000E+00  0.0000E+00  0.7500E-02  0.7500E-02
    -40.153  0.0000E+00  0.0000E+00  0.7500E-02  0.7500E-02
    -39.973  0.0000E+00  0.0000E+00  0.7500E-02  0.7500E-02
    -39.793  0.0000E+00  0.0000E+00  0.7500E-02  0.7500E-02
    -39.614  0.0000E+00  0.0000E+00  0.7500E-02  0.7500E-02
    -39.434  0.0000E+00  0.0000E+00  0.7500E-02  0.7500E-02
    -39.255  0.0000E+00  0.0000E+00  0.7500E-02  0.7500E-02
    -39.075  0.0000E+00  0.0000E+00  0.7500E-02  0.7500E-02
    -38.896  0.0000E+00  0.0000E+00  0.7500E-02  0.7500E-02
    -38.716  0.0000E+00  0.0000E+00  0.7500E-02  0.7500E-02
    -38.537  0.0000E+00  0.0000E+00  0.7500E-02  0.7500E-02
    -38.357  0.0000E+00  0.0000E+00  0.7500E-02  0.7500E-02
    -38.178  0.0000E+00  0.0000E+00  0.7500E-02  0.7500E-02
    -37.998  0.0000E+00  0.0000E+00  0.7500E-02  0.7500E-02
    -37.819  0.0000E+00  0.0000E+00  0.7500E-02  0.7500E-02
    -37.639  0.0000E+00  0.0000E+00  0.7500E-02  0.7500E-02
    -37.460  0.0000E+00  0.0000E+00  0.7500E-02  0.7500E-02
    -37.280  0.0000E+00  0.0000E+00  0.7500E-02  0.7500E-02
    -37.100  0.0000E+00  0.0000E+00  0.7500E-02  0.7500E-02
    -36.921  0.0000E+00  0.0000E+00  0.7500E-02  0.7500E-02
    -36.741  0.0000E+00  0.0000E+00  0.7500E-02  0.7500E-02
    -36.562  0.0000E+00  0.0000E+00  0.7500E-02  0.7500E-02
    -36.382  0.0000E+00  0.0000E+00  0.7500E-02  0.7500E-02
    -36.203  0.0000E+00  0.0000E+00  0.7500E-02  0.7500E-02
    -36.023  0.0000E+00  0.0000E+00  0.7500E-02  0.7500E-02
    -35.844  0.0000E+00  0.0000E+00  0.7500E-02  0.7500E-02
    -35.664  0.0000E+00  0.0000E+00  0.7500E-02  0.7500E-02
    -35.485  0.0000E+00  0.0000E+00  0.7500E-02  0.7500E-02
    -35.305  0.0000E+00  0.0000E+00  0.7500E-02  0.7500E-02
    -35.126  0.0000E+00  0.0000E+00  0.7500E-02  0.7500E-02
    -34.946  0.0000E+00  0.0000E+00  0.7500E-02  0.7500E-02
    -34.766  0.0000E+00  0.0000E+00  0.7500E-02  0.7500E-02
    -34.587  0.0000E+00  0.0000E+00  0.7500E-02  0.7500E-02
    -34.407  0.0000E+00  0.0000E+00  0.7500E-02  0.7500E-02
    -34.228  0.0000E+00  0.0000E+00  0.7500E-02  0.7500E-02
    -34.048  0.0000E+00  0.0000E+00  0.7500E-02  0.7500E-02
    -33.869  0.0000E+00  0.0000E+00  0.7500E-02  0.7500E-02
    -33.689  0.0000E+00  0.0000E+00  0.7500E-02  0.7500E-02
    -33.510  0.0000E+00  0.0000E+00  0.7500E-02  0.7500E-02
    -33.330  0.0000E+00  0.0000E+00  0.7500E-02  0.7500E-02
    -33.151  0.0000E+00  0.0000E+00  0.7500E-02  0.7500E-02
    -32.971  0.0000E+00  0.0000E+00  0.7500E-02  0.7500E-02
    -32.792  0.0000E+00  0.0000E+00  0.7500E-02  0.7500E-02
    -32.612  0.0000E+00  0.0000E+00  0.7500E-02  0.7500E-02
    -32.432  0.0000E+00  0.0000E+00  0.7500E-02  0.7500E-02
    -32.253  0.0000E+00  0.0000E+00  0.7500E-02  0.7500E-02
    -32.073  0.0000E+00  0.0000E+00  0.7500E-02  0.7500E-02
    -31.894  0.0000E+00  0.0000E+00  0.7500E-02  0.7500E-02
    -31.714  0.0000E+00  0.0000E+00  0.7500E-02  0.7500E-02
    -31.535  0.0000E+00  0.0000E+00  0.7500E-02  0.7500E-02
    -31.355  0.0000E+00  0.0000E+00  0.7500E-02  0.7500E-02
    -31.176  0.0000E+00  0.0000E+00  0.7500E-02  0.7500E-02
    -30.996  0.0000E+00  0.0000E+00  0.7500E-02  0.7500E-02
    -30.817  0.0000E+00  0.0000E+00  0.7500E-02  0.7500E-02
    -30.637  0.0000E+00  0.0000E+00  0.7500E-02  0.7500E-02
    -30.458  0.0000E+00  0.0000E+00  0.7500E-02  0.7500E-02
    -30.278  0.0000E+00  0.0000E+00  0.7500E-02  0.7500E-02
    -30.098  0.0000E+00  0.0000E+00  0.7500E-02  0.7500E-02
    -29.919  0.0000E+00  0.0000E+00  0.7500E-02  0.7500E-02
    -29.739  0.0000E+00  0.0000E+00  0.7500E-02  0.7500E-02
    -29.560  0.0000E+00  0.0000E+00  0.7500E-02  0.7500E-02
    -29.380  0.0000E+00  0.0000E+00  0.7500E-02  0.7500E-02
    -29.201  0.0000E+00  0.0000E+00  0.7500E-02  0.7500E-02
    -29.021  0.0000E+00  0.0000E+00  0.7500E-02  0.7500E-02
    -28.842  0.0000E+00  0.0000E+00  0.7500E-02  0.7500E-02
    -28.662  0.0000E+00  0.0000E+00  0.7500E-02  0.7500E-02
    -28.483  0.0000E+00  0.0000E+00  0.7500E-02  0.7500E-02
    -28.303  0.0000E+00  0.0000E+00  0.7500E-02  0.7500E-02
    -28.124  0.0000E+00  0.0000E+00  0.7500E-02  0.7500E-02
    -27.944  0.0000E+00  0.0000E+00  0.7500E-02  0.7500E-02
    -27.765  0.0000E+00  0.0000E+00  0.7500E-02  0.7500E-02
    -27.585  0.0000E+00  0.0000E+00  0.7500E-02  0.7500E-02
    -27.405  0.0000E+00  0.0000E+00  0.7500E-02  0.7500E-02
    -27.226  0.0000E+00  0.0000E+00  0.7500E-02  0.7500E-02
    -27.046  0.0000E+00  0.0000E+00  0.7500E-02  0.7500E-02
    -26.867  0.0000E+00  0.0000E+00  0.7500E-02  0.7500E-02
    -26.687  0.0000E+00  0.0000E+00  0.7500E-02  0.7500E-02
    -26.508  0.0000E+00  0.0000E+00  0.7500E-02  0.7500E-02
    -26.328  0.0000E+00  0.0000E+00  0.7500E-02  0.7500E-02
    -26.149  0.0000E+00  0.0000E+00  0.7500E-02  0.7500E-02
    -25.969  0.0000E+00  0.0000E+00  0.7500E-02  0.7500E-02
    -25.790  0.0000E+00  0.0000E+00  0.7500E-02  0.7500E-02
    -25.610  0.0000E+00  0.0000E+00  0.7500E-02  0.7500E-02
    -25.431  0.0000E+00  0.0000E+00  0.7500E-02  0.7500E-02
    -25.251  0.0000E+00  0.0000E+00  0.7500E-02  0.7500E-02
    -25.071  0.0000E+00  0.0000E+00  0.7500E-02  0.7500E-02
    -24.892  0.0000E+00  0.0000E+00  0.7500E-02  0.7500E-02
    -24.712  0.0000E+00  0.0000E+00  0.7500E-02  0.7500E-02
    -24.533  0.0000E+00  0.0000E+00  0.7500E-02  0.7500E-02
    -24.353  0.0000E+00  0.0000E+00  0.7500E-02  0.7500E-02
    -24.174  0.2010E-16  0.2485E-15  0.7500E-02  0.7500E-02
    -23.994  0.5905E-09  0.3296E-08  0.7500E-02  0.7500E-02
    -23.815  0.3369E-04  0.8702E-04  0.7506E-02  0.7516E-02
    -23.635  0.5401E-02  0.7105E-02  0.8476E-02  0.8791E-02
    -23.456  0.8324E-02  0.6664E-02  0.9970E-02  0.9988E-02
    -23.276  0.1656E-03  0.6872E-04  0.1000E-01  0.1000E-01
    -23.097  0.1107E-07  0.2134E-08  0.1000E-01  0.1000E-01
    -22.917  0.1503E-14  0.1310E-15  0.1000E-01  0.1000E-01
    -22.737  0.0000E+00  0.0000E+00  0.1000E-01  0.1000E-01
    -22.558  0.0000E+00  0.0000E+00  0.1000E-01  0.1000E-01
    -22.378  0.0000E+00  0.0000E+00  0.1000E-01  0.1000E-01
    -22.199  0.0000E+00  0.0000E+00  0.1000E-01  0.1000E-01
    -22.019  0.6609E-13  0.1191E-12  0.1000E-01  0.1000E-01
    -21.840  0.8990E-07  0.1313E-06  0.1000E-01  0.1000E-01
    -21.660  0.3348E-03  0.4038E-03  0.1006E-01  0.1007E-01
    -21.481  0.8697E-02  0.9115E-02  0.1162E-01  0.1171E-01
    -21.301  0.1316E-01  0.1300E-01  0.1399E-01  0.1404E-01
    -21.122  0.8939E-02  0.9191E-02  0.1559E-01  0.1569E-01
    -20.942  0.1864E-01  0.1881E-01  0.1894E-01  0.1907E-01
    -20.763  0.7899E-02  0.7460E-02  0.2035E-01  0.2041E-01
    -20.583  0.9971E-02  0.1077E-01  0.2215E-01  0.2234E-01
    -20.403  0.2031E-01  0.1992E-01  0.2579E-01  0.2592E-01
    -20.224  0.1431E-01  0.1436E-01  0.2836E-01  0.2850E-01
    -20.044  0.9297E-02  0.9414E-02  0.3003E-01  0.3019E-01
    -19.865  0.8567E-02  0.8155E-02  0.3157E-01  0.3165E-01
    -19.685  0.1602E-01  0.1694E-01  0.3444E-01  0.3469E-01
    -19.506  0.1859E-01  0.1802E-01  0.3778E-01  0.3793E-01
    -19.326  0.1434E-01  0.1459E-01  0.4036E-01  0.4055E-01
    -19.147  0.1274E-01  0.1255E-01  0.4264E-01  0.4280E-01
    -18.967  0.1257E-01  0.1280E-01  0.4490E-01  0.4510E-01
    -18.788  0.8750E-02  0.8067E-02  0.4647E-01  0.4655E-01
    -18.608  0.1323E-01  0.1386E-01  0.4885E-01  0.4904E-01
    -18.429  0.1924E-01  0.1895E-01  0.5230E-01  0.5244E-01
    -18.249  0.1914E-01  0.2046E-01  0.5574E-01  0.5611E-01
    -18.070  0.1660E-01  0.1548E-01  0.5872E-01  0.5889E-01
    -17.890  0.1068E-01  0.1021E-01  0.6064E-01  0.6072E-01
    -17.710  0.6597E-02  0.6898E-02  0.6182E-01  0.6196E-01
    -17.531  0.1001E-01  0.1020E-01  0.6362E-01  0.6379E-01
    -17.351  0.1985E-01  0.2023E-01  0.6718E-01  0.6743E-01
    -17.172  0.2219E-01  0.2199E-01  0.7117E-01  0.7137E-01
    -16.992  0.1792E-01  0.1810E-01  0.7438E-01  0.7462E-01
    -16.813  0.1983E-01  0.1953E-01  0.7794E-01  0.7813E-01
    -16.633  0.1283E-01  0.1271E-01  0.8025E-01  0.8041E-01
    -16.454  0.9121E-02  0.9136E-02  0.8189E-01  0.8205E-01
    -16.274  0.1012E-01  0.1004E-01  0.8370E-01  0.8385E-01
    -16.095  0.1386E-01  0.1396E-01  0.8619E-01  0.8636E-01
    -15.915  0.1922E-01  0.1993E-01  0.8964E-01  0.8994E-01
    -15.736  0.1746E-01  0.1752E-01  0.9278E-01  0.9308E-01
    -15.556  0.7406E-02  0.6278E-02  0.9411E-01  0.9421E-01
    -15.376  0.5974E-02  0.5761E-02  0.9518E-01  0.9525E-01
    -15.197  0.9527E-02  0.1017E-01  0.9689E-01  0.9707E-01
    -15.017  0.1009E-01  0.9781E-02  0.9870E-01  0.9883E-01
    -14.838  0.1828E-01  0.1880E-01  0.1020E+00  0.1022E+00
    -14.658  0.1876E-01  0.1941E-01  0.1054E+00  0.1057E+00
    -14.479  0.2171E-01  0.2073E-01  0.1093E+00  0.1094E+00
    -14.299  0.8616E-02  0.8295E-02  0.1108E+00  0.1109E+00
    -14.120  0.1429E-01  0.1478E-01  0.1134E+00  0.1136E+00
    -13.940  0.1973E-01  0.1984E-01  0.1169E+00  0.1171E+00
    -13.761  0.1858E-01  0.1866E-01  0.1202E+00  0.1205E+00
    -13.581  0.1035E-01  0.9821E-02  0.1221E+00  0.1222E+00
    -13.402  0.1891E-01  0.1997E-01  0.1255E+00  0.1258E+00
    -13.222  0.9609E-02  0.8484E-02  0.1272E+00  0.1273E+00
    -13.042  0.1072E-01  0.1135E-01  0.1291E+00  0.1294E+00
    -12.863  0.1861E-01  0.1815E-01  0.1325E+00  0.1326E+00
    -12.683  0.1539E-01  0.1585E-01  0.1352E+00  0.1355E+00
    -12.504  0.1374E-01  0.1346E-01  0.1377E+00  0.1379E+00
    -12.324  0.1027E-01  0.9929E-02  0.1396E+00  0.1397E+00
    -12.145  0.8229E-02  0.7996E-02  0.1410E+00  0.1411E+00
    -11.965  0.1361E-01  0.1408E-01  0.1435E+00  0.1436E+00
    -11.786  0.2586E-01  0.2656E-01  0.1481E+00  0.1484E+00
    -11.606  0.3050E-01  0.3068E-01  0.1536E+00  0.1539E+00
    -11.427  0.1929E-01  0.1797E-01  0.1571E+00  0.1571E+00
    -11.247  0.3120E-02  0.2888E-02  0.1576E+00  0.1577E+00
    -11.068  0.1547E-01  0.1639E-01  0.1604E+00  0.1606E+00
    -10.888  0.1086E-01  0.1028E-01  0.1624E+00  0.1624E+00
    -10.708  0.2080E-01  0.2154E-01  0.1661E+00  0.1663E+00
    -10.529  0.1993E-01  0.1953E-01  0.1697E+00  0.1698E+00
    -10.349  0.1751E-01  0.1736E-01  0.1728E+00  0.1729E+00
    -10.170  0.2259E-01  0.2286E-01  0.1769E+00  0.1770E+00
     -9.990  0.3014E-01  0.3206E-01  0.1823E+00  0.1828E+00
     -9.811  0.2720E-01  0.2506E-01  0.1872E+00  0.1873E+00
     -9.631  0.2040E-01  0.2122E-01  0.1908E+00  0.1911E+00
     -9.452  0.2948E-01  0.2898E-01  0.1961E+00  0.1963E+00
     -9.272  0.2695E-01  0.2785E-01  0.2009E+00  0.2013E+00
     -9.093  0.3633E-01  0.3624E-01  0.2075E+00  0.2078E+00
     -8.913  0.3935E-01  0.3875E-01  0.2145E+00  0.2148E+00
     -8.734  0.3148E-01  0.3180E-01  0.2202E+00  0.2205E+00
     -8.554  0.4367E-01  0.4508E-01  0.2280E+00  0.2286E+00
     -8.375  0.5452E-01  0.5387E-01  0.2378E+00  0.2382E+00
     -8.195  0.3421E-01  0.3323E-01  0.2440E+00  0.2442E+00
     -8.015  0.3157E-01  0.3197E-01  0.2496E+00  0.2500E+00
     -7.836  0.3167E-01  0.3157E-01  0.2553E+00  0.2556E+00
     -7.656  0.2215E-01  0.2119E-01  0.2593E+00  0.2594E+00
     -7.477  0.2751E-01  0.2963E-01  0.2642E+00  0.2647E+00
     -7.297  0.3754E-01  0.3686E-01  0.2710E+00  0.2714E+00
     -7.118  0.4196E-01  0.4100E-01  0.2785E+00  0.2787E+00
     -6.938  0.3015E-01  0.3023E-01  0.2839E+00  0.2842E+00
     -6.759  0.2093E-01  0.2105E-01  0.2877E+00  0.2879E+00
     -6.579  0.1498E-01  0.1497E-01  0.2904E+00  0.2906E+00
     -6.400  0.1856E-01  0.1645E-01  0.2937E+00  0.2936E+00
     -6.220  0.3235E-01  0.3358E-01  0.2995E+00  0.2996E+00
     -6.041  0.3590E-01  0.3685E-01  0.3059E+00  0.3062E+00
     -5.861  0.3174E-01  0.3216E-01  0.3116E+00  0.3120E+00
     -5.681  0.2383E-01  0.2037E-01  0.3159E+00  0.3156E+00
     -5.502  0.1618E-01  0.1809E-01  0.3188E+00  0.3189E+00
     -5.322  0.2186E-01  0.1920E-01  0.3228E+00  0.3223E+00
     -5.143  0.1841E-01  0.1387E-01  0.3261E+00  0.3248E+00
     -4.963  0.2214E-01  0.2672E-01  0.3300E+00  0.3296E+00
     -4.784  0.3176E-01  0.3383E-01  0.3357E+00  0.3357E+00
     -4.604  0.3397E-01  0.3294E-01  0.3418E+00  0.3416E+00
     -4.425  0.1556E-01  0.1610E-01  0.3446E+00  0.3445E+00
     -4.245  0.1008E-01  0.8418E-02  0.3464E+00  0.3460E+00
     -4.066  0.1798E-01  0.1029E-01  0.3497E+00  0.3479E+00
     -3.886  0.1811E-01  0.1251E-01  0.3529E+00  0.3501E+00
     -3.707  0.1176E-01  0.1936E-01  0.3550E+00  0.3536E+00
     -3.527  0.1114E-01  0.1741E-01  0.3570E+00  0.3567E+00
     -3.347  0.1771E-01  0.1422E-01  0.3602E+00  0.3593E+00
     -3.168  0.1819E-01  0.1144E-01  0.3635E+00  0.3613E+00
     -2.988  0.3025E-02  0.3003E-02  0.3640E+00  0.3619E+00
     -2.809  0.1132E-01  0.8323E-04  0.3661E+00  0.3619E+00
     -2.629  0.4187E-02  0.8497E-06  0.3668E+00  0.3619E+00
     -2.450  0.3990E-03  0.6159E-03  0.3669E+00  0.3620E+00
     -2.270  0.9970E-03  0.6508E-02  0.3671E+00  0.3632E+00
     -2.091  0.6102E-02  0.9971E-02  0.3681E+00  0.3649E+00
     -1.911  0.8249E-02  0.3680E-02  0.3696E+00  0.3656E+00
     -1.732  0.7916E-02  0.1732E-03  0.3711E+00  0.3656E+00
     -1.552  0.1212E-01  0.2268E-02  0.3732E+00  0.3660E+00
     -1.373  0.1182E-01  0.1208E-02  0.3754E+00  0.3663E+00
     -1.193  0.2461E-02  0.4187E-02  0.3758E+00  0.3670E+00
     -1.014  0.7590E-02  0.1115E-01  0.3772E+00  0.3690E+00
     -0.834  0.1406E-01  0.3415E-01  0.3797E+00  0.3751E+00
     -0.654  0.2053E-01  0.3058E-01  0.3834E+00  0.3806E+00
     -0.475  0.1587E-01  0.2148E-01  0.3862E+00  0.3845E+00
     -0.295  0.1633E-01  0.1749E-01  0.3891E+00  0.3876E+00
     -0.116  0.1830E-01  0.2189E-01  0.3924E+00  0.3916E+00
      0.064  0.9971E-02  0.9274E-02  0.3942E+00  0.3932E+00
      0.243  0.1820E-01  0.1749E-01  0.3975E+00  0.3964E+00
      0.423  0.2069E-01  0.2813E-01  0.4012E+00  0.4014E+00
      0.602  0.1650E-01  0.1623E-01  0.4042E+00  0.4043E+00
      0.782  0.1531E-01  0.8754E-02  0.4069E+00  0.4059E+00
      0.961  0.1658E-01  0.1548E-01  0.4099E+00  0.4087E+00
      1.141  0.8885E-02  0.1435E-01  0.4115E+00  0.4113E+00
      1.320  0.1834E-01  0.1580E-01  0.4148E+00  0.4141E+00
      1.500  0.1579E-01  0.1868E-01  0.4176E+00  0.4175E+00
      1.680  0.2368E-01  0.2005E-01  0.4219E+00  0.4211E+00
      1.859  0.2549E-01  0.2496E-01  0.4264E+00  0.4255E+00
      2.039  0.3656E-01  0.3550E-01  0.4330E+00  0.4319E+00
      2.218  0.3206E-01  0.2931E-01  0.4388E+00  0.4372E+00
      2.398  0.1732E-01  0.1715E-01  0.4419E+00  0.4403E+00
      2.577  0.3744E-01  0.3945E-01  0.4486E+00  0.4473E+00
      2.757  0.4797E-01  0.5430E-01  0.4572E+00  0.4571E+00
      2.936  0.1519E-01  0.1584E-01  0.4599E+00  0.4599E+00
      3.116  0.3512E-03  0.4203E-03  0.4600E+00  0.4600E+00
      3.295  0.7218E-07  0.8698E-07  0.4600E+00  0.4600E+00
      3.475  0.3851E-13  0.4807E-13  0.4600E+00  0.4600E+00
      3.654  0.0000E+00  0.0000E+00  0.4600E+00  0.4600E+00
      3.834  0.0000E+00  0.0000E+00  0.4600E+00  0.4600E+00
      4.014  0.0000E+00  0.0000E+00  0.4600E+00  0.4600E+00
      4.193  0.0000E+00  0.0000E+00  0.4600E+00  0.4600E+00
      4.373  0.0000E+00  0.0000E+00  0.4600E+00  0.4600E+00
      4.552  0.0000E+00  0.0000E+00  0.4600E+00  0.4600E+00
      4.732  0.0000E+00  0.0000E+00  0.4600E+00  0.4600E+00
      4.911  0.0000E+00  0.0000E+00  0.4600E+00  0.4600E+00
      5.091  0.0000E+00  0.0000E+00  0.4600E+00  0.4600E+00
      5.270  0.0000E+00  0.0000E+00  0.4600E+00  0.4600E+00
