       N       E                     dE             d eps       ncg     rms          rms(c)
DAV:   1     0.273584980709E+04    0.27358E+04   -0.11740E+05  3256   0.127E+03
DAV:   2    -0.173196151906E+03   -0.29090E+04   -0.27800E+04  4304   0.295E+02
DAV:   3    -0.684626062131E+03   -0.51143E+03   -0.50854E+03  3552   0.129E+02
DAV:   4    -0.704049093714E+03   -0.19423E+02   -0.19276E+02  3536   0.312E+01
DAV:   5    -0.704676942862E+03   -0.62785E+00   -0.62588E+00  4048   0.481E+00    0.466E+01
RMM:   6    -0.732500916226E+03   -0.27824E+02   -0.53209E+02  4066   0.394E+01    0.843E+01
RMM:   7    -0.662602178049E+03    0.69899E+02   -0.56730E+01  3059   0.138E+01    0.318E+01
RMM:   8    -0.662364208020E+03    0.23797E+00   -0.21170E+01  3135   0.707E+00    0.283E+01
RMM:   9    -0.647233690014E+03    0.15131E+02   -0.20230E+01  2971   0.845E+00    0.107E+01
RMM:  10    -0.647888651389E+03   -0.65496E+00   -0.26963E+00  3005   0.297E+00    0.138E+01
RMM:  11    -0.646779361326E+03    0.11093E+01   -0.39066E-01  3119   0.995E-01    0.713E+00
RMM:  12    -0.646943933387E+03   -0.16457E+00   -0.18551E-01  2946   0.908E-01    0.653E+00
RMM:  13    -0.646901407192E+03    0.42526E-01   -0.18663E-02  3067   0.336E-01    0.690E+00
RMM:  14    -0.646964505530E+03   -0.63098E-01   -0.15326E-01  3024   0.522E-01    0.542E+00
RMM:  15    -0.647016977694E+03   -0.52472E-01   -0.13057E-01  2995   0.459E-01    0.494E+00
RMM:  16    -0.646858300706E+03    0.15868E+00   -0.29776E-01  2983   0.836E-01    0.245E+00
RMM:  17    -0.646976065638E+03   -0.11776E+00   -0.57552E-02  3049   0.363E-01    0.173E+00
RMM:  18    -0.647062164755E+03   -0.86099E-01   -0.52015E-02  3014   0.337E-01    0.110E+00
RMM:  19    -0.647184002628E+03   -0.12184E+00   -0.60923E-02  2948   0.283E-01    0.870E-01
RMM:  20    -0.647241123516E+03   -0.57121E-01   -0.56540E-02  2978   0.203E-01    0.673E-01
RMM:  21    -0.647233309290E+03    0.78142E-02   -0.12201E-02  3012   0.147E-01    0.690E-01
RMM:  22    -0.647240367297E+03   -0.70580E-02   -0.23870E-03  3013   0.557E-02    0.634E-01
RMM:  23    -0.647243247361E+03   -0.28801E-02   -0.67150E-04  2399   0.286E-02    0.624E-01
RMM:  24    -0.647242442095E+03    0.80527E-03   -0.15969E-04  2248   0.173E-02    0.665E-01
RMM:  25    -0.647257872581E+03   -0.15430E-01   -0.89720E-03  2983   0.139E-01    0.363E-01
RMM:  26    -0.647251885584E+03    0.59870E-02   -0.34265E-03  2999   0.804E-02    0.332E-01
RMM:  27    -0.647249579746E+03    0.23058E-02   -0.40388E-04  2508   0.288E-02    0.197E-01
RMM:  28    -0.647256413283E+03   -0.68335E-02   -0.37572E-04  2329   0.261E-02    0.126E-01
RMM:  29    -0.647264176751E+03   -0.77635E-02   -0.69837E-04  2425   0.325E-02    0.999E-02
RMM:  30    -0.647267756094E+03   -0.35793E-02   -0.25902E-04  2226   0.179E-02    0.770E-02
RMM:  31    -0.647269592770E+03   -0.18367E-02   -0.17331E-04  2213   0.150E-02    0.460E-02
RMM:  32    -0.647270269027E+03   -0.67626E-03   -0.11735E-04  2162   0.120E-02    0.219E-02
RMM:  33    -0.647270621450E+03   -0.35242E-03   -0.25519E-05  1890   0.632E-03    0.193E-02
RMM:  34    -0.647270819574E+03   -0.19812E-03   -0.95711E-06  1419   0.432E-03    0.148E-02
RMM:  35    -0.647271050294E+03   -0.23072E-03   -0.11810E-05  1493   0.405E-03    0.848E-03
RMM:  36    -0.647271120347E+03   -0.70053E-04   -0.53359E-06  1240   0.276E-03    0.545E-03
RMM:  37    -0.647271139714E+03   -0.19367E-04   -0.33859E-06  1147   0.241E-03    0.340E-03
RMM:  38    -0.647271148720E+03   -0.90063E-05   -0.81839E-07   928   0.179E-03
   1 F= -.65366484E+03 E0= -.65364344E+03  d E =-.653665E+03  mag=     1.4859
       N       E                     dE             d eps       ncg     rms          rms(c)
DAV:   1    -0.647265592325E+03    0.55474E-02   -0.13978E+01  3208   0.102E+01    0.116E+00
RMM:   2    -0.647284571994E+03   -0.18980E-01   -0.39553E-01  3088   0.156E+00    0.104E+00
RMM:   3    -0.647280385776E+03    0.41862E-02   -0.59072E-02  3209   0.480E-01    0.107E+00
RMM:   4    -0.647266456421E+03    0.13929E-01   -0.20002E-02  3010   0.283E-01    0.295E-01
RMM:   5    -0.647265485181E+03    0.97124E-03   -0.41538E-03  3006   0.132E-01    0.120E-01
RMM:   6    -0.647266952951E+03   -0.14678E-02   -0.49835E-04  3123   0.485E-02    0.503E-02
RMM:   7    -0.647268444516E+03   -0.14916E-02   -0.12829E-04  2721   0.196E-02    0.255E-02
RMM:   8    -0.647269522298E+03   -0.10778E-02   -0.46605E-05  2021   0.110E-02    0.135E-02
RMM:   9    -0.647270154311E+03   -0.63201E-03   -0.24223E-05  1965   0.722E-03    0.666E-03
RMM:  10    -0.647270418792E+03   -0.26448E-03   -0.10394E-05  1824   0.457E-03    0.316E-03
RMM:  11    -0.647270499042E+03   -0.80249E-04   -0.38941E-06  1288   0.284E-03    0.175E-03
RMM:  12    -0.647270537844E+03   -0.38803E-04   -0.35259E-06  1401   0.262E-03    0.977E-04
RMM:  13    -0.647270547854E+03   -0.10010E-04   -0.11092E-06  1001   0.185E-03    0.659E-04
RMM:  14    -0.647270557035E+03   -0.91802E-05   -0.93561E-07   987   0.172E-03
   2 F= -.65367194E+03 E0= -.65365762E+03  d E =-.710026E-02  mag=     1.3889
       N       E                     dE             d eps       ncg     rms          rms(c)
DAV:   1    -0.647313032896E+03   -0.42485E-01   -0.31974E+00  3168   0.485E+00    0.536E-01
RMM:   2    -0.647317476712E+03   -0.44438E-02   -0.86311E-02  3063   0.734E-01    0.526E-01
RMM:   3    -0.647315742967E+03    0.17337E-02   -0.13113E-02  3182   0.229E-01    0.470E-01
RMM:   4    -0.647312760224E+03    0.29827E-02   -0.47746E-03  2997   0.139E-01    0.125E-01
RMM:   5    -0.647312566290E+03    0.19393E-03   -0.72300E-04  3009   0.564E-02    0.532E-02
RMM:   6    -0.647312856505E+03   -0.29021E-03   -0.89115E-05  2845   0.201E-02    0.215E-02
RMM:   7    -0.647313193607E+03   -0.33710E-03   -0.25411E-05  1862   0.949E-03    0.118E-02
RMM:   8    -0.647313461469E+03   -0.26786E-03   -0.13739E-05  1801   0.640E-03    0.522E-03
RMM:   9    -0.647313623214E+03   -0.16174E-03   -0.75510E-06  1783   0.398E-03    0.290E-03
RMM:  10    -0.647313713594E+03   -0.90381E-04   -0.46587E-06  1335   0.279E-03    0.142E-03
RMM:  11    -0.647313744925E+03   -0.31331E-04   -0.20334E-06  1094   0.215E-03    0.813E-04
RMM:  12    -0.647313754175E+03   -0.92497E-05   -0.11252E-06   999   0.187E-03
   3 F= -.65371165E+03 E0= -.65369446E+03  d E =-.468134E-01  mag=     1.4236
       N       E                     dE             d eps       ncg     rms          rms(c)
DAV:   1    -0.647322204865E+03   -0.84599E-02   -0.32065E+00  3208   0.545E+00    0.519E-01
RMM:   2    -0.647332846927E+03   -0.10642E-01   -0.13513E-01  3040   0.855E-01    0.394E-01
RMM:   3    -0.647331527249E+03    0.13197E-02   -0.99887E-03  3458   0.211E-01    0.362E-01
RMM:   4    -0.647330326625E+03    0.12006E-02   -0.33337E-03  3177   0.104E-01    0.253E-01
RMM:   5    -0.647329516672E+03    0.80995E-03   -0.13634E-03  2954   0.743E-02    0.790E-02
RMM:   6    -0.647329848875E+03   -0.33220E-03   -0.16348E-04  2884   0.304E-02    0.261E-02
RMM:   7    -0.647330371354E+03   -0.52248E-03   -0.57545E-05  2182   0.134E-02    0.158E-02
RMM:   8    -0.647330699413E+03   -0.32806E-03   -0.15695E-05  1847   0.774E-03    0.727E-03
RMM:   9    -0.647330984997E+03   -0.28558E-03   -0.98015E-06  1813   0.502E-03    0.370E-03
RMM:  10    -0.647331119668E+03   -0.13467E-03   -0.46042E-06  1481   0.321E-03    0.191E-03
RMM:  11    -0.647331168825E+03   -0.49157E-04   -0.19011E-06  1139   0.221E-03    0.120E-03
RMM:  12    -0.647331193665E+03   -0.24840E-04   -0.13981E-06  1050   0.201E-03    0.851E-04
RMM:  13    -0.647331196204E+03   -0.25384E-05   -0.56088E-07   797   0.169E-03
   4 F= -.65373187E+03 E0= -.65371749E+03  d E =-.202152E-01  mag=     1.3857
       N       E                     dE             d eps       ncg     rms          rms(c)
DAV:   1    -0.647331288942E+03   -0.95277E-04   -0.29138E-03  3360   0.164E-01    0.153E-02
RMM:   2    -0.647331298260E+03   -0.93179E-05   -0.12148E-04  2617   0.259E-02    0.125E-02
RMM:   3    -0.647331297716E+03    0.54450E-06   -0.87378E-06  1751   0.750E-03
   5 F= -.65373189E+03 E0= -.65371744E+03  d E =-.202380E-01  mag=     1.3861
       N       E                     dE             d eps       ncg     rms          rms(c)
DAV:   1    -0.647332242602E+03   -0.94434E-03   -0.28612E+00  3288   0.552E+00    0.520E-01
RMM:   2    -0.647349605235E+03   -0.17363E-01   -0.17325E-01  3022   0.798E-01    0.707E-01
RMM:   3    -0.647343670854E+03    0.59344E-02   -0.14876E-02  3419   0.231E-01    0.297E-01
RMM:   4    -0.647342868348E+03    0.80251E-03   -0.15988E-03  3139   0.803E-02    0.157E-01
RMM:   5    -0.647342515320E+03    0.35303E-03   -0.68746E-04  3005   0.509E-02    0.725E-02
RMM:   6    -0.647342679592E+03   -0.16427E-03   -0.15172E-04  2973   0.272E-02    0.204E-02
RMM:   7    -0.647342939550E+03   -0.25996E-03   -0.22122E-05  1896   0.927E-03    0.109E-02
RMM:   8    -0.647343135613E+03   -0.19606E-03   -0.93471E-06  1792   0.634E-03    0.658E-03
RMM:   9    -0.647343280085E+03   -0.14447E-03   -0.52987E-06  1774   0.433E-03    0.300E-03
RMM:  10    -0.647343342554E+03   -0.62469E-04   -0.21649E-06  1287   0.267E-03    0.155E-03
RMM:  11    -0.647343386789E+03   -0.44235E-04   -0.15721E-06  1080   0.209E-03    0.989E-04
RMM:  12    -0.647343402694E+03   -0.15906E-04   -0.73206E-07   883   0.179E-03    0.657E-04
RMM:  13    -0.647343407759E+03   -0.50649E-05   -0.69339E-07   814   0.170E-03
   6 F= -.65374445E+03 E0= -.65372890E+03  d E =-.125580E-01  mag=     1.3453
       N       E                     dE             d eps       ncg     rms          rms(c)
DAV:   1    -0.647343404889E+03   -0.21950E-05   -0.96690E-04  3480   0.101E-01    0.954E-03
RMM:   2    -0.647343413460E+03   -0.85706E-05   -0.55615E-05  1883   0.148E-02
   7 F= -.65374446E+03 E0= -.65372888E+03  d E =-.125702E-01  mag=     1.3452
       N       E                     dE             d eps       ncg     rms          rms(c)
DAV:   1    -0.647342644235E+03    0.76065E-03   -0.12211E+00  3360   0.373E+00    0.326E-01
RMM:   2    -0.647349978801E+03   -0.73346E-02   -0.77894E-02  3000   0.497E-01    0.296E-01
RMM:   3    -0.647348761981E+03    0.12168E-02   -0.60418E-03  3427   0.145E-01    0.251E-01
RMM:   4    -0.647348215778E+03    0.54620E-03   -0.85754E-04  3111   0.542E-02    0.987E-02
RMM:   5    -0.647348093477E+03    0.12230E-03   -0.21896E-04  3036   0.292E-02    0.490E-02
RMM:   6    -0.647348137067E+03   -0.43591E-04   -0.65856E-05  2259   0.184E-02    0.124E-02
RMM:   7    -0.647348220942E+03   -0.83875E-04   -0.92129E-06  1792   0.758E-03    0.628E-03
RMM:   8    -0.647348289195E+03   -0.68253E-04   -0.36857E-06  1766   0.459E-03    0.392E-03
RMM:   9    -0.647348342306E+03   -0.53111E-04   -0.18356E-06  1485   0.302E-03    0.167E-03
RMM:  10    -0.647348378391E+03   -0.36085E-04   -0.10808E-06  1125   0.219E-03    0.932E-04
RMM:  11    -0.647348393197E+03   -0.14806E-04   -0.62927E-07   842   0.177E-03    0.587E-04
RMM:  12    -0.647348397274E+03   -0.40771E-05   -0.30487E-07   674   0.158E-03
   8 F= -.65374978E+03 E0= -.65373484E+03  d E =-.531643E-02  mag=     1.3310
       N       E                     dE             d eps       ncg     rms          rms(c)
DAV:   1    -0.647348404748E+03   -0.11551E-04   -0.25025E-04  3432   0.536E-02    0.465E-03
RMM:   2    -0.647348407586E+03   -0.28374E-05   -0.14894E-05  1763   0.733E-03
   9 F= -.65374978E+03 E0= -.65373484E+03  d E =-.532254E-02  mag=     1.3311
       N       E                     dE             d eps       ncg     rms          rms(c)
DAV:   1    -0.647348111928E+03    0.29282E-03   -0.78662E-01  3256   0.286E+00    0.238E-01
RMM:   2    -0.647351247026E+03   -0.31351E-02   -0.36287E-02  3000   0.382E-01    0.202E-01
RMM:   3    -0.647350807233E+03    0.43979E-03   -0.28993E-03  3486   0.106E-01    0.183E-01
RMM:   4    -0.647350496826E+03    0.31041E-03   -0.57291E-04  3071   0.447E-02    0.814E-02
RMM:   5    -0.647350391730E+03    0.10510E-03   -0.16462E-04  2959   0.262E-02    0.324E-02
RMM:   6    -0.647350422585E+03   -0.30855E-04   -0.27788E-05  1896   0.128E-02    0.913E-03
RMM:   7    -0.647350462986E+03   -0.40400E-04   -0.56426E-06  1777   0.614E-03    0.466E-03
RMM:   8    -0.647350495389E+03   -0.32403E-04   -0.21658E-06  1737   0.362E-03    0.254E-03
RMM:   9    -0.647350525338E+03   -0.29949E-04   -0.10752E-06  1217   0.238E-03    0.112E-03
RMM:  10    -0.647350540134E+03   -0.14796E-04   -0.57657E-07   921   0.191E-03    0.620E-04
RMM:  11    -0.647350546592E+03   -0.64581E-05   -0.33119E-07   704   0.162E-03
  10 F= -.65375231E+03 E0= -.65373805E+03  d E =-.252613E-02  mag=     1.3240
       N       E                     dE             d eps       ncg     rms          rms(c)
DAV:   1    -0.647350636028E+03   -0.95893E-04   -0.19904E-02  3416   0.455E-01    0.378E-02
RMM:   2    -0.647350710843E+03   -0.74815E-04   -0.92011E-04  3002   0.609E-02    0.342E-02
RMM:   3    -0.647350701309E+03    0.95335E-05   -0.69950E-05  2057   0.170E-02
  11 F= -.65375241E+03 E0= -.65373803E+03  d E =-.262317E-02  mag=     1.3243
       N       E                     dE             d eps       ncg     rms          rms(c)
DAV:   1    -0.647350884203E+03   -0.17336E-03   -0.21050E-01  3232   0.135E+00    0.104E-01
RMM:   2    -0.647351281273E+03   -0.39707E-03   -0.53772E-03  2998   0.180E-01    0.798E-02
RMM:   3    -0.647351257386E+03    0.23888E-04   -0.46541E-04  3467   0.455E-02    0.772E-02
RMM:   4    -0.647351204457E+03    0.52928E-04   -0.14971E-04  2522   0.225E-02    0.470E-02
RMM:   5    -0.647351174838E+03    0.29619E-04   -0.44590E-05  2024   0.152E-02    0.129E-02
RMM:   6    -0.647351184185E+03   -0.93471E-05   -0.56745E-06  1765   0.734E-03
  12 F= -.65375333E+03 E0= -.65373894E+03  d E =-.920833E-03  mag=     1.3208
       N       E                     dE             d eps       ncg     rms          rms(c)
DAV:   1    -0.647351246472E+03   -0.71633E-04   -0.21026E-03  3376   0.135E-01    0.107E-02
RMM:   2    -0.647351258103E+03   -0.11631E-04   -0.45564E-05  2070   0.174E-02    0.684E-03
RMM:   3    -0.647351264454E+03   -0.63516E-05   -0.48744E-06  1701   0.626E-03
  13 F= -.65375336E+03 E0= -.65373898E+03  d E =-.958316E-03  mag=     1.3205
