       N       E                     dE             d eps       ncg     rms          rms(c)
DAV:   1     0.252253251023E+04    0.25225E+04   -0.11230E+05  4392   0.107E+03
DAV:   2    -0.244010246176E+03   -0.27665E+04   -0.26420E+04  5480   0.279E+02
DAV:   3    -0.700481168780E+03   -0.45647E+03   -0.45240E+03  4576   0.120E+02
DAV:   4    -0.716976826484E+03   -0.16496E+02   -0.16353E+02  4640   0.281E+01
DAV:   5    -0.717521348713E+03   -0.54452E+00   -0.54277E+00  5328   0.425E+00    0.481E+01
DAV:   6    -0.712641291580E+03    0.48801E+01   -0.69683E+01  4792   0.312E+01    0.734E+01
DAV:   7    -0.676076044725E+03    0.36565E+02   -0.73611E+01  5328   0.595E+01    0.257E+01
DAV:   8    -0.670236140045E+03    0.58399E+01   -0.35327E+01  4968   0.142E+01    0.242E+01
DAV:   9    -0.664824846470E+03    0.54113E+01   -0.22961E+01  4592   0.142E+01    0.140E+01
DAV:  10    -0.663911726853E+03    0.91312E+00   -0.89353E+00  5216   0.104E+01    0.712E+00
DAV:  11    -0.663684388296E+03    0.22734E+00   -0.81901E-01  4992   0.307E+00    0.499E+00
DAV:  12    -0.663632518925E+03    0.51869E-01   -0.50440E-01  4472   0.194E+00    0.380E+00
DAV:  13    -0.663667186663E+03   -0.34668E-01   -0.14199E-01  4936   0.127E+00    0.235E+00
DAV:  14    -0.663672690905E+03   -0.55042E-02   -0.59174E-02  4896   0.942E-01    0.180E+00
DAV:  15    -0.663677314413E+03   -0.46235E-02   -0.23330E-02  4672   0.424E-01    0.141E+00
DAV:  16    -0.663675249330E+03    0.20651E-02   -0.59873E-03  4752   0.226E-01    0.933E-01
DAV:  17    -0.663674966506E+03    0.28282E-03   -0.18798E-03  4448   0.874E-02    0.765E-01
DAV:  18    -0.663674903840E+03    0.62666E-04   -0.62311E-04  3848   0.566E-02
   1 F= -.67025429E+03 E0= -.67025429E+03  d E =0.000000E+00  mag=     0.9956
