 vasp.5.4.4.18Apr17-6-g9f103f2a35 (build Jan 14 2022 15:04:31) complex          
  
 executed on             LinuxIFC date 2023.01.27  22:53:25
 running on   48 total cores
 distrk:  each k-point on   48 cores,    1 groups
 distr:  one band on NCORES_PER_BAND=  12 cores,    4 groups


--------------------------------------------------------------------------------------------------------


 INCAR:
 POTCAR:    PAW_PBE C 08Apr2002                   
 POTCAR:    PAW_PBE N 08Apr2002                   
 POTCAR:    PAW_PBE C 08Apr2002                   
 POTCAR:    PAW_PBE Cr_pv 02Aug2007               
 POTCAR:    PAW_PBE C 08Apr2002                   
 POTCAR:    PAW_PBE O 08Apr2002                   
 POTCAR:    PAW_PBE C 08Apr2002                   
   SHA256 =  253f7b50bb8d59471dbedb8285d89021f4a42ed1a2c5d38a03a736e69125dd95 C/
   COPYR  = (c) Copyright 08Apr2002 Georg Kresse                                
   COPYR  = This file is part of the software VASP. Any use, copying, and all ot
   COPYR  = If you do not have a valid VASP license, you may not use, copy or di
   VRHFIN =C: s2p2                                                              
   LEXCH  = PE                                                                  
   EATOM  =   147.1560 eV,   10.8157 Ry                                         
                                                                                
   TITEL  = PAW_PBE C 08Apr2002                                                 
   LULTRA =        F    use ultrasoft PP ?                                      
   IUNSCR =        1    unscreen: 0-lin 1-nonlin 2-no                           
   RPACOR =    1.200    partial core radius                                     
   POMASS =   12.011; ZVAL   =    4.000    mass and valenz                      
   RCORE  =    1.500    outmost cutoff radius                                   
   RWIGS  =    1.630; RWIGS  =    0.863    wigner-seitz radius (au A)           
   ENMAX  =  400.000; ENMIN  =  300.000 eV                                      
   ICORE  =        2    local potential                                         
   LCOR   =        T    correct aug charges                                     
   LPAW   =        T    paw PP                                                  
   EAUG   =  644.873                                                            
   DEXC   =    0.000                                                            
   RMAX   =    1.529    core radius for proj-oper                               
   RAUG   =    1.300    factor for augmentation sphere                          
   RDEP   =    1.501    radius for radial grids                                 
   RDEPT  =    1.300    core radius for aug-charge                              
                                                                                
   Atomic configuration                                                         
    4 entries                                                                   
     n  l   j            E        occ.                                          
     1  0  0.50      -273.3789   2.0000                                         
     2  0  0.50       -13.7508   2.0000                                         
     2  1  0.50        -5.2854   2.0000                                         
     3  2  1.50        -5.4423   0.0000                                         
   Description                                                                  
     l       E           TYP  RCUT    TYP  RCUT                                 
     0    -13.7508458     23  1.200                                             
     0     -8.2022199     23  1.200                                             
     1     -5.2854383     23  1.500                                             
     1     34.0145650     23  1.500                                             
     2     -5.4423304      7  1.500                                             
  local pseudopotential read in
  partial core-charges read in
  partial kinetic energy density read in
  atomic valenz-charges read in
  non local Contribution for L=           0  read in
    real space projection operators read in
  non local Contribution for L=           0  read in
    real space projection operators read in
  non local Contribution for L=           1  read in
    real space projection operators read in
  non local Contribution for L=           1  read in
    real space projection operators read in
    PAW grid and wavefunctions read in
 
   number of l-projection  operators is LMAX  =           4
   number of lm-projection operators is LMMAX =           8
 
 POTCAR:    PAW_PBE N 08Apr2002                   
   SHA256 =  e053789ff3a61a86a1b75d8a110fcc91f86041011e7b0817c7c99e4e8a6349d7 N/
   COPYR  = (c) Copyright 08Apr2002 Georg Kresse                                
   COPYR  = This file is part of the software VASP. Any use, copying, and all ot
   COPYR  = If you do not have a valid VASP license, you may not use, copy or di
   VRHFIN =N: s2p3                                                              
   LEXCH  = PE                                                                  
   EATOM  =   264.5486 eV,   19.4438 Ry                                         
                                                                                
   TITEL  = PAW_PBE N 08Apr2002                                                 
   LULTRA =        F    use ultrasoft PP ?                                      
   IUNSCR =        1    unscreen: 0-lin 1-nonlin 2-no                           
   RPACOR =    1.200    partial core radius                                     
   POMASS =   14.001; ZVAL   =    5.000    mass and valenz                      
   RCORE  =    1.500    outmost cutoff radius                                   
   RWIGS  =    1.400; RWIGS  =    0.741    wigner-seitz radius (au A)           
   ENMAX  =  400.000; ENMIN  =  300.000 eV                                      
   ICORE  =        2    local potential                                         
   LCOR   =        T    correct aug charges                                     
   LPAW   =        T    paw PP                                                  
   EAUG   =  627.112                                                            
   DEXC   =    0.000                                                            
   RMAX   =    1.529    core radius for proj-oper                               
   RAUG   =    1.300    factor for augmentation sphere                          
   RDEP   =    1.514    radius for radial grids                                 
   RDEPT  =    1.338    core radius for aug-charge                              
                                                                                
   Atomic configuration                                                         
    4 entries                                                                   
     n  l   j            E        occ.                                          
     1  0  0.50      -384.7179   2.0000                                         
     2  0  0.50       -18.5828   2.0000                                         
     2  1  0.50        -7.0898   3.0000                                         
     3  2  1.50        -6.8029   0.0000                                         
   Description                                                                  
     l       E           TYP  RCUT    TYP  RCUT                                 
     0    -18.5828119     23  1.200                                             
     0    -13.5018863     23  1.200                                             
     1     -7.0897853     23  1.500                                             
     1      9.5240782     23  1.500                                             
     2     -6.8029130      7  1.500                                             
  local pseudopotential read in
  partial core-charges read in
  partial kinetic energy density read in
  atomic valenz-charges read in
  non local Contribution for L=           0  read in
    real space projection operators read in
  non local Contribution for L=           0  read in
    real space projection operators read in
  non local Contribution for L=           1  read in
    real space projection operators read in
  non local Contribution for L=           1  read in
    real space projection operators read in
    PAW grid and wavefunctions read in
 
   number of l-projection  operators is LMAX  =           4
   number of lm-projection operators is LMMAX =           8
 
 POTCAR:    PAW_PBE C 08Apr2002                   
   SHA256 =  253f7b50bb8d59471dbedb8285d89021f4a42ed1a2c5d38a03a736e69125dd95 C/
   COPYR  = (c) Copyright 08Apr2002 Georg Kresse                                
   COPYR  = This file is part of the software VASP. Any use, copying, and all ot
   COPYR  = If you do not have a valid VASP license, you may not use, copy or di
   VRHFIN =C: s2p2                                                              
   LEXCH  = PE                                                                  
   EATOM  =   147.1560 eV,   10.8157 Ry                                         
                                                                                
   TITEL  = PAW_PBE C 08Apr2002                                                 
   LULTRA =        F    use ultrasoft PP ?                                      
   IUNSCR =        1    unscreen: 0-lin 1-nonlin 2-no                           
   RPACOR =    1.200    partial core radius                                     
   POMASS =   12.011; ZVAL   =    4.000    mass and valenz                      
   RCORE  =    1.500    outmost cutoff radius                                   
   RWIGS  =    1.630; RWIGS  =    0.863    wigner-seitz radius (au A)           
   ENMAX  =  400.000; ENMIN  =  300.000 eV                                      
   ICORE  =        2    local potential                                         
   LCOR   =        T    correct aug charges                                     
   LPAW   =        T    paw PP                                                  
   EAUG   =  644.873                                                            
   DEXC   =    0.000                                                            
   RMAX   =    1.529    core radius for proj-oper                               
   RAUG   =    1.300    factor for augmentation sphere                          
   RDEP   =    1.501    radius for radial grids                                 
   RDEPT  =    1.300    core radius for aug-charge                              
                                                                                
   Atomic configuration                                                         
    4 entries                                                                   
     n  l   j            E        occ.                                          
     1  0  0.50      -273.3789   2.0000                                         
     2  0  0.50       -13.7508   2.0000                                         
     2  1  0.50        -5.2854   2.0000                                         
     3  2  1.50        -5.4423   0.0000                                         
   Description                                                                  
     l       E           TYP  RCUT    TYP  RCUT                                 
     0    -13.7508458     23  1.200                                             
     0     -8.2022199     23  1.200                                             
     1     -5.2854383     23  1.500                                             
     1     34.0145650     23  1.500                                             
     2     -5.4423304      7  1.500                                             
  local pseudopotential read in
  partial core-charges read in
  partial kinetic energy density read in
  atomic valenz-charges read in
  non local Contribution for L=           0  read in
    real space projection operators read in
  non local Contribution for L=           0  read in
    real space projection operators read in
  non local Contribution for L=           1  read in
    real space projection operators read in
  non local Contribution for L=           1  read in
    real space projection operators read in
    PAW grid and wavefunctions read in
 
   number of l-projection  operators is LMAX  =           4
   number of lm-projection operators is LMMAX =           8
 
 POTCAR:    PAW_PBE Cr_pv 02Aug2007               
   SHA256 =  c9a7df34d3cdbacf1090e328ef39c0b420964e11c23f63548d1ac9dd218cdba0 Cr
   COPYR  = (c) Copyright 02Aug2007 Georg Kresse                                
   COPYR  = This file is part of the software VASP. Any use, copying, and all ot
   COPYR  = If you do not have a valid VASP license, you may not use, copy or di
   VRHFIN =Cr : p6d5s1                                                          
   LEXCH  = PE                                                                  
   EATOM  =  1647.9177 eV,  121.1185 Ry                                         
                                                                                
   TITEL  = PAW_PBE Cr_pv 02Aug2007                                             
   LULTRA =        F    use ultrasoft PP ?                                      
   IUNSCR =        1    unscreen: 0-lin 1-nonlin 2-no                           
   RPACOR =    2.080    partial core radius                                     
   POMASS =   51.996; ZVAL   =   12.000    mass and valenz                      
   RCORE  =    2.300    outmost cutoff radius                                   
   RWIGS  =    2.500; RWIGS  =    1.323    wigner-seitz radius (au A)           
   ENMAX  =  265.681; ENMIN  =  199.261 eV                                      
   ICORE  =        3    local potential                                         
   LCOR   =        T    correct aug charges                                     
   LPAW   =        T    paw PP                                                  
   EAUG   =  519.424                                                            
   DEXC   =    0.000                                                            
   RMAX   =    2.356    core radius for proj-oper                               
   RAUG   =    1.300    factor for augmentation sphere                          
   RDEP   =    2.447    radius for radial grids                                 
   RDEPT  =    1.882    core radius for aug-charge                              
                                                                                
   Atomic configuration                                                         
    8 entries                                                                   
     n  l   j            E        occ.                                          
     1  0  0.50     -5880.4963   2.0000                                         
     2  0  0.50      -667.0865   2.0000                                         
     2  1  1.50      -560.6250   6.0000                                         
     3  0  0.50       -73.9860   2.0000                                         
     3  1  1.50       -45.4378   6.0000                                         
     3  2  2.50        -2.9137   5.0000                                         
     4  0  0.50        -4.0071   1.0000                                         
     4  3  2.50        -1.3606   0.0000                                         
   Description                                                                  
     l       E           TYP  RCUT    TYP  RCUT                                 
     1    -45.4377911     23  2.000                                             
     1      1.3605826     23  2.000                                             
     2     -2.9136672     23  2.300                                             
     2     -4.2742498     23  2.300                                             
     0     -4.0071320     23  2.300                                             
     0      9.4498803     23  2.300                                             
     3      2.7211652     23  2.300                                             
  local pseudopotential read in
  partial core-charges read in
  partial kinetic energy density read in
  atomic valenz-charges read in
  non local Contribution for L=           1  read in
    real space projection operators read in
  non local Contribution for L=           1  read in
    real space projection operators read in
  non local Contribution for L=           2  read in
    real space projection operators read in
  non local Contribution for L=           2  read in
    real space projection operators read in
  non local Contribution for L=           0  read in
    real space projection operators read in
  non local Contribution for L=           0  read in
    real space projection operators read in
    PAW grid and wavefunctions read in
 
   number of l-projection  operators is LMAX  =           6
   number of lm-projection operators is LMMAX =          18
 
 POTCAR:    PAW_PBE C 08Apr2002                   
   SHA256 =  253f7b50bb8d59471dbedb8285d89021f4a42ed1a2c5d38a03a736e69125dd95 C/
   COPYR  = (c) Copyright 08Apr2002 Georg Kresse                                
   COPYR  = This file is part of the software VASP. Any use, copying, and all ot
   COPYR  = If you do not have a valid VASP license, you may not use, copy or di
   VRHFIN =C: s2p2                                                              
   LEXCH  = PE                                                                  
   EATOM  =   147.1560 eV,   10.8157 Ry                                         
                                                                                
   TITEL  = PAW_PBE C 08Apr2002                                                 
   LULTRA =        F    use ultrasoft PP ?                                      
   IUNSCR =        1    unscreen: 0-lin 1-nonlin 2-no                           
   RPACOR =    1.200    partial core radius                                     
   POMASS =   12.011; ZVAL   =    4.000    mass and valenz                      
   RCORE  =    1.500    outmost cutoff radius                                   
   RWIGS  =    1.630; RWIGS  =    0.863    wigner-seitz radius (au A)           
   ENMAX  =  400.000; ENMIN  =  300.000 eV                                      
   ICORE  =        2    local potential                                         
   LCOR   =        T    correct aug charges                                     
   LPAW   =        T    paw PP                                                  
   EAUG   =  644.873                                                            
   DEXC   =    0.000                                                            
   RMAX   =    1.529    core radius for proj-oper                               
   RAUG   =    1.300    factor for augmentation sphere                          
   RDEP   =    1.501    radius for radial grids                                 
   RDEPT  =    1.300    core radius for aug-charge                              
                                                                                
   Atomic configuration                                                         
    4 entries                                                                   
     n  l   j            E        occ.                                          
     1  0  0.50      -273.3789   2.0000                                         
     2  0  0.50       -13.7508   2.0000                                         
     2  1  0.50        -5.2854   2.0000                                         
     3  2  1.50        -5.4423   0.0000                                         
   Description                                                                  
     l       E           TYP  RCUT    TYP  RCUT                                 
     0    -13.7508458     23  1.200                                             
     0     -8.2022199     23  1.200                                             
     1     -5.2854383     23  1.500                                             
     1     34.0145650     23  1.500                                             
     2     -5.4423304      7  1.500                                             
  local pseudopotential read in
  partial core-charges read in
  partial kinetic energy density read in
  atomic valenz-charges read in
  non local Contribution for L=           0  read in
    real space projection operators read in
  non local Contribution for L=           0  read in
    real space projection operators read in
  non local Contribution for L=           1  read in
    real space projection operators read in
  non local Contribution for L=           1  read in
    real space projection operators read in
    PAW grid and wavefunctions read in
 
   number of l-projection  operators is LMAX  =           4
   number of lm-projection operators is LMMAX =           8
 
 POTCAR:    PAW_PBE O 08Apr2002                   
   SHA256 =  818f92134a0a090dccd8ba1447fa70422a3b330e708bb4f08108d8ae51209ddf O/
   COPYR  = (c) Copyright 08Apr2002 Georg Kresse                                
   COPYR  = This file is part of the software VASP. Any use, copying, and all ot
   COPYR  = If you do not have a valid VASP license, you may not use, copy or di
   VRHFIN =O: s2p4                                                              
   LEXCH  = PE                                                                  
   EATOM  =   432.3788 eV,   31.7789 Ry                                         
                                                                                
   TITEL  = PAW_PBE O 08Apr2002                                                 
   LULTRA =        F    use ultrasoft PP ?                                      
   IUNSCR =        1    unscreen: 0-lin 1-nonlin 2-no                           
   RPACOR =    1.200    partial core radius                                     
   POMASS =   16.000; ZVAL   =    6.000    mass and valenz                      
   RCORE  =    1.520    outmost cutoff radius                                   
   RWIGS  =    1.550; RWIGS  =    0.820    wigner-seitz radius (au A)           
   ENMAX  =  400.000; ENMIN  =  300.000 eV                                      
   ICORE  =        2    local potential                                         
   LCOR   =        T    correct aug charges                                     
   LPAW   =        T    paw PP                                                  
   EAUG   =  605.392                                                            
   DEXC   =    0.000                                                            
   RMAX   =    1.553    core radius for proj-oper                               
   RAUG   =    1.300    factor for augmentation sphere                          
   RDEP   =    1.550    radius for radial grids                                 
   RDEPT  =    1.329    core radius for aug-charge                              
                                                                                
   Atomic configuration                                                         
    4 entries                                                                   
     n  l   j            E        occ.                                          
     1  0  0.50      -514.6923   2.0000                                         
     2  0  0.50       -23.9615   2.0000                                         
     2  1  0.50        -9.0305   4.0000                                         
     3  2  1.50        -9.5241   0.0000                                         
   Description                                                                  
     l       E           TYP  RCUT    TYP  RCUT                                 
     0    -23.9615318     23  1.200                                             
     0     -9.5240782     23  1.200                                             
     1     -9.0304911     23  1.520                                             
     1      8.1634956     23  1.520                                             
     2     -9.5240782      7  1.500                                             
  local pseudopotential read in
  partial core-charges read in
  partial kinetic energy density read in
  kinetic energy density of atom read in
  atomic valenz-charges read in
  non local Contribution for L=           0  read in
    real space projection operators read in
  non local Contribution for L=           0  read in
    real space projection operators read in
  non local Contribution for L=           1  read in
    real space projection operators read in
  non local Contribution for L=           1  read in
    real space projection operators read in
    PAW grid and wavefunctions read in
 
   number of l-projection  operators is LMAX  =           4
   number of lm-projection operators is LMMAX =           8
 

 ----------------------------------------------------------------------------- 
|                                                                             |
|  ADVICE TO THIS USER RUNNING 'VASP/VAMP'   (HEAR YOUR MASTER'S VOICE ...):  |
|                                                                             |
|      You have a (more or less) 'large supercell' and for larger cells       |
|      it might be more efficient to use real space projection opertators     |
|      So try LREAL= Auto  in the INCAR   file.                               |
|      Mind:          For very  accurate calculation you might also keep the  |
|      reciprocal projection scheme          (i.e. LREAL=.FALSE.)             |
|                                                                             |
 ----------------------------------------------------------------------------- 

  PAW_PBE C 08Apr2002                   :
 energy of atom  1       EATOM= -147.1560
 kinetic energy error for atom=    0.0132 (will be added to EATOM!!)
  PAW_PBE N 08Apr2002                   :
 energy of atom  2       EATOM= -264.5486
 kinetic energy error for atom=    0.0298 (will be added to EATOM!!)
  PAW_PBE C 08Apr2002                   :
 energy of atom  3       EATOM= -147.1560
 kinetic energy error for atom=    0.0132 (will be added to EATOM!!)
  PAW_PBE Cr_pv 02Aug2007               :
 energy of atom  4       EATOM=-1647.9177
 kinetic energy error for atom=    0.0134 (will be added to EATOM!!)
  PAW_PBE C 08Apr2002                   :
 energy of atom  5       EATOM= -147.1560
 kinetic energy error for atom=    0.0132 (will be added to EATOM!!)
  PAW_PBE O 08Apr2002                   :
 energy of atom  6       EATOM= -432.3788
 kinetic energy error for atom=    0.0458 (will be added to EATOM!!)
 
 
 POSCAR: POSCAR-clean                            
  positions in direct lattice
  velocities in cartesian coordinates
 exchange correlation table for  LEXCH =        8
   RHO(1)=    0.500       N(1)  =     2000
   RHO(2)=  100.500       N(2)  =     4000

 VTST: version 3.2, (02/03/18)

 CHAIN: initializing optimizer
 
 OPT: Using VASP Dynamics algorithm
 CHAIN: Read ICHAIN            0
 
 POSCAR: POSCAR-clean                            
  positions in direct lattice
  velocities in cartesian coordinates
 


--------------------------------------------------------------------------------------------------------


 ion  position               nearest neighbor table
   1  0.997  0.997  0.496-  60 1.42   2 1.43  70 1.43
   2  0.053  0.109  0.491-  13 1.42   1 1.43  15 1.43
   3  0.166  0.999  0.493-  62 1.42   4 1.43  60 1.43
   4  0.222  0.111  0.490-   3 1.43  17 1.43  15 1.43
   5  0.332  1.000  0.491-  62 1.42   6 1.43  64 1.43
   6  0.388  0.112  0.491-  17 1.42   5 1.43  19 1.43
   7  0.498  0.999  0.491-  64 1.42   8 1.42  66 1.43
   8  0.554  0.110  0.492-  21 1.42   7 1.42  19 1.43
   9  0.664  0.997  0.493-  10 1.42  66 1.43  68 1.43
  10  0.720  0.108  0.493-   9 1.42  23 1.42  21 1.43
  11  0.831  0.997  0.497-  12 1.42  68 1.43  70 1.43
  12  0.886  0.108  0.493-  11 1.42  23 1.42  13 1.43
  13  0.998  0.164  0.490-  14 1.42   2 1.42  12 1.43
  14  0.053  0.275  0.488-  13 1.42  27 1.43  25 1.43
  15  0.164  0.165  0.488-  16 1.41   2 1.43   4 1.43
  16  0.221  0.276  0.485-  15 1.41  27 1.43  29 1.44
  17  0.333  0.168  0.491-  18 1.41   6 1.42   4 1.43
  18  0.388  0.278  0.491-  17 1.41  29 1.41  31 1.43
  19  0.499  0.167  0.492-  20 1.42   6 1.43   8 1.43
  20  0.554  0.278  0.495-  19 1.42  33 1.43  31 1.45
  21  0.665  0.165  0.492-  22 1.41   8 1.42  10 1.43
  22  0.720  0.276  0.494-  21 1.41  33 1.43  35 1.43
  23  0.831  0.164  0.492-  24 1.42  10 1.42  12 1.42
  24  0.887  0.275  0.491-  23 1.42  35 1.42  25 1.42
  25  0.998  0.331  0.489-  26 1.42  24 1.42  14 1.43
  26  0.053  0.442  0.490-  25 1.42  37 1.42  39 1.42
  27  0.164  0.331  0.486-  28 1.42  14 1.43  16 1.43
  28  0.219  0.442  0.487-  41 1.42  27 1.42  39 1.42
  29  0.333  0.333  0.484-  30 1.39  18 1.41  16 1.44
  30  0.386  0.442  0.482-  29 1.39  41 1.43  71 1.94
  31  0.499  0.337  0.498-  32 1.42  18 1.43  20 1.45
  32  0.555  0.447  0.509-  31 1.42  43 1.43  71 2.04
  33  0.665  0.331  0.496-  34 1.42  20 1.43  22 1.43
  34  0.722  0.442  0.500-  43 1.41  33 1.42  45 1.43
  35  0.831  0.331  0.493-  36 1.42  24 1.42  22 1.43
  36  0.887  0.442  0.495-  35 1.42  37 1.42  45 1.42
  37  0.998  0.498  0.493-  36 1.42  26 1.42  38 1.42
  38  0.054  0.609  0.495-  47 1.42  49 1.42  37 1.42
  39  0.164  0.498  0.490-  40 1.42  26 1.42  28 1.42
  40  0.220  0.609  0.491-  39 1.42  51 1.42  49 1.42
  41  0.329  0.496  0.484-  28 1.42  30 1.43  42 1.44  71 2.51
  42  0.385  0.609  0.486-  51 1.42  53 1.43  41 1.44  71 2.50
  43  0.667  0.497  0.506-  34 1.41  44 1.42  32 1.43
  44  0.723  0.608  0.509-  57 1.41  43 1.42  55 1.43
  45  0.833  0.498  0.499-  46 1.42  36 1.42  34 1.43
  46  0.888  0.609  0.501-  45 1.42  47 1.42  57 1.42
  47  0.999  0.665  0.498-  38 1.42  48 1.42  46 1.42
  48  0.054  0.776  0.498-  47 1.42  61 1.42  59 1.43
  49  0.165  0.665  0.493-  50 1.42  38 1.42  40 1.42
  50  0.220  0.776  0.493-  49 1.42  61 1.42  63 1.43
  51  0.330  0.665  0.490-  40 1.42  42 1.42  52 1.42
  52  0.387  0.776  0.490-  51 1.42  65 1.42  63 1.42
  53  0.496  0.664  0.491-  54 1.40  42 1.43  71 1.90
  54  0.553  0.774  0.491-  53 1.40  67 1.43  65 1.44
  55  0.662  0.658  0.515-  44 1.43  56 1.44  71 2.04
  56  0.717  0.770  0.506-  67 1.43  55 1.44  69 1.45
  57  0.833  0.664  0.505-  44 1.41  58 1.42  46 1.42
  58  0.888  0.776  0.504-  57 1.42  69 1.42  59 1.42
  59  0.999  0.832  0.500-  60 1.42  58 1.42  48 1.43
  60  0.054  0.943  0.496-  59 1.42   1 1.42   3 1.43
  61  0.165  0.832  0.495-  48 1.42  50 1.42  62 1.43
  62  0.221  0.944  0.493-   3 1.42   5 1.42  61 1.43
  63  0.332  0.832  0.491-  64 1.42  52 1.42  50 1.43
  64  0.387  0.944  0.491-   7 1.42  63 1.42   5 1.43
  65  0.498  0.831  0.489-  66 1.42  52 1.42  54 1.44
  66  0.553  0.942  0.491-  65 1.42   9 1.43   7 1.43
  67  0.664  0.829  0.499-  68 1.43  54 1.43  56 1.43
  68  0.719  0.941  0.496-  67 1.43  11 1.43   9 1.43
  69  0.830  0.829  0.503-  58 1.42  70 1.43  56 1.45
  70  0.886  0.940  0.498-  69 1.43  11 1.43   1 1.43
  71  0.509  0.553  0.540-  53 1.90  72 1.90  30 1.94  55 2.04  32 2.04  42 2.50  41 2.51
  72  0.567  0.592  0.656-  73 1.17  71 1.90
  73  0.604  0.607  0.727-  72 1.17
 

IMPORTANT INFORMATION: All symmetrisations will be switched off!
NOSYMM: (Re-)initialisation of all symmetry stuff for point group C_1.

 
 
 KPOINTS: K-Points                                

Automatic generation of k-mesh.
Space group operators:
 irot       det(A)        alpha          n_x          n_y          n_z        tau_x        tau_y        tau_z
    1     1.000000     0.000000     1.000000     0.000000     0.000000     0.000000     0.000000     0.000000
 
 Subroutine IBZKPT returns following result:
 ===========================================
 
 Found      5 irreducible k-points:
 
 Following reciprocal coordinates:
            Coordinates               Weight
  0.000000  0.000000  0.000000      1.000000
  0.333333 -0.000000  0.000000      2.000000
  0.000000  0.333333  0.000000      2.000000
  0.333333  0.333333  0.000000      2.000000
 -0.333333  0.333333  0.000000      2.000000
 
 Following cartesian coordinates:
            Coordinates               Weight
  0.000000  0.000000  0.000000      1.000000
  0.022450  0.013075  0.000000      2.000000
  0.000000  0.026149  0.000000      2.000000
  0.022450  0.039224  0.000000      2.000000
 -0.022450  0.013075  0.000000      2.000000
 
 TETIRR: Found     24 inequivalent tetrahedra from       54


--------------------------------------------------------------------------------------------------------




 Dimension of arrays:
   k-points           NKPTS =      5   k-points in BZ     NKDIM =      5   number of bands    NBANDS=    192
   number of dos      NEDOS =   4000   number of ions     NIONS =     73
   non local maximal  LDIM  =      6   non local SUM 2l+1 LMDIM =     18
   total plane-waves  NPLWV = 512000
   max r-space proj   IRMAX =      1   max aug-charges    IRDMAX=   6474
   dimension x,y,z NGX =    80 NGY =   80 NGZ =   80
   dimension x,y,z NGXF=   160 NGYF=  160 NGZF=  160
   support grid    NGXF=   160 NGYF=  160 NGZF=  160
   ions per type =              17   1  52   1   1   1
   NGX,Y,Z   is equivalent  to a cutoff of   8.96,  9.02,  8.87 a.u.
   NGXF,Y,Z  is equivalent  to a cutoff of  17.91, 18.03, 17.73 a.u.

 SYSTEM =  unknown system                          
 POSCAR =  POSCAR-clean                            

 Startparameter for this run:
   NWRITE =      2    write-flag & timer
   PREC   = normal    normal or accurate (medium, high low for compatibility)
   ISTART =      0    job   : 0-new  1-cont  2-samecut
   ICHARG =      2    charge: 1-file 2-atom 10-const
   ISPIN  =      2    spin polarized calculation?
   LNONCOLLINEAR =      F non collinear calculations
   LSORBIT =      F    spin-orbit coupling
   INIWAV =      1    electr: 0-lowe 1-rand  2-diag
   LASPH  =      F    aspherical Exc in radial PAW
   METAGGA=      F    non-selfconsistent MetaGGA calc.

 Electronic Relaxation 1
   ENCUT  =  440.0 eV  32.34 Ry    5.69 a.u.  25.40 25.23 25.66*2*pi/ulx,y,z
   ENINI  =  440.0     initial cutoff
   ENAUG  =  644.9 eV  augmentation charge cutoff
   NELM   =    100;   NELMIN=  2; NELMDL= -5     # of ELM steps 
   EDIFF  = 0.1E-03   stopping-criterion for ELM
   LREAL  =      F    real-space projection
   NLSPLINE    = F    spline interpolate recip. space projectors
   LCOMPAT=      F    compatible to vasp.4.4
   GGA_COMPAT  = T    GGA compatible to vasp.4.4-vasp.4.6
   LMAXPAW     = -100 max onsite density
   LMAXMIX     =    2 max onsite mixed and CHGCAR
   VOSKOWN=      0    Vosko Wilk Nusair interpolation
   ROPT   =    0.00000   0.00000   0.00000   0.00000
   ROPT   =    0.00000   0.00000
 Ionic relaxation
   EDIFFG = -.1E-01   stopping-criterion for IOM
   NSW    =      0    number of steps for IOM
   NBLOCK =      1;   KBLOCK =      1    inner block; outer block 
   IBRION =     -1    ionic relax: 0-MD 1-quasi-New 2-CG
   NFREE  =      0    steps in history (QN), initial steepest desc. (CG)
   ISIF   =      2    stress and relaxation
   IWAVPR =     10    prediction:  0-non 1-charg 2-wave 3-comb
   ISYM   =      0    0-nonsym 1-usesym 2-fastsym
   LCORR  =      T    Harris-Foulkes like correction to forces

   POTIM  = 0.5000    time-step for ionic-motion
   TEIN   =    0.0    initial temperature
   TEBEG  =    0.0;   TEEND  =   0.0 temperature during run
   SMASS  =  -3.00    Nose mass-parameter (am)
   estimated Nose-frequenzy (Omega)   =  0.10E-29 period in steps =****** mass=  -0.504E-26a.u.
   SCALEE = 1.0000    scale energy and forces
   NPACO  =    256;   APACO  = 16.0  distance and # of slots for P.C.
   PSTRESS=    0.0 pullay stress

  Mass of Ions in am
   POMASS =  12.01 14.00 12.01 52.00 12.01 16.00
  Ionic Valenz
   ZVAL   =   4.00  5.00  4.00 12.00  4.00  6.00
  Atomic Wigner-Seitz radii
   RWIGS  =  -1.00 -1.00 -1.00 -1.00 -1.00 -1.00
  virtual crystal weights 
   VCA    =   1.00  1.00  1.00  1.00  1.00  1.00
   NELECT =     303.0000    total number of electrons
   NUPDOWN=      -1.0000    fix difference up-down

 DOS related values:
   EMIN   = -14.00;   EMAX   =  6.00  energy-range for DOS
   EFERMI =   0.00
   ISMEAR =    -5;   SIGMA  =   0.20  broadening in eV -4-tet -1-fermi 0-gaus

 Electronic relaxation 2 (details)
   IALGO  =     38    algorithm
   LDIAG  =      T    sub-space diagonalisation (order eigenvalues)
   LSUBROT=      F    optimize rotation matrix (better conditioning)
   TURBO    =      0    0=normal 1=particle mesh
   IRESTART =      0    0=no restart 2=restart with 2 vectors
   NREBOOT  =      0    no. of reboots
   NMIN     =      0    reboot dimension
   EREF     =   0.00    reference energy to select bands
   IMIX   =      4    mixing-type and parameters
     AMIX     =   0.25;   BMIX     =  0.00
     AMIX_MAG =   1.00;   BMIX_MAG =  0.00
     AMIN     =   0.10
     WC   =   100.;   INIMIX=   1;  MIXPRE=   1;  MAXMIX= -45

 Intra band minimization:
   WEIMIN = 0.0000     energy-eigenvalue tresh-hold
   EBREAK =  0.13E-06  absolut break condition
   DEPER  =   0.30     relativ break condition  

   TIME   =   0.40     timestep for ELM

  volume/ion in A,a.u.               =      38.89       262.46
  Fermi-wavevector in a.u.,A,eV,Ry     =   0.776536  1.467440  8.204419  0.603008
  Thomas-Fermi vector in A             =   1.879034
 
 Write flags
   LWAVE        =      F    write WAVECAR
   LDOWNSAMPLE  =      F    k-point downsampling of WAVECAR
   LCHARG       =      F    write CHGCAR
   LVTOT        =      F    write LOCPOT, total local potential
   LVHAR        =      F    write LOCPOT, Hartree potential only
   LELF         =      F    write electronic localiz. function (ELF)
   LORBIT       =     11    0 simple, 1 ext, 2 COOP (PROOUT), +10 PAW based schemes


 Dipole corrections
   LMONO  =      F    monopole corrections only (constant potential shift)
   LDIPOL =      F    correct potential (dipole corrections)
   IDIPOL =      0    1-x, 2-y, 3-z, 4-all directions 
   EPSILON=  1.0000000 bulk dielectric constant

 Exchange correlation treatment:
   GGA     =    --    GGA type
   LEXCH   =     8    internal setting for exchange type
   VOSKOWN=      0    Vosko Wilk Nusair interpolation
   LHFCALC =     F    Hartree Fock is set to
   LHFONE  =     F    Hartree Fock one center treatment
   AEXX    =    0.0000 exact exchange contribution

 Linear response parameters
   LEPSILON=     F    determine dielectric tensor
   LRPA    =     F    only Hartree local field effects (RPA)
   LNABLA  =     F    use nabla operator in PAW spheres
   LVEL    =     F    velocity operator in full k-point grid
   LINTERFAST=   F  fast interpolation
   KINTER  =     0    interpolate to denser k-point grid
   CSHIFT  =0.1000    complex shift for real part using Kramers Kronig
   OMEGAMAX=  -1.0    maximum frequency
   DEG_THRESHOLD= 0.2000000E-02 threshold for treating states as degnerate
   RTIME   =   -0.100 relaxation time in fs
  (WPLASMAI=    0.000 imaginary part of plasma frequency in eV, 0.658/RTIME)
   DFIELD  = 0.0000000 0.0000000 0.0000000 field for delta impulse in time
 
 Orbital magnetization related:
   ORBITALMAG=     F  switch on orbital magnetization
   LCHIMAG   =     F  perturbation theory with respect to B field
   DQ        =  0.001000  dq finite difference perturbation B field
   LLRAUG    =     F  two centre corrections for induced B field



--------------------------------------------------------------------------------------------------------


 Static calculation
 charge density and potential will be updated during run
 spin polarized calculation
 Variant of blocked Davidson
 Davidson routine will perform the subspace rotation
 perform sub-space diagonalisation
    after iterative eigenvector-optimisation
 modified Broyden-mixing scheme, WC =      100.0
 initial mixing is a Kerker type mixing with AMIX =  0.2500 and BMIX =      0.0001
 Hartree-type preconditioning will be used
 using additional bands           40
 reciprocal scheme for non local part
 use partial core corrections
 calculate Harris-corrections to forces 
   (improved forces if not selfconsistent)
 use gradient corrections 
 use of overlap-Matrix (Vanderbilt PP)
 Fermi weights with tetrahedron method with Bloechl corrections


--------------------------------------------------------------------------------------------------------


  energy-cutoff  :      440.00
  volume of cell :     2839.11
      direct lattice vectors                 reciprocal lattice vectors
    14.848061936 -0.000035172  0.000000000     0.067348950  0.039223679  0.000000000
    -7.424030968 12.747419585  0.000000000     0.000000186  0.078447357  0.000000000
     0.000000000  0.000000000 15.000000000     0.000000000  0.000000000  0.066666667

  length of vectors
    14.848061936 14.751709796 15.000000000     0.077938296  0.078447357  0.066666667


 
 k-points in units of 2pi/SCALE and weight: K-Points                                
   0.00000000  0.00000000  0.00000000       0.111
   0.02244965  0.01307456  0.00000000       0.222
   0.00000006  0.02614912  0.00000000       0.222
   0.02244971  0.03922368  0.00000000       0.222
  -0.02244959  0.01307456  0.00000000       0.222
 
 k-points in reciprocal lattice and weights: K-Points                                
   0.00000000  0.00000000  0.00000000       0.111
   0.33333333 -0.00000000  0.00000000       0.222
   0.00000000  0.33333333  0.00000000       0.222
   0.33333333  0.33333333  0.00000000       0.222
  -0.33333333  0.33333333  0.00000000       0.222
 
 position of ions in fractional coordinates (direct lattice) 
   0.99737692  0.99697690  0.49574151
   0.05330556  0.10867097  0.49145417
   0.16603604  0.99946558  0.49291609
   0.22186608  0.11121729  0.49011448
   0.33169858  0.99991178  0.49117029
   0.38767828  0.11184523  0.49129479
   0.49796442  0.99865811  0.49075252
   0.55373281  0.11043196  0.49158250
   0.66439222  0.99703226  0.49289892
   0.71997625  0.10831238  0.49253334
   0.83058484  0.99656914  0.49651570
   0.88619371  0.10792263  0.49299166
   0.99750895  0.16376026  0.49042810
   0.05320679  0.27488627  0.48791212
   0.16441250  0.16488922  0.48846206
   0.22077445  0.27570151  0.48462011
   0.33298438  0.16790387  0.49073863
   0.38831085  0.27842444  0.49125021
   0.49892492  0.16698898  0.49181167
   0.55351576  0.27827809  0.49468732
   0.66465405  0.16455447  0.49238050
   0.71997701  0.27550593  0.49385459
   0.83091458  0.16365424  0.49213938
   0.88665773  0.27518251  0.49105863
   0.99764052  0.33064211  0.48925709
   0.05311341  0.44203956  0.49013923
   0.16439806  0.33062988  0.48563159
   0.21883377  0.44191081  0.48695370
   0.33306716  0.33300488  0.48419390
   0.38630850  0.44202764  0.48187471
   0.49927568  0.33692183  0.49789298
   0.55548299  0.44736359  0.50910708
   0.66466546  0.33139090  0.49620015
   0.72159675  0.44239384  0.49987806
   0.83131803  0.33080962  0.49301856
   0.88749624  0.44215606  0.49467178
   0.99813479  0.49776900  0.49334208
   0.05395785  0.60935070  0.49504158
   0.16393041  0.49781649  0.48963424
   0.21960639  0.60910097  0.49091086
   0.32911486  0.49629751  0.48383776
   0.38539167  0.60906761  0.48641704
   0.66678346  0.49717049  0.50618841
   0.72282448  0.60844912  0.50928452
   0.83264975  0.49800932  0.49869517
   0.88828440  0.60902195  0.50108413
   0.99907073  0.66501006  0.49838328
   0.05446346  0.77643986  0.49815778
   0.16463355  0.66506680  0.49279649
   0.22042649  0.77647656  0.49278340
   0.33028941  0.66468544  0.48996618
   0.38664125  0.77628406  0.48951182
   0.49637944  0.66424182  0.49066561
   0.55287098  0.77426015  0.49113884
   0.66184680  0.65826494  0.51485367
   0.71689451  0.77042053  0.50591764
   0.83282918  0.66438932  0.50513320
   0.88774528  0.77586285  0.50381599
   0.99865354  0.83188381  0.50001759
   0.05433725  0.94312747  0.49636081
   0.16519298  0.83213295  0.49472566
   0.22107706  0.94390696  0.49290844
   0.33160111  0.83228931  0.49070906
   0.38717715  0.94382206  0.49052249
   0.49760730  0.83101962  0.48906272
   0.55314614  0.94239262  0.49085098
   0.66372390  0.82867690  0.49860338
   0.71940123  0.94051198  0.49621760
   0.82969401  0.82865848  0.50300294
   0.88584218  0.94048467  0.49844260
   0.50919663  0.55264796  0.53976065
   0.56710968  0.59195559  0.65600519
   0.60359871  0.60714792  0.72712209
 
 position of ions in cartesian coordinates  (Angst):
   7.40752695 12.70884779  7.43612259
  -0.01529246  1.38527262  7.37181260
  -4.95474994 12.74060124  7.39374141
   2.46860078  1.41772561  7.35171722
  -2.49829499 12.74628335  7.36755438
   4.92592861  1.42572441  7.36942183
  -0.02026212 12.73029638  7.36128774
   7.40200882  1.40770302  7.37373745
   2.46293836 12.70956524  7.39348380
   9.88613742  1.38067808  7.38800007
   4.93401501 12.70365577  7.44773556
  12.35703822  1.37570382  7.39487495
  13.59531340  2.08748571  7.35642148
  -1.25074647  3.50408872  7.31868174
   1.21706432  2.10190634  7.32693091
   1.23125615  3.51447512  7.26930160
   3.69764915  2.14032937  7.36107952
   3.69863188  3.54917952  7.36875309
   6.16833673  2.12866109  7.37717510
   6.15269116  3.54730806  7.42030984
   8.64716694  2.09762151  7.38570746
   8.64489878  3.51196431  7.40781892
  11.12249700  2.08614005  7.38209067
  11.12218541  3.50783578  7.36587942
  12.35833097  4.21479861  7.33885630
  -2.49308417  5.63486188  7.35208849
  -0.01361380  4.21467197  7.28447383
  -0.03150224  5.63321486  7.30430552
   2.47316318  4.24494127  7.26290849
   2.45430561  5.63469818  7.22812060
   4.91195811  4.29486644  7.46839468
   4.92660470  5.70271182  7.63660621
   7.40873762  4.22435548  7.44300228
   7.42996764  5.63935455  7.49817085
   9.88752075  4.21693979  7.39527836
   9.89501895  5.63631754  7.42007668
  11.12491468  6.34523520  7.40013117
  -3.72266900  7.76764714  7.42562364
  -1.26175620  6.34586994  7.34451359
  -1.26125511  7.76445788  7.36366288
   1.20218971  6.32650106  7.25756636
   1.20058260  7.76402684  7.29625561
   6.20943298  6.33761736  7.59282616
   6.21539750  7.75613085  7.63926782
   8.66599850  6.34830443  7.48042758
   8.66790397  7.76342714  7.51626198
   9.89720875  8.47712719  7.47574917
  -4.95563680  9.89760276  7.47236666
  -2.49298733  8.47787970  7.39194734
  -2.49167990  9.89806472  7.39175103
  -0.03048769  8.47301262  7.34949272
  -0.02228360  9.89560499  7.34267734
   2.43892087  8.46735167  7.35998411
   2.46093118  9.86979959  7.36708260
   4.94016301  8.39115608  7.72280509
   4.92486825  9.82084851  7.58876465
   7.43345236  8.46922019  7.57699795
   7.42126713  9.89021801  7.55723990
   8.65213840 10.60433687  7.50026385
  -6.19500469 12.02243969  7.44541209
  -3.72498515 10.60754211  7.42088497
  -3.72502869 12.03237029  7.39362653
  -1.25530786 10.60952939  7.36063597
  -1.25813389 12.03128218  7.35783730
   1.21898862 10.59333833  7.33594075
   1.21679614 12.01305466  7.36276464
   3.70289053 10.56346881  7.47905066
   3.69932395 11.98907555  7.44326401
   6.16736188 10.56322813  7.54504416
   6.17085229 11.98872152  7.47663899
   3.45770745  7.04481754  8.09640980
   4.02578305  7.54588629  9.84007790
   4.45478612  7.73954808 10.90683136
 


--------------------------------------------------------------------------------------------------------


 k-point  1 :   0.0000 0.0000 0.0000  plane waves:   59493
 k-point  2 :   0.3333-0.0000 0.0000  plane waves:   59471
 k-point  3 :   0.0000 0.3333 0.0000  plane waves:   59532
 k-point  4 :   0.3333 0.3333 0.0000  plane waves:   59542
 k-point  5 :  -0.3333 0.3333 0.0000  plane waves:   59471

 maximum and minimum number of plane-waves per node :      4982     4935

 maximum number of plane-waves:     59542
 maximum index in each direction: 
   IXMAX=   25   IYMAX=   25   IZMAX=   25
   IXMIN=  -25   IYMIN=  -25   IZMIN=  -25


 parallel 3D FFT for wavefunctions:
    minimum data exchange during FFTs selected (reduces bandwidth)
 parallel 3D FFT for charge:
    minimum data exchange during FFTs selected (reduces bandwidth)


 total amount of memory used by VASP MPI-rank0   115989. kBytes
=======================================================================

   base      :      30000. kBytes
   nonl-proj :      27264. kBytes
   fftplans  :       4700. kBytes
   grid      :      15193. kBytes
   one-center:        217. kBytes
   wavefun   :      38615. kBytes
 
     INWAV:  cpu time    0.0000: real time    0.0001
 Broyden mixing: mesh for mixing (old mesh)
   NGX = 51   NGY = 51   NGZ = 51
  (NGX  =160   NGY  =160   NGZ  =160)
  gives a total of 132651 points

 initial charge density was supplied:
 charge density of overlapping atoms calculated
 number of electron     303.0000000 magnetization       2.0000000
 keeping initial charge density in first step


--------------------------------------------------------------------------------------------------------


 Maximum index for augmentation-charges          189 (set IRDMAX)


--------------------------------------------------------------------------------------------------------


 First call to EWALD:  gamma=   0.125
 Maximum number of real-space cells 3x 3x 3
 Maximum number of reciprocal cells 3x 3x 3

    FEWALD:  cpu time    0.0053: real time    0.0055


--------------------------------------- Iteration      1(   1)  ---------------------------------------


    POTLOK:  cpu time    0.2087: real time    0.2350
    SETDIJ:  cpu time    0.0086: real time    0.0098
     EDDAV:  cpu time   11.4708: real time   11.5907
 BZINTS: Fermi energy:  8.046018;303.000000 electrons
         Band energy:***********;  BLOECHL correction: -0.009985
       DOS:  cpu time    0.1146: real time    0.1152
    --------------------------------------------
      LOOP:  cpu time   11.8027: real time   11.9507

 eigenvalue-minimisations  :  4392
 total energy-change (2. order) : 0.2522533E+04  (-0.1123043E+05)
 number of electron     303.0000000 magnetization       2.0000000
 augmentation part      303.0000000 magnetization       2.0000000

 Free energy of the ion-electron system (eV)
  ---------------------------------------------------
  alpha Z        PSCENC =       167.49047206
  Ewald energy   TEWEN  =     31032.17180287
  -Hartree energ DENC   =    -40700.49885328
  -exchange      EXHF   =         0.00000000
  -V(xc)+E(xc)   XCENC  =      1023.56668314
  PAW double counting   =      9455.23336183    -9546.47664214
  entropy T*S    EENTRO =         0.00000000
  eigenvalues    EBANDS =     -1553.70746772
  atomic energy  EATOM  =     12644.75315347
  Solvation  Ediel_sol  =         0.00000000
  ---------------------------------------------------
  free energy    TOTEN  =      2522.53251023 eV

  energy without entropy =     2522.53251023  energy(sigma->0) =     2522.53251023


--------------------------------------------------------------------------------------------------------




--------------------------------------- Iteration      1(   2)  ---------------------------------------


     EDDAV:  cpu time   14.8207: real time   15.2220
 BZINTS: Fermi energy: -1.941360;303.000000 electrons
         Band energy:***********;  BLOECHL correction:  0.000000
       DOS:  cpu time    0.0047: real time    0.0047
    --------------------------------------------
      LOOP:  cpu time   14.8254: real time   15.2266

 eigenvalue-minimisations  :  5480
 total energy-change (2. order) :-0.2766543E+04  (-0.2642010E+04)
 number of electron     303.0000000 magnetization       2.0000000
 augmentation part      303.0000000 magnetization       2.0000000

 Free energy of the ion-electron system (eV)
  ---------------------------------------------------
  alpha Z        PSCENC =       167.49047206
  Ewald energy   TEWEN  =     31032.17180287
  -Hartree energ DENC   =    -40700.49885328
  -exchange      EXHF   =         0.00000000
  -V(xc)+E(xc)   XCENC  =      1023.56668314
  PAW double counting   =      9455.23336183    -9546.47664214
  entropy T*S    EENTRO =         0.00000000
  eigenvalues    EBANDS =     -4320.25022413
  atomic energy  EATOM  =     12644.75315347
  Solvation  Ediel_sol  =         0.00000000
  ---------------------------------------------------
  free energy    TOTEN  =      -244.01024618 eV

  energy without entropy =     -244.01024618  energy(sigma->0) =     -244.01024618


--------------------------------------------------------------------------------------------------------




--------------------------------------- Iteration      1(   3)  ---------------------------------------


     EDDAV:  cpu time   12.8464: real time   13.1183
 BZINTS: Fermi energy: -4.547265;303.000000 electrons
         Band energy:***********;  BLOECHL correction: -0.044972
       DOS:  cpu time    0.0107: real time    0.0108
    --------------------------------------------
      LOOP:  cpu time   12.8571: real time   13.1291

 eigenvalue-minimisations  :  4576
 total energy-change (2. order) :-0.4564709E+03  (-0.4523976E+03)
 number of electron     303.0000000 magnetization       2.0000000
 augmentation part      303.0000000 magnetization       2.0000000

 Free energy of the ion-electron system (eV)
  ---------------------------------------------------
  alpha Z        PSCENC =       167.49047206
  Ewald energy   TEWEN  =     31032.17180287
  -Hartree energ DENC   =    -40700.49885328
  -exchange      EXHF   =         0.00000000
  -V(xc)+E(xc)   XCENC  =      1023.56668314
  PAW double counting   =      9455.23336183    -9546.47664214
  entropy T*S    EENTRO =         0.00000000
  eigenvalues    EBANDS =     -4776.72114674
  atomic energy  EATOM  =     12644.75315347
  Solvation  Ediel_sol  =         0.00000000
  ---------------------------------------------------
  free energy    TOTEN  =      -700.48116878 eV

  energy without entropy =     -700.48116878  energy(sigma->0) =     -700.48116878


--------------------------------------------------------------------------------------------------------




--------------------------------------- Iteration      1(   4)  ---------------------------------------


     EDDAV:  cpu time   12.6927: real time   12.9350
 BZINTS: Fermi energy: -4.693547;303.000000 electrons
         Band energy:***********;  BLOECHL correction: -0.048317
       DOS:  cpu time    0.0117: real time    0.0118
    --------------------------------------------
      LOOP:  cpu time   12.7045: real time   12.9468

 eigenvalue-minimisations  :  4640
 total energy-change (2. order) :-0.1649566E+02  (-0.1635317E+02)
 number of electron     303.0000000 magnetization       2.0000000
 augmentation part      303.0000000 magnetization       2.0000000

 Free energy of the ion-electron system (eV)
  ---------------------------------------------------
  alpha Z        PSCENC =       167.49047206
  Ewald energy   TEWEN  =     31032.17180287
  -Hartree energ DENC   =    -40700.49885328
  -exchange      EXHF   =         0.00000000
  -V(xc)+E(xc)   XCENC  =      1023.56668314
  PAW double counting   =      9455.23336183    -9546.47664214
  entropy T*S    EENTRO =         0.00000000
  eigenvalues    EBANDS =     -4793.21680444
  atomic energy  EATOM  =     12644.75315347
  Solvation  Ediel_sol  =         0.00000000
  ---------------------------------------------------
  free energy    TOTEN  =      -716.97682648 eV

  energy without entropy =     -716.97682648  energy(sigma->0) =     -716.97682648


--------------------------------------------------------------------------------------------------------




--------------------------------------- Iteration      1(   5)  ---------------------------------------


     EDDAV:  cpu time   14.4605: real time   14.7119
 BZINTS: Fermi energy: -4.701366;303.000000 electrons
         Band energy:***********;  BLOECHL correction: -0.048525
       DOS:  cpu time    0.0117: real time    0.0118
    CHARGE:  cpu time    0.1641: real time    0.1681
    MIXING:  cpu time    0.0047: real time    0.0048
    --------------------------------------------
      LOOP:  cpu time   14.6410: real time   14.8966

 eigenvalue-minimisations  :  5328
 total energy-change (2. order) :-0.5445222E+00  (-0.5427670E+00)
 number of electron     303.0000039 magnetization       0.1030288
 augmentation part       12.4977687 magnetization       0.0903235

 Broyden mixing:
  rms(total) = 0.48130E+01    rms(broyden)= 0.48124E+01
  rms(prec ) = 0.54948E+01
  weight for this iteration     100.00

 Free energy of the ion-electron system (eV)
  ---------------------------------------------------
  alpha Z        PSCENC =       167.49047206
  Ewald energy   TEWEN  =     31032.17180287
  -Hartree energ DENC   =    -40700.49885328
  -exchange      EXHF   =         0.00000000
  -V(xc)+E(xc)   XCENC  =      1023.56668314
  PAW double counting   =      9455.23336183    -9546.47664214
  entropy T*S    EENTRO =         0.00000000
  eigenvalues    EBANDS =     -4793.76132667
  atomic energy  EATOM  =     12644.75315347
  Solvation  Ediel_sol  =         0.00000000
  ---------------------------------------------------
  free energy    TOTEN  =      -717.52134871 eV

  energy without entropy =     -717.52134871  energy(sigma->0) =     -717.52134871


--------------------------------------------------------------------------------------------------------




--------------------------------------- Iteration      1(   6)  ---------------------------------------


    POTLOK:  cpu time    0.1379: real time    0.1407
    SETDIJ:  cpu time    0.0088: real time    0.0088
     EDDAV:  cpu time   12.4614: real time   12.5853
 BZINTS: Fermi energy: -5.576676;303.000000 electrons
         Band energy:***********;  BLOECHL correction: -0.023896
       DOS:  cpu time    0.0120: real time    0.0122
    CHARGE:  cpu time    0.1651: real time    0.1703
    MIXING:  cpu time    0.0033: real time    0.0036
    --------------------------------------------
      LOOP:  cpu time   12.7886: real time   12.9209

 eigenvalue-minimisations  :  4792
 total energy-change (2. order) : 0.4880057E+01  (-0.6968293E+01)
 number of electron     303.0000070 magnetization       0.0800949
 augmentation part       17.8693234 magnetization       0.0882667

 Broyden mixing:
  rms(total) = 0.73425E+01    rms(broyden)= 0.73422E+01
  rms(prec ) = 0.83831E+01
  weight for this iteration     100.00

 eigenvalues of (default mixing * dielectric matrix)
  average eigenvalue GAMMA=   0.2693
  0.2693

 Free energy of the ion-electron system (eV)
  ---------------------------------------------------
  alpha Z        PSCENC =       167.49047206
  Ewald energy   TEWEN  =     31032.17180287
  -Hartree energ DENC   =    -41060.19570839
  -exchange      EXHF   =         0.00000000
  -V(xc)+E(xc)   XCENC  =      1036.22333409
  PAW double counting   =     13282.87586664   -13374.48602373
  entropy T*S    EENTRO =         0.00000000
  eigenvalues    EBANDS =     -4441.47418859
  atomic energy  EATOM  =     12644.75315347
  Solvation  Ediel_sol  =         0.00000000
  ---------------------------------------------------
  free energy    TOTEN  =      -712.64129158 eV

  energy without entropy =     -712.64129158  energy(sigma->0) =     -712.64129158


--------------------------------------------------------------------------------------------------------




--------------------------------------- Iteration      1(   7)  ---------------------------------------


    POTLOK:  cpu time    0.1431: real time    0.1470
    SETDIJ:  cpu time    0.0101: real time    0.0102
     EDDAV:  cpu time   13.8248: real time   14.0933
 BZINTS: Fermi energy: -4.380216;303.000000 electrons
         Band energy:***********;  BLOECHL correction: -0.056376
       DOS:  cpu time    0.0118: real time    0.0119
    CHARGE:  cpu time    0.1641: real time    0.1697
    MIXING:  cpu time    0.0033: real time    0.0038
    --------------------------------------------
      LOOP:  cpu time   14.1571: real time   14.4358

 eigenvalue-minimisations  :  5328
 total energy-change (2. order) : 0.3656525E+02  (-0.7361082E+01)
 number of electron     303.0000048 magnetization       0.1795570
 augmentation part       14.1831284 magnetization       0.0896565

 Broyden mixing:
  rms(total) = 0.25666E+01    rms(broyden)= 0.25662E+01
  rms(prec ) = 0.28167E+01
  weight for this iteration     100.00

 eigenvalues of (default mixing * dielectric matrix)
  average eigenvalue GAMMA=   0.7349
  1.1877  0.2820

 Free energy of the ion-electron system (eV)
  ---------------------------------------------------
  alpha Z        PSCENC =       167.49047206
  Ewald energy   TEWEN  =     31032.17180287
  -Hartree energ DENC   =    -41210.48362991
  -exchange      EXHF   =         0.00000000
  -V(xc)+E(xc)   XCENC  =      1040.45638155
  PAW double counting   =     14435.74750935   -14531.57629669
  entropy T*S    EENTRO =         0.00000000
  eigenvalues    EBANDS =     -4254.63543742
  atomic energy  EATOM  =     12644.75315347
  Solvation  Ediel_sol  =         0.00000000
  ---------------------------------------------------
  free energy    TOTEN  =      -676.07604473 eV

  energy without entropy =     -676.07604473  energy(sigma->0) =     -676.07604473


--------------------------------------------------------------------------------------------------------




--------------------------------------- Iteration      1(   8)  ---------------------------------------


    POTLOK:  cpu time    0.1438: real time    0.1460
    SETDIJ:  cpu time    0.0105: real time    0.0105
     EDDAV:  cpu time   12.8402: real time   12.9400
 BZINTS: Fermi energy: -2.371289;303.000000 electrons
         Band energy:***********;  BLOECHL correction: -0.036409
       DOS:  cpu time    0.0120: real time    0.0120
    CHARGE:  cpu time    0.1670: real time    0.1686
    MIXING:  cpu time    0.0032: real time    0.0033
    --------------------------------------------
      LOOP:  cpu time   13.1767: real time   13.2803

 eigenvalue-minimisations  :  4968
 total energy-change (2. order) : 0.5839905E+01  (-0.3532665E+01)
 number of electron     303.0000042 magnetization       0.1664855
 augmentation part       12.3881317 magnetization       0.0543555

 Broyden mixing:
  rms(total) = 0.24158E+01    rms(broyden)= 0.24154E+01
  rms(prec ) = 0.28232E+01
  weight for this iteration     100.00

 eigenvalues of (default mixing * dielectric matrix)
  average eigenvalue GAMMA=   1.1565
  2.6504  0.4891  0.3299

 Free energy of the ion-electron system (eV)
  ---------------------------------------------------
  alpha Z        PSCENC =       167.49047206
  Ewald energy   TEWEN  =     31032.17180287
  -Hartree energ DENC   =    -41524.17999747
  -exchange      EXHF   =         0.00000000
  -V(xc)+E(xc)   XCENC  =      1051.34489799
  PAW double counting   =     18659.67535444   -18758.89418357
  entropy T*S    EENTRO =         0.00000000
  eigenvalues    EBANDS =     -3942.59763983
  atomic energy  EATOM  =     12644.75315347
  Solvation  Ediel_sol  =         0.00000000
  ---------------------------------------------------
  free energy    TOTEN  =      -670.23614004 eV

  energy without entropy =     -670.23614004  energy(sigma->0) =     -670.23614004


--------------------------------------------------------------------------------------------------------




--------------------------------------- Iteration      1(   9)  ---------------------------------------


    POTLOK:  cpu time    0.1465: real time    0.1490
    SETDIJ:  cpu time    0.0088: real time    0.0088
     EDDAV:  cpu time   12.2945: real time   12.4143
 BZINTS: Fermi energy: -2.742753;303.000000 electrons
         Band energy:***********;  BLOECHL correction: -0.078534
       DOS:  cpu time    0.0118: real time    0.0119
    CHARGE:  cpu time    0.1653: real time    0.1666
    MIXING:  cpu time    0.0038: real time    0.0038
    --------------------------------------------
      LOOP:  cpu time   12.6307: real time   12.7544

 eigenvalue-minimisations  :  4592
 total energy-change (2. order) : 0.5411294E+01  (-0.2296088E+01)
 number of electron     303.0000052 magnetization       0.0417605
 augmentation part       14.2751849 magnetization      -0.0083727

 Broyden mixing:
  rms(total) = 0.14039E+01    rms(broyden)= 0.14031E+01
  rms(prec ) = 0.16880E+01
  weight for this iteration     100.00

 eigenvalues of (default mixing * dielectric matrix)
  average eigenvalue GAMMA=   1.2703
  3.2810  1.0900  0.3552  0.3552

 Free energy of the ion-electron system (eV)
  ---------------------------------------------------
  alpha Z        PSCENC =       167.49047206
  Ewald energy   TEWEN  =     31032.17180287
  -Hartree energ DENC   =    -41917.25588937
  -exchange      EXHF   =         0.00000000
  -V(xc)+E(xc)   XCENC  =      1065.88020796
  PAW double counting   =     26360.53532046   -26463.01729565
  entropy T*S    EENTRO =         0.00000000
  eigenvalues    EBANDS =     -3555.38261828
  atomic energy  EATOM  =     12644.75315347
  Solvation  Ediel_sol  =         0.00000000
  ---------------------------------------------------
  free energy    TOTEN  =      -664.82484647 eV

  energy without entropy =     -664.82484647  energy(sigma->0) =     -664.82484647


--------------------------------------------------------------------------------------------------------




--------------------------------------- Iteration      1(  10)  ---------------------------------------


    POTLOK:  cpu time    0.1490: real time    0.1513
    SETDIJ:  cpu time    0.0087: real time    0.0088
     EDDAV:  cpu time   13.4499: real time   13.5765
 BZINTS: Fermi energy: -2.063270;303.000000 electrons
         Band energy:***********;  BLOECHL correction: -0.011247
       DOS:  cpu time    0.0120: real time    0.0121
    CHARGE:  cpu time    0.1611: real time    0.1619
    MIXING:  cpu time    0.0038: real time    0.0038
    --------------------------------------------
      LOOP:  cpu time   13.7846: real time   13.9144

 eigenvalue-minimisations  :  5216
 total energy-change (2. order) : 0.9131196E+00  (-0.8935263E+00)
 number of electron     303.0000045 magnetization       0.0228203
 augmentation part       12.9958912 magnetization      -0.0217439

 Broyden mixing:
  rms(total) = 0.71186E+00    rms(broyden)= 0.71144E+00
  rms(prec ) = 0.79386E+00
  weight for this iteration     100.00

 eigenvalues of (default mixing * dielectric matrix)
  average eigenvalue GAMMA=   1.3445
  3.5919  1.5708  0.8592  0.3503  0.3503

 Free energy of the ion-electron system (eV)
  ---------------------------------------------------
  alpha Z        PSCENC =       167.49047206
  Ewald energy   TEWEN  =     31032.17180287
  -Hartree energ DENC   =    -41942.97994129
  -exchange      EXHF   =         0.00000000
  -V(xc)+E(xc)   XCENC  =      1066.89605681
  PAW double counting   =     28830.73294415   -28933.54941978
  entropy T*S    EENTRO =         0.00000000
  eigenvalues    EBANDS =     -3529.42679515
  atomic energy  EATOM  =     12644.75315347
  Solvation  Ediel_sol  =         0.00000000
  ---------------------------------------------------
  free energy    TOTEN  =      -663.91172685 eV

  energy without entropy =     -663.91172685  energy(sigma->0) =     -663.91172685


--------------------------------------------------------------------------------------------------------




--------------------------------------- Iteration      1(  11)  ---------------------------------------


    POTLOK:  cpu time    0.1716: real time    0.1735
    SETDIJ:  cpu time    0.0104: real time    0.0104
     EDDAV:  cpu time   13.0979: real time   13.2197
 BZINTS: Fermi energy: -2.093627;303.000000 electrons
         Band energy:***********;  BLOECHL correction: -0.007692
       DOS:  cpu time    0.0116: real time    0.0117
    CHARGE:  cpu time    0.2049: real time    0.2062
    MIXING:  cpu time    0.0041: real time    0.0041
    --------------------------------------------
      LOOP:  cpu time   13.5005: real time   13.6256

 eigenvalue-minimisations  :  4992
 total energy-change (2. order) : 0.2273386E+00  (-0.8190074E-01)
 number of electron     303.0000047 magnetization       0.5156008
 augmentation part       13.1846350 magnetization       0.1786901

 Broyden mixing:
  rms(total) = 0.49901E+00    rms(broyden)= 0.49884E+00
  rms(prec ) = 0.54574E+00
  weight for this iteration     100.00

 eigenvalues of (default mixing * dielectric matrix)
  average eigenvalue GAMMA=   1.2680
  3.6294  1.9898  0.6406  0.6406  0.3538  0.3538

 Free energy of the ion-electron system (eV)
  ---------------------------------------------------
  alpha Z        PSCENC =       167.49047206
  Ewald energy   TEWEN  =     31032.17180287
  -Hartree energ DENC   =    -41903.25567628
  -exchange      EXHF   =         0.00000000
  -V(xc)+E(xc)   XCENC  =      1066.04954762
  PAW double counting   =     30498.06371438   -30600.24688588
  entropy T*S    EENTRO =         0.00000000
  eigenvalues    EBANDS =     -3568.71051654
  atomic energy  EATOM  =     12644.75315347
  Solvation  Ediel_sol  =         0.00000000
  ---------------------------------------------------
  free energy    TOTEN  =      -663.68438830 eV

  energy without entropy =     -663.68438830  energy(sigma->0) =     -663.68438830


--------------------------------------------------------------------------------------------------------




--------------------------------------- Iteration      1(  12)  ---------------------------------------


    POTLOK:  cpu time    0.1362: real time    0.1385
    SETDIJ:  cpu time    0.0104: real time    0.0110
     EDDAV:  cpu time   12.2736: real time   12.3788
 BZINTS: Fermi energy: -2.223973;303.000000 electrons
         Band energy:***********;  BLOECHL correction: -0.000456
       DOS:  cpu time    0.0150: real time    0.0151
    CHARGE:  cpu time    0.1630: real time    0.1642
    MIXING:  cpu time    0.0037: real time    0.0037
    --------------------------------------------
      LOOP:  cpu time   12.6018: real time   12.7112

 eigenvalue-minimisations  :  4472
 total energy-change (2. order) : 0.5186937E-01  (-0.5043956E-01)
 number of electron     303.0000048 magnetization       0.9651927
 augmentation part       13.2947894 magnetization       0.3784068

 Broyden mixing:
  rms(total) = 0.38039E+00    rms(broyden)= 0.38011E+00
  rms(prec ) = 0.39819E+00
  weight for this iteration     100.00

 eigenvalues of (default mixing * dielectric matrix)
  average eigenvalue GAMMA=   1.3448
  3.6627  2.0927  1.0897  1.0897  0.7757  0.3515  0.3515

 Free energy of the ion-electron system (eV)
  ---------------------------------------------------
  alpha Z        PSCENC =       167.49047206
  Ewald energy   TEWEN  =     31032.17180287
  -Hartree energ DENC   =    -41855.41603599
  -exchange      EXHF   =         0.00000000
  -V(xc)+E(xc)   XCENC  =      1064.59398353
  PAW double counting   =     31490.70467478   -31592.27894207
  entropy T*S    EENTRO =         0.00000000
  eigenvalues    EBANDS =     -3615.65162757
  atomic energy  EATOM  =     12644.75315347
  Solvation  Ediel_sol  =         0.00000000
  ---------------------------------------------------
  free energy    TOTEN  =      -663.63251892 eV

  energy without entropy =     -663.63251892  energy(sigma->0) =     -663.63251892


--------------------------------------------------------------------------------------------------------




--------------------------------------- Iteration      1(  13)  ---------------------------------------


    POTLOK:  cpu time    0.1139: real time    0.1163
    SETDIJ:  cpu time    0.0103: real time    0.0104
     EDDAV:  cpu time   12.5902: real time   12.6846
 BZINTS: Fermi energy: -2.252063;303.000000 electrons
         Band energy:***********;  BLOECHL correction:  0.000000
       DOS:  cpu time    0.0090: real time    0.0090
    CHARGE:  cpu time    0.1625: real time    0.1634
    MIXING:  cpu time    0.0040: real time    0.0040
    --------------------------------------------
      LOOP:  cpu time   12.8898: real time   12.9877

 eigenvalue-minimisations  :  4936
 total energy-change (2. order) :-0.3466774E-01  (-0.1419909E-01)
 number of electron     303.0000048 magnetization       0.9662712
 augmentation part       13.3354820 magnetization       0.4706181

 Broyden mixing:
  rms(total) = 0.23527E+00    rms(broyden)= 0.23520E+00
  rms(prec ) = 0.24347E+00
  weight for this iteration     100.00

 eigenvalues of (default mixing * dielectric matrix)
  average eigenvalue GAMMA=   1.3549
  3.7468  2.3398  1.1782  1.1782  0.3517  0.3517  0.8462  0.8462

 Free energy of the ion-electron system (eV)
  ---------------------------------------------------
  alpha Z        PSCENC =       167.49047206
  Ewald energy   TEWEN  =     31032.17180287
  -Hartree energ DENC   =    -41847.86105908
  -exchange      EXHF   =         0.00000000
  -V(xc)+E(xc)   XCENC  =      1064.34485143
  PAW double counting   =     31739.63586991   -31841.06650875
  entropy T*S    EENTRO =         0.00000000
  eigenvalues    EBANDS =     -3623.13576857
  atomic energy  EATOM  =     12644.75315347
  Solvation  Ediel_sol  =         0.00000000
  ---------------------------------------------------
  free energy    TOTEN  =      -663.66718666 eV

  energy without entropy =     -663.66718666  energy(sigma->0) =     -663.66718666


--------------------------------------------------------------------------------------------------------




--------------------------------------- Iteration      1(  14)  ---------------------------------------


    POTLOK:  cpu time    0.1145: real time    0.1170
    SETDIJ:  cpu time    0.0082: real time    0.0085
     EDDAV:  cpu time   12.7634: real time   12.9678
 BZINTS: Fermi energy: -2.242061;303.000000 electrons
         Band energy:***********;  BLOECHL correction:  0.000000
       DOS:  cpu time    0.0097: real time    0.0097
    CHARGE:  cpu time    0.1840: real time    0.1847
    MIXING:  cpu time    0.0040: real time    0.0040
    --------------------------------------------
      LOOP:  cpu time   13.0837: real time   13.2916

 eigenvalue-minimisations  :  4896
 total energy-change (2. order) :-0.5504243E-02  (-0.5917427E-02)
 number of electron     303.0000048 magnetization       0.9799967
 augmentation part       13.3996746 magnetization       0.5373529

 Broyden mixing:
  rms(total) = 0.17964E+00    rms(broyden)= 0.17961E+00
  rms(prec ) = 0.18229E+00
  weight for this iteration     100.00

 eigenvalues of (default mixing * dielectric matrix)
  average eigenvalue GAMMA=   1.3614
  3.7370  2.4040  1.3972  1.3972  0.3518  0.3518  0.9489  0.9489  0.7159

 Free energy of the ion-electron system (eV)
  ---------------------------------------------------
  alpha Z        PSCENC =       167.49047206
  Ewald energy   TEWEN  =     31032.17180287
  -Hartree energ DENC   =    -41848.46963216
  -exchange      EXHF   =         0.00000000
  -V(xc)+E(xc)   XCENC  =      1064.38726941
  PAW double counting   =     31889.50381847   -31990.87303608
  entropy T*S    EENTRO =         0.00000000
  eigenvalues    EBANDS =     -3622.63653894
  atomic energy  EATOM  =     12644.75315347
  Solvation  Ediel_sol  =         0.00000000
  ---------------------------------------------------
  free energy    TOTEN  =      -663.67269091 eV

  energy without entropy =     -663.67269091  energy(sigma->0) =     -663.67269091


--------------------------------------------------------------------------------------------------------




--------------------------------------- Iteration      1(  15)  ---------------------------------------


    POTLOK:  cpu time    0.1355: real time    0.1431
    SETDIJ:  cpu time    0.0088: real time    0.0088
     EDDAV:  cpu time   12.5383: real time   12.6437
 BZINTS: Fermi energy: -2.258541;303.000000 electrons
         Band energy:***********;  BLOECHL correction: -0.000973
       DOS:  cpu time    0.0163: real time    0.0164
    CHARGE:  cpu time    0.1977: real time    0.1984
    MIXING:  cpu time    0.0046: real time    0.0046
    --------------------------------------------
      LOOP:  cpu time   12.9012: real time   13.0150

 eigenvalue-minimisations  :  4672
 total energy-change (2. order) :-0.4623507E-02  (-0.2332969E-02)
 number of electron     303.0000048 magnetization       1.0066964
 augmentation part       13.4106808 magnetization       0.5884933

 Broyden mixing:
  rms(total) = 0.14084E+00    rms(broyden)= 0.14083E+00
  rms(prec ) = 0.14630E+00
  weight for this iteration     100.00

 eigenvalues of (default mixing * dielectric matrix)
  average eigenvalue GAMMA=   1.4095
  3.5816  2.7669  2.4004  1.0550  1.0550  0.3518  0.3518  0.8846  0.8846  0.7638

 Free energy of the ion-electron system (eV)
  ---------------------------------------------------
  alpha Z        PSCENC =       167.49047206
  Ewald energy   TEWEN  =     31032.17180287
  -Hartree energ DENC   =    -41848.30257112
  -exchange      EXHF   =         0.00000000
  -V(xc)+E(xc)   XCENC  =      1064.38682385
  PAW double counting   =     31913.97455391   -32015.29418431
  entropy T*S    EENTRO =         0.00000000
  eigenvalues    EBANDS =     -3622.85736514
  atomic energy  EATOM  =     12644.75315347
  Solvation  Ediel_sol  =         0.00000000
  ---------------------------------------------------
  free energy    TOTEN  =      -663.67731441 eV

  energy without entropy =     -663.67731441  energy(sigma->0) =     -663.67731441


--------------------------------------------------------------------------------------------------------




--------------------------------------- Iteration      1(  16)  ---------------------------------------


    POTLOK:  cpu time    0.1391: real time    0.1409
    SETDIJ:  cpu time    0.0107: real time    0.0108
     EDDAV:  cpu time   12.4108: real time   12.5552
 BZINTS: Fermi energy: -2.242061;303.000000 electrons
         Band energy:***********;  BLOECHL correction:  0.000000
       DOS:  cpu time    0.0094: real time    0.0095
    CHARGE:  cpu time    0.1606: real time    0.1642
    MIXING:  cpu time    0.0042: real time    0.0045
    --------------------------------------------
      LOOP:  cpu time   12.7349: real time   12.8851

 eigenvalue-minimisations  :  4752
 total energy-change (2. order) : 0.2065082E-02  (-0.5987330E-03)
 number of electron     303.0000048 magnetization       1.0126119
 augmentation part       13.3940628 magnetization       0.6102806

 Broyden mixing:
  rms(total) = 0.93311E-01    rms(broyden)= 0.93307E-01
  rms(prec ) = 0.96176E-01
  weight for this iteration     100.00

 eigenvalues of (default mixing * dielectric matrix)
  average eigenvalue GAMMA=   1.3743
  3.6379  2.7462  2.2704  1.1443  1.1443  0.3518  0.3518  1.0527  0.8495  0.7840
  0.7840

 Free energy of the ion-electron system (eV)
  ---------------------------------------------------
  alpha Z        PSCENC =       167.49047206
  Ewald energy   TEWEN  =     31032.17180287
  -Hartree energ DENC   =    -41848.42030314
  -exchange      EXHF   =         0.00000000
  -V(xc)+E(xc)   XCENC  =      1064.38360882
  PAW double counting   =     31913.03355721   -32014.29532067
  entropy T*S    EENTRO =         0.00000000
  eigenvalues    EBANDS =     -3622.79221996
  atomic energy  EATOM  =     12644.75315347
  Solvation  Ediel_sol  =         0.00000000
  ---------------------------------------------------
  free energy    TOTEN  =      -663.67524933 eV

[...]
   0.175E+02 -.339E+01 0.115E+02   -.176E+02 0.349E+01 -.113E+02   0.151E-01 -.514E-01 -.133E+00   0.122E-01 -.399E-02 -.209E-01
   0.530E+02 0.172E+02 0.774E+02   -.531E+02 -.180E+02 -.788E+02   0.285E+00 0.749E+00 0.154E+01   -.104E+00 -.527E-01 -.864E-01
   0.565E+02 -.180E+02 0.735E+02   -.566E+02 0.187E+02 -.754E+02   0.309E+00 -.779E+00 0.203E+01   -.806E-01 0.736E-01 -.809E-01
   -.414E+02 0.226E+02 0.183E+02   0.404E+02 -.225E+02 -.180E+02   0.847E+00 -.477E-01 -.214E+00   0.637E-01 -.613E-01 -.624E-01
   -.474E+02 -.158E+02 0.165E+02   0.464E+02 0.159E+02 -.163E+02   0.930E+00 -.134E+00 -.107E+00   0.518E-01 0.346E-01 -.607E-01
   -.173E+02 0.579E+01 0.632E+01   0.171E+02 -.571E+01 -.628E+01   0.144E+00 -.994E-01 -.287E-01   0.236E-02 -.138E-01 -.145E-01
   -.187E+02 -.377E+01 0.885E+00   0.185E+02 0.386E+01 -.847E+00   0.199E+00 -.465E-01 -.426E-01   0.594E-02 -.598E-02 -.149E-01
   -.798E+01 -.303E+01 -.839E+00   0.783E+01 0.303E+01 0.841E+00   0.962E-01 0.138E-01 0.749E-02   0.761E-02 0.542E-02 -.977E-02
   -.504E+01 -.510E+01 -.262E+01   0.494E+01 0.505E+01 0.267E+01   0.881E-01 0.367E-01 -.423E-01   0.951E-02 0.943E-02 -.909E-02
   0.581E+01 -.258E+01 0.739E+01   -.587E+01 0.257E+01 -.743E+01   0.749E-01 -.801E-02 0.480E-01   0.178E-01 0.251E-02 -.109E-01
   0.363E+01 -.460E+01 0.679E+01   -.363E+01 0.460E+01 -.677E+01   0.426E-02 0.354E-01 -.156E-01   0.992E-02 0.439E-02 -.947E-02
   0.272E+02 -.115E+02 0.197E+02   -.273E+02 0.115E+02 -.193E+02   -.235E-01 -.261E-01 -.270E+00   0.736E-02 -.426E-02 -.338E-01
   0.163E+02 -.143E+02 0.225E+02   -.162E+02 0.143E+02 -.225E+02   -.120E+00 -.353E-01 0.938E-02   0.913E-02 -.261E-02 -.205E-01
   0.130E+02 -.651E+02 0.116E+03   -.643E+01 0.623E+02 -.115E+03   -.650E+01 0.256E+01 -.453E+00   -.160E+00 0.226E+00 -.199E+00
   0.113E+02 -.412E+02 0.542E+02   -.110E+02 0.410E+02 -.542E+02   -.277E+00 0.259E+00 0.150E+00   -.162E-01 -.573E-03 -.605E-01
   -.218E+02 -.509E+02 0.236E+02   0.162E+02 0.469E+02 -.234E+02   0.546E+01 0.374E+01 -.111E+00   0.148E+00 0.193E+00 -.135E+00
   -.132E+02 -.379E+02 0.135E+02   0.132E+02 0.367E+02 -.134E+02   0.114E+00 0.121E+01 -.479E-01   -.579E-02 0.277E-01 -.496E-01
   -.290E+02 -.118E+02 0.206E+01   0.285E+02 0.116E+02 -.209E+01   0.490E+00 0.169E+00 0.338E-01   0.941E-02 0.303E-02 -.235E-01
   -.172E+02 -.168E+02 -.463E+01   0.170E+02 0.167E+02 0.479E+01   0.181E+00 0.377E-01 -.157E+00   -.109E-03 0.125E-01 -.177E-01
   -.906E+01 -.571E+01 -.457E+01   0.889E+01 0.551E+01 0.460E+01   0.197E+00 0.156E+00 -.465E-01   0.930E-02 0.149E-01 -.112E-01
   -.559E+01 -.482E+01 0.187E+01   0.547E+01 0.466E+01 -.187E+01   0.130E+00 0.191E+00 -.108E-02   0.496E-03 0.161E-01 -.923E-02
   -.945E+00 -.226E+01 0.274E+01   0.873E+00 0.208E+01 -.273E+01   0.701E-01 0.154E+00 -.580E-02   0.862E-02 0.275E-02 -.785E-02
   -.698E+00 0.406E+01 0.694E+01   0.691E+00 -.433E+01 -.690E+01   -.302E-02 0.209E+00 -.194E-01   0.519E-02 0.135E-01 -.771E-02
   0.772E+01 -.519E+01 0.131E+02   -.772E+01 0.512E+01 -.131E+02   -.598E-01 0.573E-01 0.195E-02   0.246E-02 0.350E-02 -.109E-01
   0.454E+01 -.301E+01 0.133E+02   -.445E+01 0.289E+01 -.133E+02   -.118E+00 0.109E+00 0.263E-01   0.468E-02 0.504E-02 -.871E-02
   0.100E+02 -.184E+02 0.343E+02   -.981E+01 0.183E+02 -.345E+02   -.236E+00 0.127E+00 0.258E+00   0.914E-02 -.447E-02 -.215E-01
   0.555E+01 -.135E+02 0.166E+02   -.551E+01 0.134E+02 -.165E+02   -.526E-01 0.105E+00 -.415E-01   0.407E-02 -.126E-02 -.127E-01
   -.220E+01 -.320E+02 0.185E+02   0.261E+01 0.314E+02 -.180E+02   -.367E+00 0.645E+00 -.449E+00   -.110E-01 0.214E-01 -.429E-01
   0.123E+01 -.181E+02 0.794E+01   -.118E+01 0.178E+02 -.792E+01   -.361E-01 0.272E+00 -.272E-01   -.796E-02 -.113E-01 -.177E-01
   -.751E+01 -.204E+02 0.346E+01   0.710E+01 0.200E+02 -.348E+01   0.405E+00 0.458E+00 0.286E-01   -.165E-01 0.155E-01 -.213E-01
   -.506E+01 -.128E+02 0.319E+01   0.496E+01 0.124E+02 -.324E+01   0.760E-01 0.367E+00 0.691E-01   -.694E-02 0.120E-01 -.136E-01
   0.735E+02 0.744E+02 -.299E+03   -.640E+02 -.722E+02 0.293E+03   -.942E+01 -.233E+01 0.675E+01   -.986E-01 0.473E-01 -.579E+00
   0.536E+02 0.581E+00 -.278E+03   -.612E+02 -.428E+01 0.261E+03   0.763E+01 0.366E+01 0.170E+02   0.908E-01 0.804E-01 0.233E+00
   -.860E+02 -.484E+02 -.686E+03   0.108E+03 0.580E+02 0.740E+03   -.217E+02 -.968E+01 -.539E+02   0.643E-01 0.352E-01 0.125E+00
 -----------------------------------------------------------------------------------------------
   0.220E+02 0.972E+01 0.307E+02   0.711E-13 -.171E-12 -.455E-12   -.221E+02 -.988E+01 -.285E+02   0.119E+00 0.150E+00 -.217E+01
 
 
 POSITION                                       TOTAL-FORCE (eV/Angst)
 -----------------------------------------------------------------------------------
      7.40753     12.70885      7.43612         0.012840      0.021765     -0.018637
     -0.01529      1.38527      7.37181        -0.005166     -0.007411     -0.002588
     -4.95475     12.74060      7.39374        -0.036853      0.014757      0.018497
      2.46860      1.41773      7.35172        -0.037118      0.055255      0.006845
     -2.49829     12.74628      7.36755         0.036109      0.026457      0.019976
      4.92593      1.42572      7.36942         0.030240      0.047681      0.007418
     -0.02026     12.73030      7.36129         0.026088      0.007072     -0.011774
      7.40201      1.40770      7.37374         0.010428     -0.014405     -0.009261
      2.46294     12.70957      7.39348        -0.010498     -0.076387     -0.019511
      9.88614      1.38068      7.38800        -0.044929      0.010942     -0.011850
      4.93402     12.70366      7.44774         0.023864     -0.062552     -0.023040
     12.35704      1.37570      7.39487         0.042066     -0.008162     -0.004041
     13.59531      2.08749      7.35642        -0.029012      0.013894      0.013420
     -1.25075      3.50409      7.31868         0.002142      0.000789      0.002407
      1.21706      2.10191      7.32693         0.041006     -0.023147      0.012275
      1.23126      3.51448      7.26930         0.004477      0.002622      0.019417
      3.69765      2.14033      7.36108         0.032286     -0.010335     -0.004296
      3.69863      3.54918      7.36875         0.021426      0.032591     -0.006050
      6.16834      2.12866      7.37718        -0.031722     -0.054233      0.006532
      6.15269      3.54731      7.42031        -0.018131     -0.001112      0.015545
      8.64717      2.09762      7.38571        -0.001045     -0.029663     -0.007027
      8.64490      3.51196      7.40782         0.003296      0.005453     -0.026190
     11.12250      2.08614      7.38209         0.014517      0.019204     -0.008310
     11.12219      3.50784      7.36588        -0.000291     -0.036696      0.018907
     12.35833      4.21480      7.33886         0.021034      0.019733      0.026230
     -2.49308      5.63486      7.35209         0.018481     -0.004227      0.021593
     -0.01361      4.21467      7.28447         0.024558      0.049436     -0.005593
     -0.03150      5.63321      7.30431        -0.033257     -0.025771      0.015476
      2.47316      4.24494      7.26291        -0.029470     -0.099489      0.022421
      2.45431      5.63470      7.22812         0.021856      0.080727     -0.058058
      4.91196      4.29487      7.46839        -0.005972     -0.051547      0.010902
      4.92660      5.70271      7.63661        -0.058047     -0.000688      0.008990
      7.40874      4.22436      7.44300        -0.019093      0.072607     -0.008905
      7.42997      5.63935      7.49817         0.029006     -0.020497     -0.010113
      9.88752      4.21694      7.39528        -0.000861      0.047083      0.008479
      9.89502      5.63632      7.42008        -0.060498     -0.021506      0.025217
     11.12491      6.34524      7.40013         0.037723      0.015981     -0.020235
     -3.72267      7.76765      7.42562         0.043102     -0.023514     -0.035407
     -1.26176      6.34587      7.34451        -0.003935     -0.054741      0.000595
     -1.26126      7.76446      7.36366        -0.019508      0.042961     -0.002417
      1.20219      6.32650      7.25757         0.003347     -0.065887      0.032687
      1.20058      7.76403      7.29626         0.039236      0.046595      0.012571
      6.20943      6.33762      7.59283        -0.026279      0.025820      0.018970
      6.21540      7.75613      7.63927        -0.044235      0.020402      0.001557
      8.66600      6.34830      7.48043         0.001326     -0.034388      0.000088
      8.66790      7.76343      7.51626        -0.016546      0.034698     -0.019448
      9.89721      8.47713      7.47575        -0.047745      0.017302     -0.000936
     -4.95564      9.89760      7.47237         0.000744     -0.006945     -0.006937
     -2.49299      8.47788      7.39195         0.035541     -0.010954      0.003157
     -2.49168      9.89806      7.39175         0.012636      0.036976     -0.000811
     -0.03049      8.47301      7.34949        -0.076918      0.022243      0.021702
     -0.02228      9.89560      7.34268         0.043585     -0.007914      0.012282
      2.43892      8.46735      7.35998        -0.048197     -0.057581     -0.081863
      2.46093      9.86980      7.36708        -0.039075      0.039182      0.043671
      4.94016      8.39116      7.72281         0.055111     -0.036989     -0.038903
      4.92487      9.82085      7.58876         0.030110      0.027287      0.005904
      7.43345      8.46922      7.57700         0.029123      0.009297     -0.015543
      7.42127      9.89022      7.55724        -0.036893     -0.043538     -0.011072
      8.65214     10.60434      7.50026         0.033973     -0.030624     -0.028146
     -6.19500     12.02244      7.44541         0.006417      0.045121     -0.010319
     -3.72499     10.60754      7.42088         0.007261     -0.018602     -0.006388
     -3.72503     12.03237      7.39363        -0.004614     -0.044690      0.011604
     -1.25531     10.60953      7.36064        -0.055428     -0.007772     -0.008682
     -1.25813     12.03128      7.35784        -0.016944     -0.009214      0.018288
      1.21899     10.59334      7.33594         0.015126      0.017911      0.025796
      1.21680     12.01305      7.36276         0.001829      0.010984      0.000865
      3.70289     10.56347      7.47905         0.030040      0.034508     -0.006668
      3.69932     11.98908      7.44326         0.015504     -0.011481     -0.024058
      6.16736     10.56323      7.54504        -0.028005      0.009222     -0.006826
      6.17085     11.98872      7.47664        -0.034063      0.026956     -0.002997
      3.45771      7.04482      8.09641         0.028460     -0.072678      0.028723
      4.02578      7.54589      9.84008         0.114630      0.034855      0.130191
      4.45479      7.73955     10.90683        -0.080191      0.038972     -0.086297
 -----------------------------------------------------------------------------------
    total drift:                               -0.021759     -0.003626      0.026274


--------------------------------------------------------------------------------------------------------



  FREE ENERGIE OF THE ION-ELECTRON SYSTEM (eV)
  ---------------------------------------------------
  free  energy   TOTEN  =      -670.25429120 eV

  energy  without entropy=     -670.25429120  energy(sigma->0) =     -670.25429120
 


--------------------------------------------------------------------------------------------------------


    POTLOK:  cpu time    0.1552: real time    0.1561


--------------------------------------------------------------------------------------------------------


 stress matrix after NEB project (eV)
     -9.22058      0.51054     -0.06302
      0.51054      1.72500      0.11825
     -0.06302      0.11825     -3.28743
  FORCES: max atom, RMS     0.176931    0.057162
  FORCE total and by dimension    0.488390    0.130191
  Stress total and by dimension    9.967900    9.220575
     LOOP+:  cpu time  248.1246: real time  251.3181
    4ORBIT:  cpu time    0.0000: real time    0.0000
 


 total charge     
 
# of ion       s       p       d       tot
------------------------------------------
    1        0.864   1.780   0.000   2.645
    2        0.864   1.787   0.000   2.651
    3        0.863   1.782   0.000   2.645
    4        0.861   1.790   0.000   2.652
    5        0.863   1.782   0.000   2.645
    6        0.862   1.792   0.000   2.653
    7        0.865   1.782   0.000   2.646
    8        0.863   1.786   0.000   2.649
    9        0.865   1.781   0.000   2.645
   10        0.865   1.787   0.000   2.651
   11        0.865   1.782   0.000   2.648
   12        0.865   1.787   0.000   2.651
   13        0.866   1.789   0.000   2.654
   14        0.865   1.787   0.000   2.652
   15        0.866   1.788   0.000   2.654
   16        0.862   1.782   0.000   2.645
   17        0.852   1.745   0.000   2.597
   18        1.210   2.692   0.000   3.902
   19        0.864   1.781   0.000   2.645
   20        0.860   1.774   0.000   2.634
   21        0.866   1.788   0.000   2.654
   22        0.865   1.788   0.000   2.653
   23        0.866   1.788   0.000   2.654
   24        0.865   1.789   0.000   2.654
   25        0.865   1.786   0.000   2.651
   26        0.867   1.792   0.000   2.659
   27        0.865   1.784   0.000   2.649
   28        0.869   1.797   0.000   2.666
   29        0.854   1.745   0.000   2.599
   30        0.874   1.719   0.000   2.593
   31        0.848   1.713   0.000   2.561
   32        0.865   1.658   0.000   2.523
   33        0.865   1.788   0.000   2.653
   34        0.870   1.801   0.000   2.671
   35        0.865   1.787   0.000   2.652
   36        0.868   1.794   0.000   2.661
   37        0.867   1.793   0.000   2.660
   38        0.867   1.794   0.000   2.661
   39        0.867   1.792   0.000   2.659
   40        0.867   1.793   0.000   2.660
   41        0.866   1.767   0.000   2.633
   42        0.866   1.774   0.000   2.640
   43        0.875   1.781   0.000   2.656
   44        0.874   1.792   0.000   2.667
   45        0.867   1.793   0.000   2.661
   46        0.867   1.795   0.000   2.662
   47        0.867   1.793   0.000   2.660
   48        0.865   1.790   0.000   2.655
   49        0.867   1.792   0.000   2.659
   50        0.865   1.789   0.000   2.654
   51        0.868   1.789   0.000   2.657
   52        0.865   1.788   0.000   2.653
   53        0.883   1.693   0.000   2.576
   54        0.866   1.782   0.000   2.648
   55        0.869   1.627   0.000   2.496
   56        0.858   1.752   0.000   2.610
   57        0.870   1.794   0.000   2.663
   58        0.865   1.792   0.000   2.657
   59        0.866   1.786   0.000   2.651
   60        0.864   1.786   0.000   2.650
   61        0.866   1.787   0.000   2.653
   62        0.866   1.795   0.000   2.660
   63        0.865   1.785   0.000   2.650
   64        0.864   1.786   0.000   2.650
   65        0.865   1.777   0.000   2.642
   66        0.864   1.784   0.000   2.648
   67        0.866   1.769   0.000   2.635
   68        0.863   1.780   0.000   2.643
   69        0.863   1.766   0.000   2.629
   70        0.863   1.777   0.000   2.639
   71        0.410   6.454   4.354  11.218
   72        0.981   1.543   0.000   2.524
   73        1.626   3.527   0.000   5.153
--------------------------------------------------
tot         63.931 136.831   4.354 205.116
 


 magnetization (x)
 
# of ion       s       p       d       tot
------------------------------------------
    1       -0.000  -0.003   0.000  -0.003
    2        0.000   0.001   0.000   0.001
    3       -0.000  -0.002   0.000  -0.002
    4        0.000   0.003   0.000   0.003
    5       -0.000  -0.001   0.000  -0.001
    6        0.000   0.003   0.000   0.003
    7       -0.000  -0.003   0.000  -0.004
    8        0.000   0.001   0.000   0.001
    9       -0.000  -0.004   0.000  -0.004
   10        0.000   0.003   0.000   0.003
   11       -0.000  -0.003   0.000  -0.003
   12        0.000   0.003   0.000   0.003
   13       -0.000  -0.001   0.000  -0.001
   14        0.000   0.002   0.000   0.002
   15       -0.000  -0.003   0.000  -0.003
   16        0.000   0.003   0.000   0.003
   17       -0.000  -0.003   0.000  -0.003
   18        0.000  -0.002   0.000  -0.002
   19       -0.000  -0.001   0.000  -0.001
   20       -0.000   0.000   0.000  -0.000
   21        0.000   0.002   0.000   0.002
   22        0.000   0.002   0.000   0.002
   23       -0.000  -0.004   0.000  -0.004
   24        0.000   0.001   0.000   0.002
   25       -0.000  -0.003   0.000  -0.003
   26        0.000   0.003   0.000   0.003
   27       -0.000  -0.001   0.000  -0.002
   28        0.000   0.002   0.000   0.003
   29        0.000   0.001   0.000   0.001
   30       -0.004  -0.010   0.000  -0.014
   31        0.001   0.010   0.000   0.011
   32       -0.005  -0.019   0.000  -0.025
   33       -0.000   0.000   0.000   0.000
   34        0.000   0.000   0.000   0.000
   35       -0.000  -0.005   0.000  -0.005
   36        0.000   0.002   0.000   0.002
   37       -0.000  -0.002   0.000  -0.003
   38        0.000   0.001   0.000   0.001
   39       -0.000  -0.004   0.000  -0.004
   40        0.000   0.001   0.000   0.001
   41        0.000  -0.006   0.000  -0.005
   42        0.001   0.007   0.000   0.009
   43        0.001  -0.004   0.000  -0.003
   44        0.002   0.006   0.000   0.008
   45       -0.000  -0.003   0.000  -0.003
   46        0.000   0.001   0.000   0.001
   47       -0.000  -0.002   0.000  -0.002
   48        0.000   0.001   0.000   0.001
   49       -0.000  -0.001   0.000  -0.001
   50        0.000   0.002   0.000   0.002
   51       -0.000  -0.004   0.000  -0.005
   52        0.000   0.007   0.000   0.007
   53       -0.007  -0.043   0.000  -0.051
   54        0.002   0.019   0.000   0.021
   55       -0.006  -0.033   0.000  -0.040
   56        0.001   0.012   0.000   0.013
   57       -0.000  -0.004   0.000  -0.004
   58        0.000   0.004   0.000   0.004
   59       -0.000  -0.002   0.000  -0.002
   60        0.000   0.004   0.000   0.004
   61       -0.000  -0.003   0.000  -0.003
   62        0.000   0.002   0.000   0.003
   63       -0.000  -0.003   0.000  -0.003
   64        0.000   0.004   0.000   0.005
   65       -0.001  -0.004   0.000  -0.005
   66        0.000   0.004   0.000   0.004
   67       -0.001  -0.014   0.000  -0.016
   68        0.000   0.004   0.000   0.004
   69       -0.001  -0.003   0.000  -0.004
   70        0.000   0.003   0.000   0.003
   71        0.012   0.013   0.919   0.944
   72       -0.003   0.019   0.000   0.016
   73        0.001   0.050   0.000   0.051
--------------------------------------------------
tot         -0.007  -0.001   0.919   0.911
 
 BZINTS: Fermi energy: -2.242061;303.000000 electrons
         Band energy:***********;  BLOECHL correction:  0.000000

 total amount of memory used by VASP MPI-rank0   115989. kBytes
=======================================================================

   base      :      30000. kBytes
   nonl-proj :      27264. kBytes
   fftplans  :       4700. kBytes
   grid      :      15193. kBytes
   one-center:        217. kBytes
   wavefun   :      38615. kBytes
 
  
  
 General timing and accounting informations for this job:
 ========================================================
  
                  Total CPU time used (sec):      265.865
                            User time (sec):      257.831
                          System time (sec):        8.034
                         Elapsed time (sec):      278.902
  
                   Maximum memory used (kb):      472512.
                   Average memory used (kb):           0.
  
                          Minor page faults:      1290086
                          Major page faults:            0
                 Voluntary context switches:         8306
