 vasp.5.4.4.18Apr17-6-g9f103f2a35 (build Nov  8 2022 18:58:45) complex           
 executed on             LinuxGNU date 2023.04.13  15:54:38
 running on   48 total cores
 distrk:  each k-point on   48 cores,    1 groups
 distr:  one band on NCORES_PER_BAND=  12 cores,    4 groups


--------------------------------------------------------------------------------------------------------


 INCAR:
 POTCAR:    PAW_PBE C 08Apr2002                   
 POTCAR:    PAW_PBE N 08Apr2002                   
 POTCAR:    PAW_PBE Ge_d 03Jul2007                
 POTCAR:    PAW_PBE C 08Apr2002                   
 POTCAR:    PAW_PBE O 08Apr2002                   
 POTCAR:    PAW_PBE C 08Apr2002                   
   SHA256 =  253f7b50bb8d59471dbedb8285d89021f4a42ed1a2c5d38a03a736e69125dd95 C/
   COPYR  = (c) Copyright 08Apr2002 Georg Kresse                                
   COPYR  = This file is part of the software VASP. Any use, copying, and all ot
   COPYR  = If you do not have a valid VASP license, you may not use, copy or di
   VRHFIN =C: s2p2                                                              
   LEXCH  = PE                                                                  
   EATOM  =   147.1560 eV,   10.8157 Ry                                         
                                                                                
   TITEL  = PAW_PBE C 08Apr2002                                                 
   LULTRA =        F    use ultrasoft PP ?                                      
   IUNSCR =        1    unscreen: 0-lin 1-nonlin 2-no                           
   RPACOR =    1.200    partial core radius                                     
   POMASS =   12.011; ZVAL   =    4.000    mass and valenz                      
   RCORE  =    1.500    outmost cutoff radius                                   
   RWIGS  =    1.630; RWIGS  =    0.863    wigner-seitz radius (au A)           
   ENMAX  =  400.000; ENMIN  =  300.000 eV                                      
   ICORE  =        2    local potential                                         
   LCOR   =        T    correct aug charges                                     
   LPAW   =        T    paw PP                                                  
   EAUG   =  644.873                                                            
   DEXC   =    0.000                                                            
   RMAX   =    1.529    core radius for proj-oper                               
   RAUG   =    1.300    factor for augmentation sphere                          
   RDEP   =    1.501    radius for radial grids                                 
   RDEPT  =    1.300    core radius for aug-charge                              
                                                                                
   Atomic configuration                                                         
    4 entries                                                                   
     n  l   j            E        occ.                                          
     1  0  0.50      -273.3789   2.0000                                         
     2  0  0.50       -13.7508   2.0000                                         
     2  1  0.50        -5.2854   2.0000                                         
     3  2  1.50        -5.4423   0.0000                                         
   Description                                                                  
     l       E           TYP  RCUT    TYP  RCUT                                 
     0    -13.7508458     23  1.200                                             
     0     -8.2022199     23  1.200                                             
     1     -5.2854383     23  1.500                                             
     1     34.0145650     23  1.500                                             
     2     -5.4423304      7  1.500                                             
  local pseudopotential read in
  partial core-charges read in
  partial kinetic energy density read in
  atomic valenz-charges read in
  non local Contribution for L=           0  read in
    real space projection operators read in
  non local Contribution for L=           0  read in
    real space projection operators read in
  non local Contribution for L=           1  read in
    real space projection operators read in
  non local Contribution for L=           1  read in
    real space projection operators read in
    PAW grid and wavefunctions read in

   number of l-projection  operators is LMAX  =           4
   number of lm-projection operators is LMMAX =           8

 POTCAR:    PAW_PBE N 08Apr2002                   
   SHA256 =  e053789ff3a61a86a1b75d8a110fcc91f86041011e7b0817c7c99e4e8a6349d7 N/
   COPYR  = (c) Copyright 08Apr2002 Georg Kresse                                
   COPYR  = This file is part of the software VASP. Any use, copying, and all ot
   COPYR  = If you do not have a valid VASP license, you may not use, copy or di
   VRHFIN =N: s2p3                                                              
   LEXCH  = PE                                                                  
   EATOM  =   264.5486 eV,   19.4438 Ry                                         
                                                                                
   TITEL  = PAW_PBE N 08Apr2002                                                 
   LULTRA =        F    use ultrasoft PP ?                                      
   IUNSCR =        1    unscreen: 0-lin 1-nonlin 2-no                           
   RPACOR =    1.200    partial core radius                                     
   POMASS =   14.001; ZVAL   =    5.000    mass and valenz                      
   RCORE  =    1.500    outmost cutoff radius                                   
   RWIGS  =    1.400; RWIGS  =    0.741    wigner-seitz radius (au A)           
   ENMAX  =  400.000; ENMIN  =  300.000 eV                                      
   ICORE  =        2    local potential                                         
   LCOR   =        T    correct aug charges                                     
   LPAW   =        T    paw PP                                                  
   EAUG   =  627.112                                                            
   DEXC   =    0.000                                                            
   RMAX   =    1.529    core radius for proj-oper                               
   RAUG   =    1.300    factor for augmentation sphere                          
   RDEP   =    1.514    radius for radial grids                                 
   RDEPT  =    1.338    core radius for aug-charge                              
                                                                                
   Atomic configuration                                                         
    4 entries                                                                   
     n  l   j            E        occ.                                          
     1  0  0.50      -384.7179   2.0000                                         
     2  0  0.50       -18.5828   2.0000                                         
     2  1  0.50        -7.0898   3.0000                                         
     3  2  1.50        -6.8029   0.0000                                         
   Description                                                                  
     l       E           TYP  RCUT    TYP  RCUT                                 
     0    -18.5828119     23  1.200                                             
     0    -13.5018863     23  1.200                                             
     1     -7.0897853     23  1.500                                             
     1      9.5240782     23  1.500                                             
     2     -6.8029130      7  1.500                                             
  local pseudopotential read in
  partial core-charges read in
  partial kinetic energy density read in
  atomic valenz-charges read in
  non local Contribution for L=           0  read in
    real space projection operators read in
  non local Contribution for L=           0  read in
    real space projection operators read in
  non local Contribution for L=           1  read in
    real space projection operators read in
  non local Contribution for L=           1  read in
    real space projection operators read in
    PAW grid and wavefunctions read in

   number of l-projection  operators is LMAX  =           4
   number of lm-projection operators is LMMAX =           8

 POTCAR:    PAW_PBE Ge_d 03Jul2007                
   SHA256 =  944b26c40d2d7c4f4eb1ff3a2e8dbfdd7129146276cd341854bfd5c0e57780ed Ge
   COPYR  = (c) Copyright 03Jul2007 Georg Kresse                                
   COPYR  = This file is part of the software VASP. Any use, copying, and all ot
   COPYR  = If you do not have a valid VASP license, you may not use, copy or di
   VRHFIN =Ge: 3d4s4p                                                           
   LEXCH  = PE                                                                  
   EATOM  =  2596.2402 eV,  190.8183 Ry                                         
                                                                                
   TITEL  = PAW_PBE Ge_d 03Jul2007                                              
   LULTRA =        F    use ultrasoft PP ?                                      
   IUNSCR =        1    unscreen: 0-lin 1-nonlin 2-no                           
   RPACOR =    2.000    partial core radius                                     
   POMASS =   72.610; ZVAL   =   14.000    mass and valenz                      
   RCORE  =    2.300    outmost cutoff radius                                   
   RWIGS  =    2.300; RWIGS  =    1.217    wigner-seitz radius (au A)           
   ENMAX  =  310.294; ENMIN  =  232.720 eV                                      
   ICORE  =        3    local potential                                         
   LCOR   =        T    correct aug charges                                     
   LPAW   =        T    paw PP                                                  
   EAUG   =  531.356                                                            
   DEXC   =    0.000                                                            
   RMAX   =    2.342    core radius for proj-oper                               
   RAUG   =    1.300    factor for augmentation sphere                          
   RDEP   =    2.318    radius for radial grids                                 
   RDEPT  =    1.783    core radius for aug-charge                              
                                                                                
   Atomic configuration                                                         
    9 entries                                                                   
     n  l   j            E        occ.                                          
     1  0  0.50    -10959.8463   2.0000                                         
     2  0  0.50     -1371.6056   2.0000                                         
     2  1  1.50     -1198.4791   6.0000                                         
     3  0  0.50      -168.4733   2.0000                                         
     3  1  1.50      -115.6019   6.0000                                         
     3  2  2.50       -29.3106  10.0000                                         
     4  0  0.50       -11.7309   2.0000                                         
     4  1  0.50        -3.8952   2.0000                                         
     4  3  2.50        -4.0817   0.0000                                         
   Description                                                                  
     l       E           TYP  RCUT    TYP  RCUT                                 
     2    -29.3105938     23  2.200                                             
     2    -13.6058260     23  2.200                                             
     0    -11.7309493     23  2.300                                             
     0     -7.4578696     23  2.300                                             
     1     -3.8952261     23  2.300                                             
     1      6.1178114     23  2.300                                             
     3     -1.3605826     23  2.300                                             
  local pseudopotential read in
  partial core-charges read in
  partial kinetic energy density read in
  atomic valenz-charges read in
  non local Contribution for L=           2  read in
    real space projection operators read in
  non local Contribution for L=           2  read in
    real space projection operators read in
  non local Contribution for L=           0  read in
    real space projection operators read in
  non local Contribution for L=           0  read in
    real space projection operators read in
  non local Contribution for L=           1  read in
    real space projection operators read in
  non local Contribution for L=           1  read in
    real space projection operators read in
    PAW grid and wavefunctions read in

   number of l-projection  operators is LMAX  =           6
   number of lm-projection operators is LMMAX =          18

 POTCAR:    PAW_PBE C 08Apr2002                   
   SHA256 =  253f7b50bb8d59471dbedb8285d89021f4a42ed1a2c5d38a03a736e69125dd95 C/
   COPYR  = (c) Copyright 08Apr2002 Georg Kresse                                
   COPYR  = This file is part of the software VASP. Any use, copying, and all ot
   COPYR  = If you do not have a valid VASP license, you may not use, copy or di
   VRHFIN =C: s2p2                                                              
   LEXCH  = PE                                                                  
   EATOM  =   147.1560 eV,   10.8157 Ry                                         
                                                                                
   TITEL  = PAW_PBE C 08Apr2002                                                 
   LULTRA =        F    use ultrasoft PP ?                                      
   IUNSCR =        1    unscreen: 0-lin 1-nonlin 2-no                           
   RPACOR =    1.200    partial core radius                                     
   POMASS =   12.011; ZVAL   =    4.000    mass and valenz                      
   RCORE  =    1.500    outmost cutoff radius                                   
   RWIGS  =    1.630; RWIGS  =    0.863    wigner-seitz radius (au A)           
   ENMAX  =  400.000; ENMIN  =  300.000 eV                                      
   ICORE  =        2    local potential                                         
   LCOR   =        T    correct aug charges                                     
   LPAW   =        T    paw PP                                                  
   EAUG   =  644.873                                                            
   DEXC   =    0.000                                                            
   RMAX   =    1.529    core radius for proj-oper                               
   RAUG   =    1.300    factor for augmentation sphere                          
   RDEP   =    1.501    radius for radial grids                                 
   RDEPT  =    1.300    core radius for aug-charge                              
                                                                                
   Atomic configuration                                                         
    4 entries                                                                   
     n  l   j            E        occ.                                          
     1  0  0.50      -273.3789   2.0000                                         
     2  0  0.50       -13.7508   2.0000                                         
     2  1  0.50        -5.2854   2.0000                                         
     3  2  1.50        -5.4423   0.0000                                         
   Description                                                                  
     l       E           TYP  RCUT    TYP  RCUT                                 
     0    -13.7508458     23  1.200                                             
     0     -8.2022199     23  1.200                                             
     1     -5.2854383     23  1.500                                             
     1     34.0145650     23  1.500                                             
     2     -5.4423304      7  1.500                                             
  local pseudopotential read in
  partial core-charges read in
  partial kinetic energy density read in
  atomic valenz-charges read in
  non local Contribution for L=           0  read in
    real space projection operators read in
  non local Contribution for L=           0  read in
    real space projection operators read in
  non local Contribution for L=           1  read in
    real space projection operators read in
  non local Contribution for L=           1  read in
    real space projection operators read in
    PAW grid and wavefunctions read in

   number of l-projection  operators is LMAX  =           4
   number of lm-projection operators is LMMAX =           8

 POTCAR:    PAW_PBE O 08Apr2002                   
   SHA256 =  818f92134a0a090dccd8ba1447fa70422a3b330e708bb4f08108d8ae51209ddf O/
   COPYR  = (c) Copyright 08Apr2002 Georg Kresse                                
   COPYR  = This file is part of the software VASP. Any use, copying, and all ot
   COPYR  = If you do not have a valid VASP license, you may not use, copy or di
   VRHFIN =O: s2p4                                                              
   LEXCH  = PE                                                                  
   EATOM  =   432.3788 eV,   31.7789 Ry                                         
                                                                                
   TITEL  = PAW_PBE O 08Apr2002                                                 
   LULTRA =        F    use ultrasoft PP ?                                      
   IUNSCR =        1    unscreen: 0-lin 1-nonlin 2-no                           
   RPACOR =    1.200    partial core radius                                     
   POMASS =   16.000; ZVAL   =    6.000    mass and valenz                      
   RCORE  =    1.520    outmost cutoff radius                                   
   RWIGS  =    1.550; RWIGS  =    0.820    wigner-seitz radius (au A)           
   ENMAX  =  400.000; ENMIN  =  300.000 eV                                      
   ICORE  =        2    local potential                                         
   LCOR   =        T    correct aug charges                                     
   LPAW   =        T    paw PP                                                  
   EAUG   =  605.392                                                            
   DEXC   =    0.000                                                            
   RMAX   =    1.553    core radius for proj-oper                               
   RAUG   =    1.300    factor for augmentation sphere                          
   RDEP   =    1.550    radius for radial grids                                 
   RDEPT  =    1.329    core radius for aug-charge                              
                                                                                
   Atomic configuration                                                         
    4 entries                                                                   
     n  l   j            E        occ.                                          
     1  0  0.50      -514.6923   2.0000                                         
     2  0  0.50       -23.9615   2.0000                                         
     2  1  0.50        -9.0305   4.0000                                         
     3  2  1.50        -9.5241   0.0000                                         
   Description                                                                  
     l       E           TYP  RCUT    TYP  RCUT                                 
     0    -23.9615318     23  1.200                                             
     0     -9.5240782     23  1.200                                             
     1     -9.0304911     23  1.520                                             
     1      8.1634956     23  1.520                                             
     2     -9.5240782      7  1.500                                             
  local pseudopotential read in
  partial core-charges read in
  partial kinetic energy density read in
  kinetic energy density of atom read in
  atomic valenz-charges read in
  non local Contribution for L=           0  read in
    real space projection operators read in
  non local Contribution for L=           0  read in
    real space projection operators read in
  non local Contribution for L=           1  read in
    real space projection operators read in
  non local Contribution for L=           1  read in
    real space projection operators read in
    PAW grid and wavefunctions read in

   number of l-projection  operators is LMAX  =           4
   number of lm-projection operators is LMMAX =           8


 ----------------------------------------------------------------------------- 
|                                                                             |
|  ADVICE TO THIS USER RUNNING 'VASP/VAMP'   (HEAR YOUR MASTER'S VOICE ...):  |
|                                                                             |
|      You have a (more or less) 'large supercell' and for larger cells       |
|      it might be more efficient to use real space projection opertators     |
|      So try LREAL= Auto  in the INCAR   file.                               |
|      Mind:          For very  accurate calculation you might also keep the  |
|      reciprocal projection scheme          (i.e. LREAL=.FALSE.)             |
|                                                                             |
 ----------------------------------------------------------------------------- 

  PAW_PBE C 08Apr2002                   :
 energy of atom  1       EATOM= -147.1560
 kinetic energy error for atom=    0.0132 (will be added to EATOM!!)
  PAW_PBE N 08Apr2002                   :
 energy of atom  2       EATOM= -264.5486
 kinetic energy error for atom=    0.0298 (will be added to EATOM!!)
  PAW_PBE Ge_d 03Jul2007                :
 energy of atom  3       EATOM=-2596.2402
 kinetic energy error for atom=    0.0090 (will be added to EATOM!!)
  PAW_PBE C 08Apr2002                   :
 energy of atom  4       EATOM= -147.1560
 kinetic energy error for atom=    0.0132 (will be added to EATOM!!)
  PAW_PBE O 08Apr2002                   :
 energy of atom  5       EATOM= -432.3788
 kinetic energy error for atom=    0.0458 (will be added to EATOM!!)


 POSCAR: POSCAR-c3n4                             
  positions in direct lattice
  velocities in cartesian coordinates
 exchange correlation table for  LEXCH =        8
   RHO(1)=    0.500       N(1)  =     2000
   RHO(2)=  100.500       N(2)  =     4000



--------------------------------------------------------------------------------------------------------


 ion  position               nearest neighbor table
   1  0.006  0.162  0.470-  25 1.33  26 1.38  46 1.39
   2  0.356  0.383  0.439-  29 1.31  35 1.31
   3  0.035  0.330  0.465-  25 1.34  39 1.36  44 1.37
   4  0.526  0.114  0.505-  30 1.33  27 1.35  48 1.41
   5  0.502  0.397  0.448-  28 1.33  29 1.35  56 1.41
   6  0.011  0.018  0.475-  26 1.32  31 1.36  32 1.42
   7  0.026  0.727  0.484-  33 1.21  54 1.24
   8  0.403  0.956  0.496-  27 1.31  37 1.31
   9  0.007  0.873  0.498-  31 1.33  52 1.34  33 1.40
  10  0.474  0.531  0.486-  38 1.32  35 1.37  56 1.42
  11  0.550  0.973  0.496-  36 1.33  37 1.35  48 1.41
  12  0.095  0.506  0.484-  34 1.30  39 1.39  40 1.44  57 2.36
  13  0.662  0.268  0.506-  30 1.33  42 1.35  41 1.44
  14  0.809  0.420  0.468-  45 1.32  51 1.35  41 1.44
  15  0.651  0.420  0.476-  55 1.33  28 1.34  41 1.47
  16  0.864  0.018  0.505-  46 1.30  32 1.40  43 1.41
  17  0.927  0.385  0.447-  44 1.31  45 1.35  40 1.45
  18  0.687  0.139  0.525-  42 1.34  47 1.35  48 1.41
  19  0.608  0.685  0.511-  50 1.37  38 1.37  49 1.37
  20  0.726  0.853  0.536-  49 1.30  53 1.34  43 1.49
  21  0.702  0.002  0.518-  36 1.33  47 1.34  43 1.45
  22  0.964  0.552  0.480-  51 1.33  54 1.35  40 1.41
  23  0.877  0.876  0.544-  53 1.31  52 1.34  32 1.42
  24  0.636  0.556  0.493-  50 1.33  55 1.36  56 1.41
  25  0.060  0.261  0.468-   1 1.33   3 1.34
  26  0.055  0.113  0.458-   6 1.32   1 1.38
  27  0.429  0.049  0.503-   8 1.31   4 1.35
  28  0.563  0.363  0.443-   5 1.33  15 1.34
  29  0.408  0.343  0.425-   2 1.31   5 1.35
  30  0.565  0.212  0.504-   4 1.33  13 1.33
  31  0.052  0.962  0.464-   9 1.33   6 1.36
  32  0.915  0.969  0.507-  16 1.40  23 1.42   6 1.42
  33  0.044  0.811  0.481-   7 1.21   9 1.40
  34  0.172  0.592  0.500-  12 1.30  57 1.95
  35  0.377  0.468  0.469-   2 1.31  10 1.37
  36  0.611  0.939  0.496-  11 1.33  21 1.33
  37  0.453  0.911  0.489-   8 1.31  11 1.35
  38  0.508  0.624  0.507-  10 1.32  19 1.37
  39  0.106  0.424  0.484-   3 1.36  12 1.39  57 2.11
  40  0.997  0.485  0.472-  22 1.41  12 1.44  17 1.45
  41  0.707  0.371  0.486-  14 1.44  13 1.44  15 1.47
  42  0.721  0.236  0.529-  18 1.34  13 1.35
  43  0.763  0.960  0.521-  16 1.41  21 1.45  20 1.49
  44  0.947  0.314  0.440-  17 1.31   3 1.37
  45  0.835  0.363  0.434-  14 1.32  17 1.35
  46  0.907  0.111  0.486-  16 1.30   1 1.39
  47  0.741  0.098  0.538-  21 1.34  18 1.35
  48  0.587  0.075  0.506-  11 1.41   4 1.41  18 1.41
  49  0.638  0.784  0.515-  20 1.30  19 1.37
  50  0.671  0.652  0.505-  24 1.33  19 1.37
  51  0.869  0.516  0.487-  22 1.33  14 1.35
  52  0.929  0.832  0.545-  23 1.34   9 1.34
  53  0.788  0.831  0.570-  23 1.31  20 1.34
  54  0.030  0.650  0.482-   7 1.24  22 1.35
  55  0.691  0.514  0.498-  15 1.33  24 1.36
  56  0.536  0.493  0.477-   5 1.41  24 1.41  10 1.42
  57  0.241  0.527  0.535-  34 1.95  39 2.11  12 2.36
  58  0.233  0.557  0.732-  59 1.14
  59  0.258  0.550  0.791-  58 1.14


IMPORTANT INFORMATION: All symmetrisations will be switched off!
NOSYMM: (Re-)initialisation of all symmetry stuff for point group C_1.



 KPOINTS: K-Points                                

Automatic generation of k-mesh.
Space group operators:
 irot       det(A)        alpha          n_x          n_y          n_z        tau_x        tau_y        tau_z
    1     1.000000     0.000001     1.000000     0.000000     0.000000     0.000000     0.000000     0.000000
 
 Subroutine IBZKPT returns following result:
 ===========================================
 
 Found      5 irreducible k-points:
 
 Following reciprocal coordinates:
            Coordinates               Weight
  0.000000  0.000000  0.000000      1.000000
  0.333333  0.000000  0.000000      2.000000
  0.000000  0.333333  0.000000      2.000000
  0.333333  0.333333  0.000000      2.000000
 -0.333333  0.333333  0.000000      2.000000
 
 Following cartesian coordinates:
            Coordinates               Weight
  0.000000  0.000000  0.000000      1.000000
  0.024277  0.014368  0.000000      2.000000
  0.000396  0.028736  0.000000      2.000000
  0.024673  0.043104  0.000000      2.000000
 -0.023881  0.014368  0.000000      2.000000
 
 TETIRR: Found     24 inequivalent tetrahedra from       54


--------------------------------------------------------------------------------------------------------




 Dimension of arrays:
   k-points           NKPTS =      5   k-points in BZ     NKDIM =      5   number of bands    NBANDS=    172
   number of dos      NEDOS =   4000   number of ions     NIONS =     59
   non local maximal  LDIM  =      6   non local SUM 2l+1 LMDIM =     18
   total plane-waves  NPLWV = 635040
   max r-space proj   IRMAX =      1   max aug-charges    IRDMAX=   5879
   dimension x,y,z NGX =    84 NGY =   84 NGZ =   90
   dimension x,y,z NGXF=   168 NGYF=  168 NGZF=  180
   support grid    NGXF=   168 NGYF=  168 NGZF=  180
   ions per type =              24  32   1   1   1
   NGX,Y,Z   is equivalent  to a cutoff of   8.70,  8.86,  8.60 a.u.
   NGXF,Y,Z  is equivalent  to a cutoff of  17.39, 17.72, 17.20 a.u.

 SYSTEM =  unknown system                          
 POSCAR =  POSCAR-c3n4                             

 Startparameter for this run:
   NWRITE =      2    write-flag & timer
   PREC   = normal    normal or accurate (medium, high low for compatibility)
   ISTART =      0    job   : 0-new  1-cont  2-samecut
   ICHARG =      2    charge: 1-file 2-atom 10-const
   ISPIN  =      2    spin polarized calculation?
   LNONCOLLINEAR =      F non collinear calculations
   LSORBIT =      F    spin-orbit coupling
   INIWAV =      1    electr: 0-lowe 1-rand  2-diag
   LASPH  =      F    aspherical Exc in radial PAW
   METAGGA=      F    non-selfconsistent MetaGGA calc.

 Electronic Relaxation 1
   ENCUT  =  440.0 eV  32.34 Ry    5.69 a.u.  27.47 26.96 29.76*2*pi/ulx,y,z
   ENINI  =  440.0     initial cutoff
   ENAUG  =  644.9 eV  augmentation charge cutoff
   NELM   =    100;   NELMIN=  2; NELMDL= -5     # of ELM steps 
   EDIFF  = 0.1E-03   stopping-criterion for ELM
   LREAL  =      F    real-space projection
   NLSPLINE    = F    spline interpolate recip. space projectors
   LCOMPAT=      F    compatible to vasp.4.4
   GGA_COMPAT  = T    GGA compatible to vasp.4.4-vasp.4.6
   LMAXPAW     = -100 max onsite density
   LMAXMIX     =    2 max onsite mixed and CHGCAR
   VOSKOWN=      0    Vosko Wilk Nusair interpolation
   ROPT   =    0.00000   0.00000   0.00000   0.00000
   ROPT   =    0.00000
 Ionic relaxation
   EDIFFG = -.1E-01   stopping-criterion for IOM
   NSW    =      0    number of steps for IOM
   NBLOCK =      1;   KBLOCK =      1    inner block; outer block 
   IBRION =     -1    ionic relax: 0-MD 1-quasi-New 2-CG
   NFREE  =      0    steps in history (QN), initial steepest desc. (CG)
   ISIF   =      2    stress and relaxation
   IWAVPR =     10    prediction:  0-non 1-charg 2-wave 3-comb
   ISYM   =      0    0-nonsym 1-usesym 2-fastsym
   LCORR  =      T    Harris-Foulkes like correction to forces

   POTIM  = 0.5000    time-step for ionic-motion
   TEIN   =    0.0    initial temperature
   TEBEG  =    0.0;   TEEND  =   0.0 temperature during run
   SMASS  =  -3.00    Nose mass-parameter (am)
   estimated Nose-frequenzy (Omega)   =  0.10E-29 period in steps =****** mass=  -0.589E-26a.u.
   SCALEE = 1.0000    scale energy and forces
   NPACO  =    256;   APACO  = 16.0  distance and # of slots for P.C.
   PSTRESS=    0.0 pullay stress

  Mass of Ions in am
   POMASS =  12.01 14.00 72.61 12.01 16.00
  Ionic Valenz
   ZVAL   =   4.00  5.00 14.00  4.00  6.00
  Atomic Wigner-Seitz radii
   RWIGS  =  -1.00 -1.00 -1.00 -1.00 -1.00
  virtual crystal weights 
   VCA    =   1.00  1.00  1.00  1.00  1.00
   NELECT =     280.0000    total number of electrons
   NUPDOWN=      -1.0000    fix difference up-down

 DOS related values:
   EMIN   = -14.00;   EMAX   =  6.00  energy-range for DOS
   EFERMI =   0.00
   ISMEAR =    -5;   SIGMA  =   0.20  broadening in eV -4-tet -1-fermi 0-gaus

 Electronic relaxation 2 (details)
   IALGO  =     38    algorithm
   LDIAG  =      T    sub-space diagonalisation (order eigenvalues)
   LSUBROT=      F    optimize rotation matrix (better conditioning)
   TURBO    =      0    0=normal 1=particle mesh
   IRESTART =      0    0=no restart 2=restart with 2 vectors
   NREBOOT  =      0    no. of reboots
   NMIN     =      0    reboot dimension
   EREF     =   0.00    reference energy to select bands
   IMIX   =      4    mixing-type and parameters
     AMIX     =   0.25;   BMIX     =  0.00
     AMIX_MAG =   1.00;   BMIX_MAG =  0.00
     AMIN     =   0.10
     WC   =   100.;   INIMIX=   1;  MIXPRE=   1;  MAXMIX= -45

 Intra band minimization:
   WEIMIN = 0.0000     energy-eigenvalue tresh-hold
   EBREAK =  0.15E-06  absolut break condition
   DEPER  =   0.30     relativ break condition  

   TIME   =   0.40     timestep for ELM

  volume/ion in A,a.u.               =      63.72       430.04
  Fermi-wavevector in a.u.,A,eV,Ry     =   0.688770  1.301586  6.454658  0.474404
  Thomas-Fermi vector in A             =   1.769665

 Write flags
   LWAVE        =      F    write WAVECAR
   LDOWNSAMPLE  =      F    k-point downsampling of WAVECAR
   LCHARG       =      F    write CHGCAR
   LVTOT        =      F    write LOCPOT, total local potential
   LVHAR        =      F    write LOCPOT, Hartree potential only
   LELF         =      F    write electronic localiz. function (ELF)
   LORBIT       =     11    0 simple, 1 ext, 2 COOP (PROOUT), +10 PAW based schemes


 Dipole corrections
   LMONO  =      F    monopole corrections only (constant potential shift)
   LDIPOL =      F    correct potential (dipole corrections)
   IDIPOL =      0    1-x, 2-y, 3-z, 4-all directions 
   EPSILON=  1.0000000 bulk dielectric constant

 Exchange correlation treatment:
   GGA     =    --    GGA type
   LEXCH   =     8    internal setting for exchange type
   VOSKOWN=      0    Vosko Wilk Nusair interpolation
   LHFCALC =     F    Hartree Fock is set to
   LHFONE  =     F    Hartree Fock one center treatment
   AEXX    =    0.0000 exact exchange contribution

 Linear response parameters
   LEPSILON=     F    determine dielectric tensor
   LRPA    =     F    only Hartree local field effects (RPA)
   LNABLA  =     F    use nabla operator in PAW spheres
   LVEL    =     F    velocity operator in full k-point grid
   LINTERFAST=   F  fast interpolation
   KINTER  =     0    interpolate to denser k-point grid
   CSHIFT  =0.1000    complex shift for real part using Kramers Kronig
   OMEGAMAX=  -1.0    maximum frequency
   DEG_THRESHOLD= 0.2000000E-02 threshold for treating states as degnerate
   RTIME   =   -0.100 relaxation time in fs
  (WPLASMAI=    0.000 imaginary part of plasma frequency in eV, 0.658/RTIME)
   DFIELD  = 0.0000000 0.0000000 0.0000000 field for delta impulse in time

 Orbital magnetization related:
   ORBITALMAG=     F  switch on orbital magnetization
   LCHIMAG   =     F  perturbation theory with respect to B field
   DQ        =  0.001000  dq finite difference perturbation B field
   LLRAUG    =     F  two centre corrections for induced B field



--------------------------------------------------------------------------------------------------------


 Static calculation
 charge density and potential will be updated during run
 spin polarized calculation
 Variant of blocked Davidson
 Davidson routine will perform the subspace rotation
 perform sub-space diagonalisation
    after iterative eigenvector-optimisation
 modified Broyden-mixing scheme, WC =      100.0
 initial mixing is a Kerker type mixing with AMIX =  0.2500 and BMIX =      0.0001
 Hartree-type preconditioning will be used
 using additional bands           32
 reciprocal scheme for non local part
 use partial core corrections
 calculate Harris-corrections to forces   (improved forces if not selfconsistent)
 use gradient corrections 
 use of overlap-Matrix (Vanderbilt PP)
 Fermi weights with tetrahedron method with Bloechl corrections


--------------------------------------------------------------------------------------------------------


  energy-cutoff  :      440.00
  volume of cell :     3759.76
      direct lattice vectors                 reciprocal lattice vectors
    16.058372112 -0.221258950  0.000000000     0.062784801  0.037158719 -0.000000000
    -8.029186056 13.566421553  0.000000000     0.001023977  0.074317438 -0.000000000
     0.000000000  0.000000000 17.400000000    -0.000000000 -0.000000000  0.057471264

  length of vectors
    16.059896339 15.764378278 17.400000000     0.072956848  0.074324493  0.057471264



 k-points in units of 2pi/SCALE and weight: K-Points                                
   0.00000000  0.00000000  0.00000000       0.111
   0.02427679  0.01436804  0.00000000       0.222
   0.00039594  0.02873608  0.00000000       0.222
   0.02467273  0.04310411  0.00000000       0.222
  -0.02388085  0.01436804  0.00000000       0.222

 k-points in reciprocal lattice and weights: K-Points                                
   0.00000000  0.00000000  0.00000000       0.111
   0.33333333  0.00000000  0.00000000       0.222
   0.00000000  0.33333333  0.00000000       0.222
   0.33333333  0.33333333  0.00000000       0.222
  -0.33333333  0.33333333  0.00000000       0.222

 position of ions in fractional coordinates (direct lattice) 
   0.00608530  0.16219979  0.47022706
   0.35617727  0.38306182  0.43878955
   0.03489520  0.32977931  0.46495819
   0.52578377  0.11379156  0.50466490
   0.50201141  0.39692501  0.44754699
   0.01056231  0.01778520  0.47515829
   0.02604637  0.72692909  0.48436226
   0.40298849  0.95569167  0.49567832
   0.00719469  0.87296180  0.49753659
   0.47359799  0.53102695  0.48566774
   0.54997162  0.97254505  0.49647075
   0.09514251  0.50640057  0.48441271
   0.66164808  0.26782928  0.50584393
   0.80882293  0.42016198  0.46821407
   0.65053875  0.41993506  0.47599222
   0.86427207  0.01845940  0.50525562
   0.92745975  0.38522674  0.44673518
   0.68664292  0.13852415  0.52533951
   0.60781239  0.68512738  0.51055618
   0.72581835  0.85278686  0.53614668
   0.70241043  0.00248256  0.51798046
   0.96394206  0.55150673  0.48029173
   0.87727923  0.87572002  0.54392083
   0.63590907  0.55611255  0.49321299
   0.05983814  0.26107202  0.46808846
   0.05489370  0.11307966  0.45783811
   0.42859766  0.04881366  0.50286845
   0.56267562  0.36325985  0.44324459
   0.40807883  0.34295746  0.42478186
   0.56471692  0.21163299  0.50351303
   0.05183606  0.96236733  0.46437138
   0.91492272  0.96857751  0.50676327
   0.04394115  0.81147385  0.48082887
   0.17237791  0.59164131  0.49979942
   0.37698787  0.46830386  0.46866994
   0.61069656  0.93915305  0.49594025
   0.45261352  0.91148873  0.48900775
   0.50844014  0.62362651  0.50696226
   0.10590576  0.42417620  0.48428324
   0.99732581  0.48527062  0.47181136
   0.70678270  0.37149743  0.48610390
   0.72137261  0.23608083  0.52851663
   0.76309939  0.95959902  0.52071792
   0.94715475  0.31448700  0.43989261
   0.83487861  0.36263811  0.43409360
   0.90692167  0.11135037  0.48614965
   0.74129135  0.09786302  0.53829976
   0.58726260  0.07475793  0.50592588
   0.63830533  0.78402979  0.51514143
   0.67127900  0.65220172  0.50454049
   0.86912204  0.51644875  0.48655262
   0.92944293  0.83175616  0.54457826
   0.78754394  0.83118442  0.57004436
   0.02984388  0.65025294  0.48230864
   0.69122089  0.51416797  0.49821245
   0.53564790  0.49287439  0.47691979
   0.24086881  0.52692111  0.53543565
   0.23314691  0.55749888  0.73155924
   0.25807463  0.54984753  0.79127214

 position of ions in cartesian coordinates  (Angst):
  -1.20461234  2.19912428  8.18195086
   2.64395259  5.11797073  7.63493818
  -2.08749933  4.46620427  8.09027246
   7.52957774  1.42740996  8.78116926
   4.87450124  5.27377748  7.78731755
   0.02681291  0.23894450  8.26775432
  -5.41838651  9.85606342  8.42790330
  -1.20208710 12.87615131  8.62480270
  -6.89363768 11.84137589  8.65713664
   3.34149865  7.09934763  8.45061871
   1.02290382 13.07226993  8.63859099
  -2.53815052  6.84899249  8.42878118
   8.47453996  3.48708935  8.80168436
   9.61482081  5.52113529  8.14692483
   7.07485654  5.55307854  8.28226463
  13.73058858  0.05920012  8.79144780
  11.80043663  5.02093955  7.77319217
   9.91413140  1.72735111  9.14090745
   4.25946233  9.16024286  8.88367759
   4.80827673 11.40867224  9.32895221
  11.25963511 -0.12173520  9.01286000
  11.05119007  7.26869202  8.35707611
   7.05635736 11.68628114  9.46422241
   5.74653338  7.40375667  8.58190610
  -1.13529274  3.52857331  8.14473912
  -0.02643421  1.52194061  7.96638320
   6.49064666  0.56739565  8.74991106
   6.11897350  4.80363921  7.71245579
   3.79941254  4.56241433  7.39120441
   7.36919381  2.74615373  8.76112666
  -6.89462360 13.04441172  8.08006202
   6.91528043 12.93769595  8.81768092
  -5.80985117 10.99907398  8.36642233
  -1.98228950  7.98831527  8.69650997
   2.29371261  6.26979567  8.15485693
   2.26615803 12.60582411  8.62936029
  -0.05027631 12.26549562  8.50873491
   3.15750774  8.34788315  8.82114341
  -1.70511549  5.73112049  8.42652839
  12.11910093  6.36271850  8.20951759
   8.36695754  4.88350877  8.45820791
   9.68853294  3.04316193  9.19618943
   4.54933485 12.84948221  9.06049185
  12.68468883  4.05689678  7.65413148
  10.49510245  4.73497712  7.55322856
  13.66963280  1.30996154  8.45900383
  11.11817199  1.16363363  9.36641579
   8.83023601  0.88426051  8.80311026
   3.95502347 10.49524785  8.96346081
   5.54299905  8.69951700  8.77900445
   9.81002205  6.81406048  8.46601553
   8.24701539 11.07830716  9.47566168
   5.97293933 11.10194713  9.91877189
  -4.74175764  8.81500228  8.39217038
   6.97153200  6.82248063  8.66889663
   4.64425313  6.56802483  8.29840435
  -0.36278662  7.09513952  9.31658039
  -0.73230243  7.51167900 12.72913075
  -0.27056965  7.40236202 13.76813522



--------------------------------------------------------------------------------------------------------


 k-point  1 :   0.0000 0.0000 0.0000  plane waves:   78775
 k-point  2 :   0.3333 0.0000 0.0000  plane waves:   78780
 k-point  3 :   0.0000 0.3333 0.0000  plane waves:   78881
 k-point  4 :   0.3333 0.3333 0.0000  plane waves:   78786
 k-point  5 :  -0.3333 0.3333 0.0000  plane waves:   78788

 maximum and minimum number of plane-waves per node :      6593     6539

 maximum number of plane-waves:     78881
 maximum index in each direction: 
   IXMAX=   27   IYMAX=   26   IZMAX=   29
   IXMIN=  -27   IYMIN=  -27   IZMIN=  -29


 parallel 3D FFT for wavefunctions:
    minimum data exchange during FFTs selected (reduces bandwidth)
 parallel 3D FFT for charge:
    minimum data exchange during FFTs selected (reduces bandwidth)


 total amount of memory used by VASP MPI-rank0   128048. kBytes
=======================================================================

   base      :      30000. kBytes
   nonl-proj :      29826. kBytes
   fftplans  :       5599. kBytes
   grid      :      16950. kBytes
   one-center:        155. kBytes
   wavefun   :      45518. kBytes

     INWAV:  cpu time    0.0001: real time    0.0003
 Broyden mixing: mesh for mixing (old mesh)
   NGX = 55   NGY = 53   NGZ = 59
  (NGX  =168   NGY  =168   NGZ  =180)
  gives a total of 171985 points

 initial charge density was supplied:
 charge density of overlapping atoms calculated
 number of electron     280.0000000 magnetization       2.0000000
 keeping initial charge density in first step


--------------------------------------------------------------------------------------------------------


 Maximum index for augmentation-charges          209 (set IRDMAX)


--------------------------------------------------------------------------------------------------------


 First call to EWALD:  gamma=   0.114
 Maximum number of real-space cells 3x 3x 3
 Maximum number of reciprocal cells 3x 3x 3

    FEWALD:  cpu time    0.0022: real time    0.0022


--------------------------------------- Iteration      1(   1)  ---------------------------------------


    POTLOK:  cpu time    0.1963: real time    0.2044
    SETDIJ:  cpu time    0.0101: real time    0.0103
     EDDAV:  cpu time   21.2128: real time   21.2505
 BZINTS: Fermi energy:  7.258729;280.000000 electrons
         Band energy:***********;  BLOECHL correction: -0.005982
       DOS:  cpu time    0.0872: real time    0.0872
    --------------------------------------------
      LOOP:  cpu time   21.5065: real time   21.5524

 eigenvalue-minimisations  :  4288
 total energy-change (2. order) : 0.2616326E+04  (-0.9688251E+04)
 number of electron     280.0000000 magnetization       2.0000000
 augmentation part      280.0000000 magnetization       2.0000000

 Free energy of the ion-electron system (eV)
  ---------------------------------------------------
  alpha Z        PSCENC =        99.10745193
  Ewald energy   TEWEN  =     29480.92643939
  -Hartree energ DENC   =    -41154.18488806
  -exchange      EXHF   =         0.00000000
  -V(xc)+E(xc)   XCENC  =      1060.29303968
  PAW double counting   =     11453.83848114   -11942.90478952
  entropy T*S    EENTRO =         0.00000000
  eigenvalues    EBANDS =     -1552.48559842
  atomic energy  EATOM  =     15171.73615219
  Solvation  Ediel_sol  =         0.00000000
  ---------------------------------------------------
  free energy    TOTEN  =      2616.32628831 eV

  energy without entropy =     2616.32628831  energy(sigma->0) =     2616.32628831


--------------------------------------------------------------------------------------------------------




--------------------------------------- Iteration      1(   2)  ---------------------------------------


     EDDAV:  cpu time   23.6152: real time   23.6616
 BZINTS: Fermi energy: -0.292050;280.000000 electrons
         Band energy:***********;  BLOECHL correction: -0.015346
       DOS:  cpu time    0.0239: real time    0.0239
    --------------------------------------------
      LOOP:  cpu time   23.6391: real time   23.6856

 eigenvalue-minimisations  :  5068
 total energy-change (2. order) :-0.2430823E+04  (-0.2317608E+04)
 number of electron     280.0000000 magnetization       2.0000000
 augmentation part      280.0000000 magnetization       2.0000000

 Free energy of the ion-electron system (eV)
  ---------------------------------------------------
  alpha Z        PSCENC =        99.10745193
  Ewald energy   TEWEN  =     29480.92643939
  -Hartree energ DENC   =    -41154.18488806
  -exchange      EXHF   =         0.00000000
  -V(xc)+E(xc)   XCENC  =      1060.29303968
  PAW double counting   =     11453.83848114   -11942.90478952
  entropy T*S    EENTRO =         0.00000000
  eigenvalues    EBANDS =     -3983.30890380
  atomic energy  EATOM  =     15171.73615219
  Solvation  Ediel_sol  =         0.00000000
  ---------------------------------------------------
  free energy    TOTEN  =       185.50298294 eV

  energy without entropy =      185.50298294  energy(sigma->0) =      185.50298294


--------------------------------------------------------------------------------------------------------




--------------------------------------- Iteration      1(   3)  ---------------------------------------


     EDDAV:  cpu time   19.9566: real time   19.9831
 BZINTS: Fermi energy: -5.259112;280.000000 electrons
         Band energy:***********;  BLOECHL correction: -0.006182
       DOS:  cpu time    0.0259: real time    0.0259
    --------------------------------------------
      LOOP:  cpu time   19.9825: real time   20.0091

 eigenvalue-minimisations  :  4104
 total energy-change (2. order) :-0.6711247E+03  (-0.6656698E+03)
 number of electron     280.0000000 magnetization       2.0000000
 augmentation part      280.0000000 magnetization       2.0000000

 Free energy of the ion-electron system (eV)
  ---------------------------------------------------
  alpha Z        PSCENC =        99.10745193
  Ewald energy   TEWEN  =     29480.92643939
  -Hartree energ DENC   =    -41154.18488806
  -exchange      EXHF   =         0.00000000
  -V(xc)+E(xc)   XCENC  =      1060.29303968
  PAW double counting   =     11453.83848114   -11942.90478952
  entropy T*S    EENTRO =         0.00000000
  eigenvalues    EBANDS =     -4654.43362104
  atomic energy  EATOM  =     15171.73615219
  Solvation  Ediel_sol  =         0.00000000
  ---------------------------------------------------
  free energy    TOTEN  =      -485.62173431 eV

  energy without entropy =     -485.62173431  energy(sigma->0) =     -485.62173431


--------------------------------------------------------------------------------------------------------




--------------------------------------- Iteration      1(   4)  ---------------------------------------


     EDDAV:  cpu time   20.4595: real time   20.4972
 BZINTS: Fermi energy: -5.819148;280.000000 electrons
         Band energy:***********;  BLOECHL correction: -0.002170
       DOS:  cpu time    0.0266: real time    0.0266
    --------------------------------------------
      LOOP:  cpu time   20.4861: real time   20.5238

 eigenvalue-minimisations  :  4240
 total energy-change (2. order) :-0.3510654E+02  (-0.3422462E+02)
 number of electron     280.0000000 magnetization       2.0000000
 augmentation part      280.0000000 magnetization       2.0000000

 Free energy of the ion-electron system (eV)
  ---------------------------------------------------
  alpha Z        PSCENC =        99.10745193
  Ewald energy   TEWEN  =     29480.92643939
  -Hartree energ DENC   =    -41154.18488806
  -exchange      EXHF   =         0.00000000
  -V(xc)+E(xc)   XCENC  =      1060.29303968
  PAW double counting   =     11453.83848114   -11942.90478952
  entropy T*S    EENTRO =         0.00000000
  eigenvalues    EBANDS =     -4689.54015805
  atomic energy  EATOM  =     15171.73615219
  Solvation  Ediel_sol  =         0.00000000
  ---------------------------------------------------
  free energy    TOTEN  =      -520.72827132 eV

  energy without entropy =     -520.72827132  energy(sigma->0) =     -520.72827132


--------------------------------------------------------------------------------------------------------




--------------------------------------- Iteration      1(   5)  ---------------------------------------


     EDDAV:  cpu time   22.9164: real time   22.9537
 BZINTS: Fermi energy: -5.845461;280.000000 electrons
         Band energy:***********;  BLOECHL correction:  0.000000
       DOS:  cpu time    0.0191: real time    0.0191
    CHARGE:  cpu time    0.3304: real time    0.3305
    MIXING:  cpu time    0.0062: real time    0.0072
    --------------------------------------------
      LOOP:  cpu time   23.2721: real time   23.3105

 eigenvalue-minimisations  :  4896
 total energy-change (2. order) :-0.1470913E+01  (-0.1450560E+01)
 number of electron     279.9999906 magnetization       0.0000001
 augmentation part       20.1500224 magnetization       0.0296304

 Broyden mixing:
  rms(total) = 0.42369E+01    rms(broyden)= 0.42336E+01
  rms(prec ) = 0.46077E+01
  weight for this iteration     100.00

 Free energy of the ion-electron system (eV)
  ---------------------------------------------------
  alpha Z        PSCENC =        99.10745193
  Ewald energy   TEWEN  =     29480.92643939
  -Hartree energ DENC   =    -41154.18488806
  -exchange      EXHF   =         0.00000000
  -V(xc)+E(xc)   XCENC  =      1060.29303968
  PAW double counting   =     11453.83848114   -11942.90478952
  entropy T*S    EENTRO =         0.00000000
  eigenvalues    EBANDS =     -4691.01107076
  atomic energy  EATOM  =     15171.73615219
  Solvation  Ediel_sol  =         0.00000000
  ---------------------------------------------------
  free energy    TOTEN  =      -522.19918402 eV

  energy without entropy =     -522.19918402  energy(sigma->0) =     -522.19918402


--------------------------------------------------------------------------------------------------------




--------------------------------------- Iteration      1(   6)  ---------------------------------------


    POTLOK:  cpu time    0.1749: real time    0.1789
    SETDIJ:  cpu time    0.0089: real time    0.0089
     EDDAV:  cpu time   21.4955: real time   21.5198
 BZINTS: Fermi energy: -5.896724;280.000000 electrons
         Band energy:***********;  BLOECHL correction:  0.000000
       DOS:  cpu time    0.0189: real time    0.0189
    CHARGE:  cpu time    0.3177: real time    0.3178
    MIXING:  cpu time    0.0055: real time    0.0091
    --------------------------------------------
      LOOP:  cpu time   22.0213: real time   22.0534

 eigenvalue-minimisations  :  4504
 total energy-change (2. order) : 0.2376101E+02  (-0.1449367E+02)
 number of electron     279.9999906 magnetization      -0.0000001
 augmentation part       18.9807217 magnetization       0.0083208

 Broyden mixing:
  rms(total) = 0.27145E+01    rms(broyden)= 0.27139E+01
  rms(prec ) = 0.29564E+01
  weight for this iteration     100.00

 eigenvalues of (default mixing * dielectric matrix)
  average eigenvalue GAMMA=   1.1602
  1.1602

 Free energy of the ion-electron system (eV)
  ---------------------------------------------------
  alpha Z        PSCENC =        99.10745193
  Ewald energy   TEWEN  =     29480.92643939
  -Hartree energ DENC   =    -41470.05684011
  -exchange      EXHF   =         0.00000000
  -V(xc)+E(xc)   XCENC  =      1075.75224527
  PAW double counting   =     14932.11149442   -15423.55198312
  entropy T*S    EENTRO =         0.00000000
  eigenvalues    EBANDS =     -4364.46313375
  atomic energy  EATOM  =     15171.73615219
  Solvation  Ediel_sol  =         0.00000000
  ---------------------------------------------------
  free energy    TOTEN  =      -498.43817378 eV

  energy without entropy =     -498.43817378  energy(sigma->0) =     -498.43817378


--------------------------------------------------------------------------------------------------------




--------------------------------------- Iteration      1(   7)  ---------------------------------------


    POTLOK:  cpu time    0.1693: real time    0.1771
    SETDIJ:  cpu time    0.0087: real time    0.0087
     EDDAV:  cpu time   22.1291: real time   22.1527
 BZINTS: Fermi energy: -5.356589;280.000000 electrons
         Band energy:***********;  BLOECHL correction:  0.000000
       DOS:  cpu time    0.0190: real time    0.0190
    CHARGE:  cpu time    0.3234: real time    0.3234
    MIXING:  cpu time    0.0052: real time    0.0057
    --------------------------------------------
      LOOP:  cpu time   22.6546: real time   22.6865

 eigenvalue-minimisations  :  4680
 total energy-change (2. order) : 0.6160131E+01  (-0.2617599E+01)
 number of electron     279.9999909 magnetization      -0.0000001
 augmentation part       18.6755309 magnetization       0.0021434

 Broyden mixing:
  rms(total) = 0.20358E+01    rms(broyden)= 0.20353E+01
  rms(prec ) = 0.22362E+01
  weight for this iteration     100.00

 eigenvalues of (default mixing * dielectric matrix)
  average eigenvalue GAMMA=   1.1374
  1.6647  0.6100

 Free energy of the ion-electron system (eV)
  ---------------------------------------------------
  alpha Z        PSCENC =        99.10745193
  Ewald energy   TEWEN  =     29480.92643939
  -Hartree energ DENC   =    -41660.52494499
  -exchange      EXHF   =         0.00000000
  -V(xc)+E(xc)   XCENC  =      1084.22717675
  PAW double counting   =     18215.88049538   -18709.40695150
  entropy T*S    EENTRO =         0.00000000
  eigenvalues    EBANDS =     -4174.22386154
  atomic energy  EATOM  =     15171.73615219
  Solvation  Ediel_sol  =         0.00000000
  ---------------------------------------------------
  free energy    TOTEN  =      -492.27804239 eV

  energy without entropy =     -492.27804239  energy(sigma->0) =     -492.27804239


--------------------------------------------------------------------------------------------------------




--------------------------------------- Iteration      1(   8)  ---------------------------------------


    POTLOK:  cpu time    0.1734: real time    0.1784
    SETDIJ:  cpu time    0.0089: real time    0.0089
     EDDAV:  cpu time   20.3131: real time   20.3413
 BZINTS: Fermi energy: -3.889972;280.000000 electrons
         Band energy:***********;  BLOECHL correction:  0.000000
       DOS:  cpu time    0.0183: real time    0.0183
    CHARGE:  cpu time    0.3224: real time    0.3235
    MIXING:  cpu time    0.0055: real time    0.0055
    --------------------------------------------
      LOOP:  cpu time   20.8415: real time   20.8758

 eigenvalue-minimisations  :  4200
 total energy-change (2. order) : 0.5958173E+01  (-0.1008831E+01)
 number of electron     279.9999906 magnetization       0.0000001
 augmentation part       18.4391668 magnetization      -0.0004281

 Broyden mixing:
  rms(total) = 0.14195E+01    rms(broyden)= 0.14191E+01
  rms(prec ) = 0.15299E+01
  weight for this iteration     100.00

 eigenvalues of (default mixing * dielectric matrix)
  average eigenvalue GAMMA=   1.5430
  2.9218  1.2406  0.4667

 Free energy of the ion-electron system (eV)
  ---------------------------------------------------
  alpha Z        PSCENC =        99.10745193
  Ewald energy   TEWEN  =     29480.92643939
  -Hartree energ DENC   =    -41813.09031248
  -exchange      EXHF   =         0.00000000
  -V(xc)+E(xc)   XCENC  =      1090.30877711
  PAW double counting   =     21571.95827538   -22067.92786562
  entropy T*S    EENTRO =         0.00000000
  eigenvalues    EBANDS =     -4019.33878690
  atomic energy  EATOM  =     15171.73615219
  Solvation  Ediel_sol  =         0.00000000
  ---------------------------------------------------
  free energy    TOTEN  =      -486.31986900 eV

  energy without entropy =     -486.31986900  energy(sigma->0) =     -486.31986900


--------------------------------------------------------------------------------------------------------




--------------------------------------- Iteration      1(   9)  ---------------------------------------


    POTLOK:  cpu time    0.1780: real time    0.1785
    SETDIJ:  cpu time    0.0087: real time    0.0087
     EDDAV:  cpu time   21.0277: real time   21.0579
 BZINTS: Fermi energy: -4.230058;280.000000 electrons
         Band energy:***********;  BLOECHL correction:  0.000000
       DOS:  cpu time    0.0169: real time    0.0169
    CHARGE:  cpu time    0.3196: real time    0.3200
    MIXING:  cpu time    0.0074: real time    0.0074
    --------------------------------------------
      LOOP:  cpu time   21.5583: real time   21.5895

 eigenvalue-minimisations  :  4400
 total energy-change (2. order) :-0.4061208E+01  (-0.7931156E+01)
 number of electron     279.9999909 magnetization      -0.0000000
 augmentation part       18.4168803 magnetization      -0.0003274

 Broyden mixing:
  rms(total) = 0.96815E+00    rms(broyden)= 0.96763E+00
  rms(prec ) = 0.12403E+01
  weight for this iteration     100.00

 eigenvalues of (default mixing * dielectric matrix)
  average eigenvalue GAMMA=   1.5911
  3.6186  1.3063  1.0208  0.4187

 Free energy of the ion-electron system (eV)
  ---------------------------------------------------
  alpha Z        PSCENC =        99.10745193
  Ewald energy   TEWEN  =     29480.92643939
  -Hartree energ DENC   =    -41922.91033123
  -exchange      EXHF   =         0.00000000
  -V(xc)+E(xc)   XCENC  =      1094.91482828
  PAW double counting   =     26901.31829006   -27401.17892859
  entropy T*S    EENTRO =         0.00000000
  eigenvalues    EBANDS =     -3914.29497911
  atomic energy  EATOM  =     15171.73615219
  Solvation  Ediel_sol  =         0.00000000
  ---------------------------------------------------
  free energy    TOTEN  =      -490.38107708 eV

  energy without entropy =     -490.38107708  energy(sigma->0) =     -490.38107708


--------------------------------------------------------------------------------------------------------




--------------------------------------- Iteration      1(  10)  ---------------------------------------


    POTLOK:  cpu time    0.1759: real time    0.1779
    SETDIJ:  cpu time    0.0086: real time    0.0086
     EDDAV:  cpu time   20.1969: real time   20.2261
 BZINTS: Fermi energy: -3.621155;280.000000 electrons
         Band energy:***********;  BLOECHL correction:  0.000000
       DOS:  cpu time    0.0181: real time    0.0181
    CHARGE:  cpu time    0.3217: real time    0.3217
    MIXING:  cpu time    0.0058: real time    0.0058
    --------------------------------------------
      LOOP:  cpu time   20.7270: real time   20.7582

 eigenvalue-minimisations  :  4184
 total energy-change (2. order) : 0.3662947E+01  (-0.2010252E+00)
 number of electron     279.9999909 magnetization       0.0000000
 augmentation part       18.3651500 magnetization      -0.0005216

 Broyden mixing:
  rms(total) = 0.71531E+00    rms(broyden)= 0.71524E+00
  rms(prec ) = 0.92129E+00
  weight for this iteration     100.00

 eigenvalues of (default mixing * dielectric matrix)
  average eigenvalue GAMMA=   1.5129
  3.6445  1.2182  1.1321  1.1321  0.4375

 Free energy of the ion-electron system (eV)
  ---------------------------------------------------
  alpha Z        PSCENC =        99.10745193
  Ewald energy   TEWEN  =     29480.92643939
  -Hartree energ DENC   =    -41939.90939711
  -exchange      EXHF   =         0.00000000
  -V(xc)+E(xc)   XCENC  =      1095.79136451
  PAW double counting   =     28869.67625709   -29370.31191362
  entropy T*S    EENTRO =         0.00000000
  eigenvalues    EBANDS =     -3893.73448425
  atomic energy  EATOM  =     15171.73615219
  Solvation  Ediel_sol  =         0.00000000
  ---------------------------------------------------
  free energy    TOTEN  =      -486.71812987 eV

  energy without entropy =     -486.71812987  energy(sigma->0) =     -486.71812987


--------------------------------------------------------------------------------------------------------




--------------------------------------- Iteration      1(  11)  ---------------------------------------


    POTLOK:  cpu time    0.1784: real time    0.1812
    SETDIJ:  cpu time    0.0088: real time    0.0088
     EDDAV:  cpu time   21.4943: real time   21.5244
 BZINTS: Fermi energy: -4.101275;280.000000 electrons
         Band energy:***********;  BLOECHL correction:  0.000000
       DOS:  cpu time    0.0184: real time    0.0184
    CHARGE:  cpu time    0.3251: real time    0.3251
    MIXING:  cpu time    0.0063: real time    0.0063
    --------------------------------------------
      LOOP:  cpu time   22.0313: real time   22.0641

 eigenvalue-minimisations  :  4480
 total energy-change (2. order) :-0.6463256E+00  (-0.3210033E+01)
 number of electron     279.9999906 magnetization       0.0000000
 augmentation part       18.3608918 magnetization      -0.0001321

 Broyden mixing:
  rms(total) = 0.71752E+00    rms(broyden)= 0.71661E+00
  rms(prec ) = 0.95715E+00
  weight for this iteration     100.00

 eigenvalues of (default mixing * dielectric matrix)
  average eigenvalue GAMMA=   1.4358
  3.8107  1.5679  1.0378  1.0378  0.4555  0.7049

 Free energy of the ion-electron system (eV)
  ---------------------------------------------------
  alpha Z        PSCENC =        99.10745193
  Ewald energy   TEWEN  =     29480.92643939
  -Hartree energ DENC   =    -41917.72120695
  -exchange      EXHF   =         0.00000000
  -V(xc)+E(xc)   XCENC  =      1094.95419547
  PAW double counting   =     29233.27518555   -29733.75336645
  entropy T*S    EENTRO =         0.00000000
  eigenvalues    EBANDS =     -3915.88930659
  atomic energy  EATOM  =     15171.73615219
  Solvation  Ediel_sol  =         0.00000000
  ---------------------------------------------------
  free energy    TOTEN  =      -487.36445548 eV

  energy without entropy =     -487.36445548  energy(sigma->0) =     -487.36445548


--------------------------------------------------------------------------------------------------------




--------------------------------------- Iteration      1(  12)  ---------------------------------------


    POTLOK:  cpu time    0.1799: real time    0.1817
    SETDIJ:  cpu time    0.0102: real time    0.0102
     EDDAV:  cpu time   19.8479: real time   19.8877
 BZINTS: Fermi energy: -3.464866;280.000000 electrons
         Band energy:***********;  BLOECHL correction:  0.000000
       DOS:  cpu time    0.0168: real time    0.0168
    CHARGE:  cpu time    0.3198: real time    0.3199
    MIXING:  cpu time    0.0067: real time    0.0067
    --------------------------------------------
      LOOP:  cpu time   20.3814: real time   20.4231

 eigenvalue-minimisations  :  4096
 total energy-change (2. order) : 0.1571917E+01  (-0.9177354E-01)
 number of electron     279.9999906 magnetization      -0.0000000
 augmentation part       18.3708803 magnetization      -0.0000542

 Broyden mixing:
  rms(total) = 0.61423E+00    rms(broyden)= 0.61418E+00
  rms(prec ) = 0.80930E+00
  weight for this iteration     100.00

 eigenvalues of (default mixing * dielectric matrix)
  average eigenvalue GAMMA=   1.3998
  3.7678  1.7747  1.2057  0.9485  0.4418  0.8299  0.8299

 Free energy of the ion-electron system (eV)
  ---------------------------------------------------
  alpha Z        PSCENC =        99.10745193
  Ewald energy   TEWEN  =     29480.92643939
  -Hartree energ DENC   =    -41908.50284902
  -exchange      EXHF   =         0.00000000
  -V(xc)+E(xc)   XCENC  =      1094.67019612
  PAW double counting   =     29633.58348524   -30134.01715002
  entropy T*S    EENTRO =         0.00000000
  eigenvalues    EBANDS =     -3923.29626398
  atomic energy  EATOM  =     15171.73615219
  Solvation  Ediel_sol  =         0.00000000
  ---------------------------------------------------
  free energy    TOTEN  =      -485.79253817 eV

  energy without entropy =     -485.79253817  energy(sigma->0) =     -485.79253817


--------------------------------------------------------------------------------------------------------




--------------------------------------- Iteration      1(  13)  ---------------------------------------


    POTLOK:  cpu time    0.1689: real time    0.1778
    SETDIJ:  cpu time    0.0087: real time    0.0087
     EDDAV:  cpu time   20.6528: real time   20.6840
 BZINTS: Fermi energy: -3.686172;280.000000 electrons
         Band energy:***********;  BLOECHL correction:  0.000000
       DOS:  cpu time    0.0175: real time    0.0175
    CHARGE:  cpu time    0.3425: real time    0.3426
    MIXING:  cpu time    0.0070: real time    0.0070
    --------------------------------------------
      LOOP:  cpu time   21.1972: real time   21.2374

 eigenvalue-minimisations  :  4304
 total energy-change (2. order) :-0.4954538E+00  (-0.1219825E+01)
 number of electron     279.9999909 magnetization      -0.0000000
 augmentation part       18.3810635 magnetization      -0.0000150

 Broyden mixing:
  rms(total) = 0.62594E+00    rms(broyden)= 0.62496E+00
  rms(prec ) = 0.82611E+00
  weight for this iteration     100.00

 eigenvalues of (default mixing * dielectric matrix)
  average eigenvalue GAMMA=   1.3677
  3.6783  2.1827  1.2368  1.1395  0.9002  0.4377  0.6834  0.6834

 Free energy of the ion-electron system (eV)
  ---------------------------------------------------
  alpha Z        PSCENC =        99.10745193
  Ewald energy   TEWEN  =     29480.92643939
  -Hartree energ DENC   =    -41899.88029181
  -exchange      EXHF   =         0.00000000
  -V(xc)+E(xc)   XCENC  =      1094.39231174
  PAW double counting   =     29659.12329379   -30159.38953307
  entropy T*S    EENTRO =         0.00000000
  eigenvalues    EBANDS =     -3932.30381612
  atomic energy  EATOM  =     15171.73615219
  Solvation  Ediel_sol  =         0.00000000
  ---------------------------------------------------
  free energy    TOTEN  =      -486.28799197 eV

  energy without entropy =     -486.28799197  energy(sigma->0) =     -486.28799197


--------------------------------------------------------------------------------------------------------




--------------------------------------- Iteration      1(  14)  ---------------------------------------


    POTLOK:  cpu time    0.1746: real time    0.1809
    SETDIJ:  cpu time    0.0087: real time    0.0087
     EDDAV:  cpu time   19.8669: real time   19.8927
 BZINTS: Fermi energy: -3.591148;280.000000 electrons
         Band energy:***********;  BLOECHL correction:  0.000000
       DOS:  cpu time    0.0180: real time    0.0180
    CHARGE:  cpu time    0.3215: real time    0.3215
    MIXING:  cpu time    0.0071: real time    0.0071
    --------------------------------------------
      LOOP:  cpu time   20.3967: real time   20.4289

 eigenvalue-minimisations  :  4080
 total energy-change (2. order) : 0.3546189E+00  (-0.5183249E+00)
 number of electron     279.9999906 magnetization      -0.0000000
 augmentation part       18.3812669 magnetization       0.0000435

 Broyden mixing:
  rms(total) = 0.60288E+00    rms(broyden)= 0.60217E+00
  rms(prec ) = 0.80073E+00
  weight for this iteration     100.00

 eigenvalues of (default mixing * dielectric matrix)
  average eigenvalue GAMMA=   1.3563
  3.6506  2.5244  1.4576  0.9746  0.9746  0.9542  0.4326  0.6191  0.6191

 Free energy of the ion-electron system (eV)
  ---------------------------------------------------
  alpha Z        PSCENC =        99.10745193
  Ewald energy   TEWEN  =     29480.92643939
  -Hartree energ DENC   =    -41891.59793155
  -exchange      EXHF   =         0.00000000
  -V(xc)+E(xc)   XCENC  =      1094.04173513
  PAW double counting   =     29699.25382947   -30199.36756803
  entropy T*S    EENTRO =         0.00000000
  eigenvalues    EBANDS =     -3940.03348157
  atomic energy  EATOM  =     15171.73615219
  Solvation  Ediel_sol  =         0.00000000
  ---------------------------------------------------
  free energy    TOTEN  =      -485.93337305 eV

  energy without entropy =     -485.93337305  energy(sigma->0) =     -485.93337305


--------------------------------------------------------------------------------------------------------




--------------------------------------- Iteration      1(  15)  ---------------------------------------


    POTLOK:  cpu time    0.1777: real time    0.1788
    SETDIJ:  cpu time    0.0087: real time    0.0087
     EDDAV:  cpu time   21.4062: real time   21.4306
 BZINTS: Fermi energy: -3.631158;280.000000 electrons
         Band energy:***********;  BLOECHL correction:  0.000000
       DOS:  cpu time    0.0171: real time    0.0171
    CHARGE:  cpu time    0.3235: real time    0.3243
    MIXING:  cpu time    0.0076: real time    0.0076
    --------------------------------------------
      LOOP:  cpu time   21.9407: real time   21.9670

 eigenvalue-minimisations  :  4468
 total energy-change (2. order) :-0.8701304E-01  (-0.6861602E+00)
 number of electron     279.9999909 magnetization      -0.0000000
 augmentation part       18.3839557 magnetization      -0.0000023

 Broyden mixing:
  rms(total) = 0.60040E+00    rms(broyden)= 0.59963E+00
  rms(prec ) = 0.79377E+00
  weight for this iteration     100.00

 eigenvalues of (default mixing * dielectric matrix)
  average eigenvalue GAMMA=   1.3440
  3.5873  2.8109  1.6239  0.7632  0.7632  1.1868  1.0160  0.8409  0.4590  0.3890

 Free energy of the ion-electron system (eV)
  ---------------------------------------------------
  alpha Z        PSCENC =        99.10745193
  Ewald energy   TEWEN  =     29480.92643939
  -Hartree energ DENC   =    -41888.17314012
  -exchange      EXHF   =         0.00000000
  -V(xc)+E(xc)   XCENC  =      1093.94063742
  PAW double counting   =     29757.99336340   -30258.02312839
  entropy T*S    EENTRO =         0.00000000
  eigenvalues    EBANDS =     -3943.52816190
  atomic energy  EATOM  =     15171.73615219
  Solvation  Ediel_sol  =         0.00000000
  ---------------------------------------------------
  free energy    TOTEN  =      -486.02038609 eV

  energy without entropy =     -486.02038609  energy(sigma->0) =     -486.02038609


--------------------------------------------------------------------------------------------------------




--------------------------------------- Iteration      1(  16)  ---------------------------------------


    POTLOK:  cpu time    0.1781: real time    0.1791
    SETDIJ:  cpu time    0.0088: real time    0.0088
     EDDAV:  cpu time   18.8412: real time   18.8621
 BZINTS: Fermi energy: -3.561140;280.000000 electrons
         Band energy:***********;  BLOECHL correction:  0.000000
       DOS:  cpu time    0.0176: real time    0.0176
    CHARGE:  cpu time    0.3140: real time    0.3140
    MIXING:  cpu time    0.0090: real time    0.0097
    --------------------------------------------
      LOOP:  cpu time   19.3687: real time   19.3914

 eigenvalue-minimisations  :  3784
 total energy-change (2. order) : 0.1787431E+00  (-0.2778225E-02)
 number of electron     279.9999909 magnetization      -0.0000000
 augmentation part       18.3846307 magnetization      -0.0000035

 Broyden mixing:
  rms(total) = 0.58631E+00    rms(broyden)= 0.58628E+00
  rms(prec ) = 0.77648E+00
  weight for this iteration     100.00

 eigenvalues of (default mixing * dielectric matrix)
  average eigenvalue GAMMA=   1.2821
  3.5626  2.5864  1.6467  1.2884  0.8909  0.8909  1.0052  0.7670  0.4289  0.5178
  0.5178

 Free energy of the ion-electron system (eV)
  ---------------------------------------------------
  alpha Z        PSCENC =        99.10745193
  Ewald energy   TEWEN  =     29480.92643939
  -Hartree energ DENC   =    -41886.82715083
  -exchange      EXHF   =         0.00000000
  -V(xc)+E(xc)   XCENC  =      1093.88230366
  PAW double counting   =     29775.19544267   -30275.20911838
  entropy T*S    EENTRO =         0.00000000
  eigenvalues    EBANDS =     -3944.65316357
  atomic energy  EATOM  =     15171.73615219
  Solvation  Ediel_sol  =         0.00000000
  ---------------------------------------------------
  free energy    TOTEN  =      -485.84164296 eV

  energy without entropy =     -485.84164296  energy(sigma->0) =     -485.84164296


--------------------------------------------------------------------------------------------------------




--------------------------------------- Iteration      1(  17)  ---------------------------------------


    POTLOK:  cpu time    0.1731: real time    0.1793
    SETDIJ:  cpu time    0.0086: real time    0.0086
     EDDAV:  cpu time   22.2271: real time   22.2544
 BZINTS: Fermi energy: -3.499875;280.000000 electrons
         Band energy:***********;  BLOECHL correction:  0.000000
       DOS:  cpu time    0.0168: real time    0.0168
    CHARGE:  cpu time    0.3241: real time    0.3250
    MIXING:  cpu time    0.0082: real time    0.0082
    --------------------------------------------
      LOOP:  cpu time   22.7581: real time   22.7924

 eigenvalue-minimisations  :  4720
 total energy-change (2. order) : 0.1478065E+00  (-0.4200854E-01)
 number of electron     279.9999906 magnetization       0.0000000
 augmentation part       18.3839459 magnetization       0.0000031

 Broyden mixing:
  rms(total) = 0.53279E+00    rms(broyden)= 0.53175E+00
  rms(prec ) = 0.70497E+00
  weight for this iteration     100.00

 eigenvalues of (default mixing * dielectric matrix)
  average eigenvalue GAMMA=   1.2748
  3.5932  2.6230  1.7795  1.2205  1.2205  0.7625  0.7625  1.0428  0.8530  0.4313
  0.5043  0.5043

 Free energy of the ion-electron system (eV)
  ---------------------------------------------------
  alpha Z        PSCENC =        99.10745193
  Ewald energy   TEWEN  =     29480.92643939
  -Hartree energ DENC   =    -41887.61972665
  -exchange      EXHF   =         0.00000000
  -V(xc)+E(xc)   XCENC  =      1093.90573674
  PAW double counting   =     29762.79783232   -30262.83597335
  entropy T*S    EENTRO =         0.00000000
  eigenvalues    EBANDS =     -3943.71174904
  atomic energy  EATOM  =     15171.73615219
  Solvation  Ediel_sol  =         0.00000000
  ---------------------------------------------------
  free energy    TOTEN  =      -485.69383647 eV

  energy without entropy =     -485.69383647  energy(sigma->0) =     -485.69383647


--------------------------------------------------------------------------------------------------------




--------------------------------------- Iteration      1(  18)  ---------------------------------------


    POTLOK:  cpu time    0.1715: real time    0.1787
    SETDIJ:  cpu time    0.0088: real time    0.0088
     EDDAV:  cpu time   20.6771: real time   20.7025
 BZINTS: Fermi energy: -3.584896;280.000000 electrons
         Band energy:***********;  BLOECHL correction:  0.000000
       DOS:  cpu time    0.0169: real time    0.0169
    CHARGE:  cpu time    0.3242: real time    0.3243
    MIXING:  cpu time    0.0097: real time    0.0099
    --------------------------------------------
      LOOP:  cpu time   21.2082: real time   21.2412

 eigenvalue-minimisations  :  4320
 total energy-change (2. order) :-0.2227390E+00  (-0.4502134E+00)
 number of electron     279.9999909 magnetization       0.0000000
 augmentation part       18.3853610 magnetization       0.0000220

 Broyden mixing:
  rms(total) = 0.59045E+00    rms(broyden)= 0.58979E+00
  rms(prec ) = 0.78194E+00
  weight for this iteration     100.00

 eigenvalues of (default mixing * dielectric matrix)
  average eigenvalue GAMMA=   1.2882
  3.5465  2.5003  2.0913  1.2911  1.2911  0.8744  0.8744  0.9853  0.9853  1.0376
  0.4372  0.4158  0.4158

 Free energy of the ion-electron system (eV)
  ---------------------------------------------------
  alpha Z        PSCENC =        99.10745193
  Ewald energy   TEWEN  =     29480.92643939
  -Hartree energ DENC   =    -41888.01708461
  -exchange      EXHF   =         0.00000000
  -V(xc)+E(xc)   XCENC  =      1093.93260622
  PAW double counting   =     29771.59032953   -30271.62383579
  entropy T*S    EENTRO =         0.00000000
  eigenvalues    EBANDS =     -3943.56863435
  atomic energy  EATOM  =     15171.73615219
  Solvation  Ediel_sol  =         0.00000000
  ---------------------------------------------------
  free energy    TOTEN  =      -485.91657550 eV

  energy without entropy =     -485.91657550  energy(sigma->0) =     -485.91657550


--------------------------------------------------------------------------------------------------------




--------------------------------------- Iteration      1(  19)  ---------------------------------------


    POTLOK:  cpu time    0.1792: real time    0.1825
    SETDIJ:  cpu time    0.0088: real time    0.0088
     EDDAV:  cpu time   19.3588: real time   19.3889
 BZINTS: Fermi energy: -3.531133;280.000000 electrons
         Band energy:***********;  BLOECHL correction:  0.000000
       DOS:  cpu time    0.0172: real time    0.0172
    CHARGE:  cpu time    0.3261: real time    0.3261
    MIXING:  cpu time    0.0088: real time    0.0088
    --------------------------------------------
      LOOP:  cpu time   19.8989: real time   19.9323

 eigenvalue-minimisations  :  3952
 total energy-change (2. order) : 0.1183390E+00  (-0.4140461E-03)
 number of electron     279.9999909 magnetization       0.0000000
 augmentation part       18.3840556 magnetization       0.0000146

 Broyden mixing:
  rms(total) = 0.57890E+00    rms(broyden)= 0.57887E+00
  rms(prec ) = 0.76721E+00
  weight for this iteration     100.00

 eigenvalues of (default mixing * dielectric matrix)
  average eigenvalue GAMMA=   1.3537
  3.4941  3.4941  2.2416  1.5696  1.2696  1.2696  0.7169  0.7169  0.9929  0.9303
  0.9303  0.4336  0.4461  0.4461

 Free energy of the ion-electron system (eV)
  ---------------------------------------------------
  alpha Z        PSCENC =        99.10745193
  Ewald energy   TEWEN  =     29480.92643939
  -Hartree energ DENC   =    -41888.44007540
  -exchange      EXHF   =         0.00000000
  -V(xc)+E(xc)   XCENC  =      1093.94566156
  PAW double counting   =     29767.16522023   -30267.20535285
  entropy T*S    EENTRO =         0.00000000
  eigenvalues    EBANDS =     -3943.03373352
  atomic energy  EATOM  =     15171.73615219
  Solvation  Ediel_sol  =         0.00000000
  ---------------------------------------------------
  free energy    TOTEN  =      -485.79823647 eV

  energy without entropy =     -485.79823647  energy(sigma->0) =     -485.79823647


--------------------------------------------------------------------------------------------------------




--------------------------------------- Iteration      1(  20)  ---------------------------------------


    POTLOK:  cpu time    0.1702: real time    0.1787
[...]
   0.417E+02 0.110E+03 0.116E+03   -.408E+02 -.113E+03 -.117E+03   -.517E+00 0.285E+01 0.113E+01   -.511E-01 -.621E-02 -.116E-01
   -.145E+03 -.388E+02 0.792E+02   0.147E+03 0.408E+02 -.802E+02   -.237E+01 -.193E+01 0.112E+01   0.306E-03 0.855E-02 -.216E-02
   -.383E+02 -.549E+02 0.141E+02   0.331E+02 0.520E+02 -.124E+02   0.533E+01 0.290E+01 -.172E+01   -.991E-02 -.681E-02 -.137E-02
   0.249E+03 0.172E+03 0.160E+02   -.255E+03 -.177E+03 -.154E+02   0.676E+01 0.561E+01 -.503E+00   0.387E-01 0.334E-01 -.262E-03
   -.152E+03 0.317E+01 0.663E+01   0.147E+03 -.305E+00 -.592E+01   0.445E+01 -.285E+01 -.669E+00   -.801E-02 0.153E-02 -.136E-02
   0.867E+02 0.839E+01 0.532E+01   -.892E+02 -.634E+01 -.460E+01   0.263E+01 -.181E+01 -.651E+00   -.199E-01 -.414E-01 -.154E-01
   0.711E+02 0.118E+03 0.387E+02   -.704E+02 -.121E+03 -.388E+02   -.461E+00 0.317E+01 0.802E-01   0.498E-01 0.124E-01 0.211E-02
   0.335E+02 -.898E+02 0.574E+02   -.305E+02 0.932E+02 -.575E+02   -.286E+01 -.330E+01 0.107E+00   0.836E-02 -.949E-02 -.162E-02
   0.628E+02 -.141E+02 -.566E+02   -.621E+02 0.109E+02 0.558E+02   -.585E+00 0.316E+01 0.835E+00   0.503E-03 0.179E-01 -.178E-02
   0.575E+02 -.502E+02 0.621E+02   -.542E+02 0.509E+02 -.617E+02   -.312E+01 -.558E+00 -.359E+00   -.191E-02 0.359E-02 -.177E-02
   -.108E+02 0.129E+02 0.269E+02   0.742E+01 -.117E+02 -.266E+02   0.334E+01 -.133E+01 -.236E+00   -.157E-01 0.469E-02 -.411E-02
   0.225E+01 -.118E+02 -.197E+02   -.225E+01 0.154E+02 0.189E+02   -.354E-01 -.347E+01 0.782E+00   0.677E-02 0.247E-02 -.139E-02
   -.113E+02 -.654E+00 0.150E+03   0.118E+02 -.174E+01 -.151E+03   -.534E+00 0.243E+01 0.681E+00   0.512E-02 0.664E-03 -.118E-02
   -.132E+02 -.604E+01 -.102E+03   0.156E+02 0.745E+01 0.103E+03   -.237E+01 -.141E+01 -.827E+00   0.149E-01 0.138E-01 0.183E-02
   0.507E+02 -.215E+02 -.303E+02   -.500E+02 0.212E+02 0.311E+02   -.667E+00 0.431E+00 -.819E+00   -.139E-02 -.170E-01 -.405E-02
   0.559E+02 0.120E+02 -.100E+03   -.541E+02 -.150E+02 0.992E+02   -.170E+01 0.297E+01 0.836E+00   0.572E-02 -.594E-02 -.795E-03
   -.305E+01 0.355E+02 -.437E+02   -.764E-01 -.338E+02 0.432E+02   0.312E+01 -.165E+01 0.501E+00   0.175E-01 0.155E-02 0.776E-03
   -.112E+02 -.124E+03 0.931E+01   0.824E+01 0.122E+03 -.104E+02   0.295E+01 0.143E+01 0.105E+01   -.159E-02 -.466E-02 -.103E-02
   -.805E+02 0.315E+02 -.157E+03   0.815E+02 -.339E+02 0.158E+03   -.101E+01 0.245E+01 -.167E+01   -.753E-03 -.442E-03 -.114E-02
   -.496E+02 -.317E+02 -.117E+02   0.517E+02 0.341E+02 0.120E+02   -.201E+01 -.238E+01 -.263E+00   -.148E-01 -.980E-02 -.502E-02
   -.226E+03 -.365E+02 0.684E+02   0.253E+03 0.466E+02 -.679E+02   -.273E+02 -.101E+02 -.562E+00   0.236E-01 0.104E-01 -.468E-02
   -.284E+03 -.127E+03 0.180E+03   0.311E+03 0.147E+03 -.193E+03   -.274E+02 -.194E+02 0.126E+02   0.834E-02 0.187E-01 -.328E-02
   0.361E+03 0.287E+02 -.279E+02   -.393E+03 -.171E+02 0.296E+02   0.320E+02 -.121E+02 -.186E+01   -.287E-02 0.105E+00 0.475E-02
   0.374E+02 0.215E+03 0.247E+03   -.300E+02 -.248E+03 -.262E+03   -.742E+01 0.326E+02 0.155E+02   -.391E-01 0.122E-01 -.656E-02
   0.661E+02 0.304E+03 0.258E+03   -.615E+02 -.334E+03 -.272E+03   -.478E+01 0.304E+02 0.146E+02   -.954E-01 0.211E-01 -.907E-03
   0.292E+03 0.952E+00 -.452E+02   -.325E+03 0.132E+02 0.416E+02   0.330E+02 -.143E+02 0.363E+01   -.440E-02 0.435E-01 -.312E-02
   -.296E+03 -.103E+03 0.203E+03   0.324E+03 0.116E+03 -.223E+03   -.277E+02 -.128E+02 0.194E+02   -.878E-02 0.954E-02 -.279E-02
   -.822E+02 -.702E+01 -.115E+02   0.843E+02 0.502E+01 0.104E+02   -.214E+01 0.199E+01 0.118E+01   0.259E-02 0.370E-02 -.188E-02
   -.176E+03 -.116E+03 0.889E+02   0.184E+03 0.135E+03 -.964E+02   -.786E+01 -.189E+02 0.751E+01   -.161E-01 -.376E-02 -.219E-02
   0.211E+02 -.387E+03 0.201E+02   -.191E+02 0.423E+03 -.175E+02   -.202E+01 -.353E+02 -.254E+01   0.853E-02 -.241E-01 -.174E-02
   0.210E+03 0.204E+02 0.621E+02   -.239E+03 -.105E+02 -.569E+02   0.290E+02 -.103E+02 -.533E+01   0.574E-02 -.915E-01 -.386E-01
   0.556E+02 0.241E+03 0.102E+03   -.483E+02 -.276E+03 -.111E+03   -.738E+01 0.348E+02 0.958E+01   0.381E-01 -.456E-02 0.173E-03
   0.122E+03 0.296E+03 0.775E+02   -.117E+03 -.330E+03 -.829E+02   -.470E+01 0.338E+02 0.531E+01   0.963E-01 -.214E-01 -.707E-02
   0.238E+03 -.921E+02 -.726E+02   -.269E+03 0.108E+03 0.788E+02   0.313E+02 -.156E+02 -.616E+01   -.918E-03 -.387E-01 -.107E-01
   -.138E+03 0.439E+02 0.428E+02   0.157E+03 -.425E+02 -.405E+02   -.191E+02 -.136E+01 -.225E+01   0.205E-01 -.606E-02 -.371E-02
   -.280E+02 -.110E+03 0.536E+02   0.304E+02 0.109E+03 -.532E+02   -.244E+01 0.379E+00 -.397E+00   0.450E-02 -.518E-02 -.141E-02
   0.612E+02 -.258E+02 -.148E+02   -.625E+02 0.271E+02 0.170E+02   0.121E+01 -.131E+01 -.223E+01   -.695E-02 0.115E-01 -.364E-02
   -.987E+02 -.796E+02 -.231E+03   0.125E+03 0.102E+03 0.240E+03   -.259E+02 -.222E+02 -.880E+01   0.823E-02 0.156E-01 0.181E-03
   0.488E+02 0.190E+02 -.625E+02   -.516E+02 -.218E+02 0.634E+02   0.271E+01 0.276E+01 -.901E+00   0.124E-01 -.168E-02 -.587E-03
   0.331E+01 0.166E+03 0.259E+03   -.116E+02 -.199E+03 -.271E+03   0.826E+01 0.324E+02 0.119E+02   0.115E-01 0.275E-02 -.129E-02
   0.330E+02 0.114E+03 0.350E+03   -.411E+02 -.145E+03 -.367E+03   0.806E+01 0.304E+02 0.172E+02   0.274E-02 0.524E-02 -.224E-02
   0.853E+02 -.117E+03 0.568E+02   -.114E+03 0.139E+03 -.594E+02   0.287E+02 -.215E+02 0.270E+01   0.113E-01 0.645E-02 -.243E-02
   -.109E+03 -.990E+02 -.234E+03   0.137E+03 0.119E+03 0.247E+03   -.277E+02 -.200E+02 -.129E+02   0.169E-01 0.742E-02 0.172E-02
   0.825E+02 0.564E+02 0.226E+01   -.821E+02 -.560E+02 -.385E+01   -.646E+00 -.474E+00 0.159E+01   0.377E-01 0.335E-01 0.274E-02
   0.211E+03 0.161E+02 0.129E+02   -.241E+03 -.107E+02 -.227E+02   0.300E+02 -.551E+01 0.979E+01   0.844E-02 -.161E-01 -.198E-02
   -.153E+03 -.971E+02 -.176E+02   0.179E+03 0.121E+03 0.217E+02   -.263E+02 -.237E+02 -.409E+01   -.818E-02 -.131E-01 -.415E-02
   0.141E+03 -.196E+03 -.599E+02   -.168E+03 0.217E+03 0.706E+02   0.268E+02 -.204E+02 -.106E+02   -.359E-02 -.142E-02 -.154E-02
   -.140E+03 0.162E+03 -.265E+03   0.146E+03 -.193E+03 0.283E+03   -.579E+01 0.313E+02 -.181E+02   -.589E-02 -.516E-03 -.114E-02
   -.409E+02 0.140E+03 -.393E+03   0.423E+02 -.168E+03 0.414E+03   -.146E+01 0.277E+02 -.209E+02   0.126E-02 -.456E-02 -.161E-02
   -.135E+03 -.169E+03 0.268E+02   0.161E+03 0.169E+03 -.277E+02   -.255E+02 0.326E+00 0.909E+00   -.762E-02 -.113E-01 -.161E-02
   -.137E+03 -.139E+03 -.104E+03   0.165E+03 0.158E+03 0.117E+03   -.274E+02 -.192E+02 -.131E+02   -.153E-01 -.224E-02 -.466E-02
   0.387E+02 0.361E+02 0.239E+02   -.386E+02 -.365E+02 -.227E+02   -.213E+00 0.355E+00 -.122E+01   -.382E-01 -.272E-01 -.147E-01
   -.392E+03 -.192E+03 -.417E+03   0.409E+03 0.195E+03 0.432E+03   -.163E+02 -.246E+01 -.147E+02   0.568E-01 -.641E-01 -.256E-01
   0.955E+02 -.397E+02 -.326E+02   -.107E+03 0.423E+02 0.747E+01   0.112E+02 -.263E+01 0.250E+02   0.338E-02 -.636E-02 -.190E-02
   -.834E+02 0.114E+02 -.461E+03   0.108E+03 -.171E+02 0.515E+03   -.242E+02 0.573E+01 -.546E+02   0.333E-02 -.617E-02 -.189E-02
 -----------------------------------------------------------------------------------------------
   0.580E+02 0.116E+02 0.220E+02   0.369E-12 -.242E-12 0.455E-12   -.581E+02 -.116E+02 -.218E+02   0.161E+00 -.118E-01 -.220E+00


 POSITION                                       TOTAL-FORCE (eV/Angst)
 -----------------------------------------------------------------------------------
     -1.20461      2.19912      8.18195        -0.017980      0.025786     -0.045921
      2.64395      5.11797      7.63494        -0.033626      0.117087      0.023011
     -2.08750      4.46620      8.09027         0.059962     -0.039596     -0.006831
      7.52958      1.42741      8.78117         0.083316      0.309553      0.008781
      4.87450      5.27378      7.78732         0.337444      0.036131      0.040395
      0.02681      0.23894      8.26775        -0.042362      0.043397      0.028828
     -5.41839      9.85606      8.42790         0.098537     -0.043652     -0.002227
     -1.20209     12.87615      8.62480         0.001559      0.057049      0.100973
     -6.89364     11.84138      8.65714        -0.003614     -0.000426      0.035881
      3.34150      7.09935      8.45062         0.068596      0.202587      0.060137
      1.02290     13.07227      8.63859         0.332125     -0.006976     -0.005600
     -2.53815      6.84899      8.42878         0.009572      0.001317      0.003204
      8.47454      3.48709      8.80168         0.078970      0.066724      0.013055
      9.61482      5.52114      8.14692         0.077512      0.061798     -0.016936
      7.07486      5.55308      8.28226         0.024914     -0.047922      0.010653
     13.73059      0.05920      8.79145        -0.052975      0.046626     -0.003072
     11.80044      5.02094      7.77319        -0.013081      0.002839     -0.007220
      9.91413      1.72735      9.14091         0.054289      0.044250      0.039599
      4.25946      9.16024      8.88368         0.011654      0.101361      0.014900
      4.80828     11.40867      9.32895         0.066005      0.000111     -0.009787
     11.25964     -0.12174      9.01286         0.062530     -0.008131     -0.001966
     11.05119      7.26869      8.35708         0.037818     -0.024536      0.000049
      7.05636     11.68628      9.46422        -0.005880      0.062868      0.001670
      5.74653      7.40376      8.58191         0.075127      0.000170     -0.015437
     -1.13529      3.52857      8.14474         0.004098      0.042116     -0.030521
     -0.02643      1.52194      7.96638        -0.035386      0.022279     -0.045254
      6.49065      0.56740      8.74991         0.119979     -0.417482     -0.108689
      6.11897      4.80364      7.71246        -0.065482      0.069640      0.065319
      3.79941      4.56241      7.39120        -0.319604      0.160500      0.104626
      7.36919      2.74615      8.76113        -0.007831     -0.091692      0.000422
     -6.89462     13.04441      8.08006        -0.000832     -0.015946      0.025189
      6.91528     12.93770      8.81768        -0.003024     -0.009557     -0.012555
     -5.80985     10.99907      8.36642        -0.015214      0.042211      0.034634
     -1.98229      7.98832      8.69651        -0.037855     -0.000719      0.018978
      2.29371      6.26980      8.15486         0.145456     -0.400021     -0.148569
      2.26616     12.60582      8.62936        -0.113017      0.005669      0.035729
     -0.05028     12.26550      8.50873        -0.420010      0.205285     -0.059729
      3.15751      8.34788      8.82114         0.086658      0.022162     -0.056106
     -1.70512      5.73112      8.42653        -0.010580     -0.005854      0.016505
     12.11910      6.36272      8.20952        -0.013735     -0.025073      0.012032
      8.36696      4.88351      8.45821        -0.030069     -0.044952     -0.003266
      9.68853      3.04316      9.19619        -0.018490     -0.044848     -0.024912
      4.54933     12.84948      9.06049        -0.091196     -0.069790     -0.009596
     12.68469      4.05690      7.65413         0.009923     -0.051608     -0.048513
     10.49510      4.73498      7.55323        -0.045171     -0.004765      0.019839
     13.66963      1.30996      8.45900        -0.045069     -0.001572      0.026274
     11.11817      1.16363      9.36642        -0.020311      0.027697     -0.009979
      8.83024      0.88426      8.80311        -0.184545     -0.097845      0.005025
      3.95502     10.49525      8.96346        -0.047452     -0.063500     -0.018512
      5.54300      8.69952      8.77900        -0.074933     -0.024448     -0.018406
      9.81002      6.81406      8.46602         0.028574     -0.084509      0.013087
      8.24702     11.07831      9.47566         0.043991      0.029467      0.021877
      5.97294     11.10195      9.91877         0.004591     -0.044196      0.043361
     -4.74176      8.81500      8.39217        -0.004366      0.041051      0.014526
      6.97153      6.82248      8.66890        -0.018546     -0.033310      0.018732
      4.64425      6.56802      8.29840        -0.132914     -0.083767     -0.069699
     -0.36279      7.09514      9.31658         0.017418     -0.046393     -0.035236
     -0.73230      7.51168     12.72913        -0.047131     -0.023791     -0.084405
     -0.27057      7.40236     13.76814         0.031661      0.009147      0.041653
 -----------------------------------------------------------------------------------
    total drift:                               -0.000963     -0.000749     -0.006253


--------------------------------------------------------------------------------------------------------



  FREE ENERGIE OF THE ION-ELECTRON SYSTEM (eV)
  ---------------------------------------------------
  free  energy   TOTEN  =      -489.18636823 eV

  energy  without entropy=     -489.18636823  energy(sigma->0) =     -489.18636823



--------------------------------------------------------------------------------------------------------


    POTLOK:  cpu time    0.1833: real time    0.1847


--------------------------------------------------------------------------------------------------------


     LOOP+:  cpu time 1460.0725: real time 1462.3762
    4ORBIT:  cpu time    0.0000: real time    0.0000



 total charge     

# of ion       s       p       d       tot
------------------------------------------
    1        0.850   1.695   0.000   2.546
    2        0.879   1.651   0.000   2.531
    3        0.851   1.709   0.000   2.560
    4        0.859   1.716   0.000   2.575
    5        0.859   1.710   0.000   2.570
    6        0.859   1.715   0.000   2.575
    7        0.907   1.769   0.000   2.676
    8        0.881   1.654   0.000   2.535
    9        0.846   1.711   0.000   2.557
   10        0.860   1.714   0.000   2.574
   11        0.861   1.719   0.000   2.580
   12        0.863   1.699   0.000   2.562
   13        0.848   1.695   0.000   2.543
   14        0.852   1.720   0.000   2.572
   15        0.846   1.695   0.000   2.541
   16        0.851   1.727   0.000   2.578
   17        0.859   1.705   0.000   2.564
   18        0.855   1.711   0.000   2.566
   19        0.850   1.684   0.000   2.534
   20        0.854   1.694   0.000   2.548
   21        0.846   1.701   0.000   2.548
   22        0.841   1.710   0.000   2.550
   23        0.863   1.736   0.000   2.598
   24        0.858   1.712   0.000   2.570
   25        1.249   2.678   0.000   3.927
   26        1.272   2.617   0.000   3.889
   27        1.267   2.630   0.000   3.897
   28        1.273   2.639   0.000   3.912
   29        1.265   2.634   0.000   3.899
   30        1.270   2.656   0.000   3.926
   31        1.268   2.624   0.000   3.892
   32        1.221   2.741   0.000   3.962
   33        1.243   2.721   0.000   3.964
   34        1.289   2.495   0.000   3.784
   35        1.259   2.623   0.000   3.882
   36        1.273   2.652   0.000   3.926
   37        1.268   2.629   0.000   3.897
   38        1.272   2.630   0.000   3.902
   39        1.245   2.653   0.000   3.898
   40        1.217   2.694   0.000   3.911
   41        1.204   2.683   0.000   3.887
   42        1.264   2.640   0.000   3.904
   43        1.207   2.677   0.000   3.884
   44        1.270   2.635   0.000   3.905
   45        1.276   2.640   0.000   3.916
   46        1.270   2.641   0.000   3.911
   47        1.266   2.629   0.000   3.895
   48        1.227   2.724   0.000   3.951
   49        1.257   2.661   0.000   3.918
   50        1.269   2.623   0.000   3.892
   51        1.270   2.642   0.000   3.912
   52        1.274   2.633   0.000   3.907
   53        1.268   2.677   0.000   3.945
   54        1.236   2.738   0.000   3.975
   55        1.267   2.627   0.000   3.894
   56        1.226   2.719   0.000   3.945
   57        1.326   0.744  10.055  12.125
   58        1.037   1.443   0.000   2.480
   59        1.641   3.537   0.000   5.178
--------------------------------------------------
tot         64.804 131.579  10.055 206.439



 magnetization (x)

# of ion       s       p       d       tot
------------------------------------------
    1        0.000   0.000   0.000   0.000
    2        0.000   0.001   0.000   0.001
    3       -0.000   0.000   0.000   0.000
    4       -0.000  -0.000   0.000  -0.000
    5        0.000   0.000   0.000   0.000
    6        0.000   0.000   0.000   0.000
    7        0.000   0.000   0.000   0.000
    8       -0.000  -0.001   0.000  -0.001
    9        0.000   0.000   0.000   0.000
   10        0.000   0.000   0.000   0.000
   11       -0.000  -0.000   0.000  -0.000
   12        0.000   0.000   0.000   0.000
   13       -0.000  -0.000   0.000  -0.000
   14        0.000   0.000   0.000   0.000
   15        0.000   0.000   0.000   0.000
   16        0.000   0.000   0.000   0.000
   17        0.000  -0.000   0.000   0.000
   18       -0.000  -0.000   0.000  -0.000
   19        0.000   0.000   0.000   0.000
   20        0.000   0.000   0.000   0.000
   21       -0.000  -0.000   0.000  -0.000
   22        0.000   0.000   0.000   0.000
   23        0.000   0.000   0.000   0.000
   24        0.000   0.000   0.000   0.000
   25        0.000   0.000   0.000   0.000
   26        0.000   0.000   0.000   0.000
   27       -0.000  -0.000   0.000  -0.000
   28        0.000   0.000   0.000   0.000
   29        0.000   0.000   0.000   0.000
   30       -0.000  -0.000   0.000  -0.000
   31        0.000   0.000   0.000   0.000
   32        0.000   0.000   0.000   0.000
   33       -0.000   0.000   0.000   0.000
   34       -0.000  -0.000   0.000  -0.000
   35        0.000   0.000   0.000   0.000
   36       -0.000  -0.000   0.000  -0.000
   37       -0.000  -0.000   0.000  -0.000
   38        0.000   0.000   0.000   0.000
   39       -0.000  -0.000   0.000  -0.000
   40       -0.000  -0.000   0.000  -0.000
   41       -0.000  -0.000   0.000  -0.000
   42       -0.000  -0.000   0.000  -0.000
   43       -0.000  -0.000   0.000  -0.000
   44        0.000   0.000   0.000   0.000
   45       -0.000  -0.000   0.000  -0.000
   46       -0.000  -0.000   0.000  -0.000
   47       -0.000  -0.000   0.000  -0.000
   48       -0.000  -0.000   0.000  -0.000
   49        0.000   0.000   0.000   0.000
   50        0.000   0.000   0.000   0.000
   51       -0.000  -0.000   0.000  -0.000
   52       -0.000  -0.000   0.000  -0.000
   53        0.000   0.000   0.000   0.000
   54       -0.000  -0.000   0.000  -0.000
   55       -0.000   0.000   0.000   0.000
   56        0.000   0.000   0.000   0.000
   57        0.000   0.000   0.000   0.000
   58        0.000   0.000   0.000   0.000
   59        0.000   0.000   0.000   0.000
--------------------------------------------------
tot         -0.000   0.000   0.000  -0.000

 BZINTS: Fermi energy: -3.484871;280.000000 electrons
         Band energy:***********;  BLOECHL correction:  0.000000

 total amount of memory used by VASP MPI-rank0   128048. kBytes
=======================================================================

   base      :      30000. kBytes
   nonl-proj :      29826. kBytes
   fftplans  :       5599. kBytes
   grid      :      16950. kBytes
   one-center:        155. kBytes
   wavefun   :      45518. kBytes

  
  
 General timing and accounting informations for this job:
 ========================================================
  
                  Total CPU time used (sec):     1475.974
                            User time (sec):     1473.317
                          System time (sec):        2.657
                         Elapsed time (sec):     1478.555
  
                   Maximum memory used (kb):      201308.
                   Average memory used (kb):           0.
  
                          Minor page faults:       325828
                          Major page faults:            2
                 Voluntary context switches:         1938
