       N       E                     dE             d eps       ncg     rms          rms(c)
DAV:   1     0.241165642430E+04    0.24117E+04   -0.93383E+04  3944   0.108E+03
DAV:   2     0.152253917245E+03   -0.22594E+04   -0.21633E+04  5008   0.254E+02
DAV:   3    -0.432259064234E+03   -0.58451E+03   -0.57916E+03  4272   0.140E+02
DAV:   4    -0.462519904380E+03   -0.30261E+02   -0.29366E+02  4168   0.420E+01
DAV:   5    -0.464262574216E+03   -0.17427E+01   -0.17201E+01  5216   0.884E+00    0.331E+01
DAV:   6    -0.446640576546E+03    0.17622E+02   -0.73686E+01  4648   0.191E+01    0.186E+01
DAV:   7    -0.445891029336E+03    0.74955E+00   -0.25376E+01  4192   0.137E+01    0.135E+01
DAV:   8    -0.445256971593E+03    0.63406E+00   -0.17680E+01  4160   0.101E+01    0.992E+00
DAV:   9    -0.445537305451E+03   -0.28033E+00   -0.22389E+01  5048   0.789E+00    0.683E+00
DAV:  10    -0.444524825226E+03    0.10125E+01   -0.76028E+00  4816   0.676E+00    0.335E+00
DAV:  11    -0.444398784182E+03    0.12604E+00   -0.35348E+00  4408   0.399E+00    0.265E+00
DAV:  12    -0.444267238294E+03    0.13155E+00   -0.15958E+00  4512   0.233E+00    0.127E+00
DAV:  13    -0.444252020758E+03    0.15218E-01   -0.17606E-01  4320   0.110E+00    0.746E-01
DAV:  14    -0.444247457514E+03    0.45632E-02   -0.44860E-02  4096   0.537E-01    0.448E-01
DAV:  15    -0.444248086331E+03   -0.62882E-03   -0.48617E-02  4528   0.362E-01    0.454E-01
DAV:  16    -0.444248117049E+03   -0.30717E-04   -0.80292E-02  4336   0.358E-01    0.416E-01
DAV:  17    -0.444246127527E+03    0.19895E-02   -0.19781E-02  4200   0.204E-01    0.142E-01
DAV:  18    -0.444246825641E+03   -0.69811E-03   -0.21210E-03  4032   0.691E-02    0.190E-01
DAV:  19    -0.444246033608E+03    0.79203E-03   -0.36576E-03  3632   0.571E-02    0.126E-01
DAV:  20    -0.444246026119E+03    0.74898E-05   -0.33421E-03  3376   0.536E-02    0.897E-02
DAV:  21    -0.444246169474E+03   -0.14336E-03   -0.71413E-04  2600   0.477E-02    0.411E-02
DAV:  22    -0.444246168448E+03    0.10261E-05   -0.18794E-04  2080   0.281E-02
   1 F= -.44757369E+03 E0= -.44757369E+03  d E =0.000000E+00  mag=    -0.0000
