 vasp.5.4.4.18Apr17-6-g9f103f2a35 (build Nov  8 2022 18:58:45) complex           
 executed on             LinuxGNU date 2023.04.13  15:54:02
 running on   48 total cores
 distrk:  each k-point on   48 cores,    1 groups
 distr:  one band on NCORES_PER_BAND=  12 cores,    4 groups


--------------------------------------------------------------------------------------------------------


 INCAR:
 POTCAR:    PAW_PBE C 08Apr2002                   
 POTCAR:    PAW_PBE N 08Apr2002                   
 POTCAR:    PAW_PBE Ge_d 03Jul2007                
 POTCAR:    PAW_PBE C 08Apr2002                   
 POTCAR:    PAW_PBE O 08Apr2002                   
 POTCAR:    PAW_PBE C 08Apr2002                   
   SHA256 =  253f7b50bb8d59471dbedb8285d89021f4a42ed1a2c5d38a03a736e69125dd95 C/
   COPYR  = (c) Copyright 08Apr2002 Georg Kresse                                
   COPYR  = This file is part of the software VASP. Any use, copying, and all ot
   COPYR  = If you do not have a valid VASP license, you may not use, copy or di
   VRHFIN =C: s2p2                                                              
   LEXCH  = PE                                                                  
   EATOM  =   147.1560 eV,   10.8157 Ry                                         
                                                                                
   TITEL  = PAW_PBE C 08Apr2002                                                 
   LULTRA =        F    use ultrasoft PP ?                                      
   IUNSCR =        1    unscreen: 0-lin 1-nonlin 2-no                           
   RPACOR =    1.200    partial core radius                                     
   POMASS =   12.011; ZVAL   =    4.000    mass and valenz                      
   RCORE  =    1.500    outmost cutoff radius                                   
   RWIGS  =    1.630; RWIGS  =    0.863    wigner-seitz radius (au A)           
   ENMAX  =  400.000; ENMIN  =  300.000 eV                                      
   ICORE  =        2    local potential                                         
   LCOR   =        T    correct aug charges                                     
   LPAW   =        T    paw PP                                                  
   EAUG   =  644.873                                                            
   DEXC   =    0.000                                                            
   RMAX   =    1.529    core radius for proj-oper                               
   RAUG   =    1.300    factor for augmentation sphere                          
   RDEP   =    1.501    radius for radial grids                                 
   RDEPT  =    1.300    core radius for aug-charge                              
                                                                                
   Atomic configuration                                                         
    4 entries                                                                   
     n  l   j            E        occ.                                          
     1  0  0.50      -273.3789   2.0000                                         
     2  0  0.50       -13.7508   2.0000                                         
     2  1  0.50        -5.2854   2.0000                                         
     3  2  1.50        -5.4423   0.0000                                         
   Description                                                                  
     l       E           TYP  RCUT    TYP  RCUT                                 
     0    -13.7508458     23  1.200                                             
     0     -8.2022199     23  1.200                                             
     1     -5.2854383     23  1.500                                             
     1     34.0145650     23  1.500                                             
     2     -5.4423304      7  1.500                                             
  local pseudopotential read in
  partial core-charges read in
  partial kinetic energy density read in
  atomic valenz-charges read in
  non local Contribution for L=           0  read in
    real space projection operators read in
  non local Contribution for L=           0  read in
    real space projection operators read in
  non local Contribution for L=           1  read in
    real space projection operators read in
  non local Contribution for L=           1  read in
    real space projection operators read in
    PAW grid and wavefunctions read in

   number of l-projection  operators is LMAX  =           4
   number of lm-projection operators is LMMAX =           8

 POTCAR:    PAW_PBE N 08Apr2002                   
   SHA256 =  e053789ff3a61a86a1b75d8a110fcc91f86041011e7b0817c7c99e4e8a6349d7 N/
   COPYR  = (c) Copyright 08Apr2002 Georg Kresse                                
   COPYR  = This file is part of the software VASP. Any use, copying, and all ot
   COPYR  = If you do not have a valid VASP license, you may not use, copy or di
   VRHFIN =N: s2p3                                                              
   LEXCH  = PE                                                                  
   EATOM  =   264.5486 eV,   19.4438 Ry                                         
                                                                                
   TITEL  = PAW_PBE N 08Apr2002                                                 
   LULTRA =        F    use ultrasoft PP ?                                      
   IUNSCR =        1    unscreen: 0-lin 1-nonlin 2-no                           
   RPACOR =    1.200    partial core radius                                     
   POMASS =   14.001; ZVAL   =    5.000    mass and valenz                      
   RCORE  =    1.500    outmost cutoff radius                                   
   RWIGS  =    1.400; RWIGS  =    0.741    wigner-seitz radius (au A)           
   ENMAX  =  400.000; ENMIN  =  300.000 eV                                      
   ICORE  =        2    local potential                                         
   LCOR   =        T    correct aug charges                                     
   LPAW   =        T    paw PP                                                  
   EAUG   =  627.112                                                            
   DEXC   =    0.000                                                            
   RMAX   =    1.529    core radius for proj-oper                               
   RAUG   =    1.300    factor for augmentation sphere                          
   RDEP   =    1.514    radius for radial grids                                 
   RDEPT  =    1.338    core radius for aug-charge                              
                                                                                
   Atomic configuration                                                         
    4 entries                                                                   
     n  l   j            E        occ.                                          
     1  0  0.50      -384.7179   2.0000                                         
     2  0  0.50       -18.5828   2.0000                                         
     2  1  0.50        -7.0898   3.0000                                         
     3  2  1.50        -6.8029   0.0000                                         
   Description                                                                  
     l       E           TYP  RCUT    TYP  RCUT                                 
     0    -18.5828119     23  1.200                                             
     0    -13.5018863     23  1.200                                             
     1     -7.0897853     23  1.500                                             
     1      9.5240782     23  1.500                                             
     2     -6.8029130      7  1.500                                             
  local pseudopotential read in
  partial core-charges read in
  partial kinetic energy density read in
  atomic valenz-charges read in
  non local Contribution for L=           0  read in
    real space projection operators read in
  non local Contribution for L=           0  read in
    real space projection operators read in
  non local Contribution for L=           1  read in
    real space projection operators read in
  non local Contribution for L=           1  read in
    real space projection operators read in
    PAW grid and wavefunctions read in

   number of l-projection  operators is LMAX  =           4
   number of lm-projection operators is LMMAX =           8

 POTCAR:    PAW_PBE Ge_d 03Jul2007                
   SHA256 =  944b26c40d2d7c4f4eb1ff3a2e8dbfdd7129146276cd341854bfd5c0e57780ed Ge
   COPYR  = (c) Copyright 03Jul2007 Georg Kresse                                
   COPYR  = This file is part of the software VASP. Any use, copying, and all ot
   COPYR  = If you do not have a valid VASP license, you may not use, copy or di
   VRHFIN =Ge: 3d4s4p                                                           
   LEXCH  = PE                                                                  
   EATOM  =  2596.2402 eV,  190.8183 Ry                                         
                                                                                
   TITEL  = PAW_PBE Ge_d 03Jul2007                                              
   LULTRA =        F    use ultrasoft PP ?                                      
   IUNSCR =        1    unscreen: 0-lin 1-nonlin 2-no                           
   RPACOR =    2.000    partial core radius                                     
   POMASS =   72.610; ZVAL   =   14.000    mass and valenz                      
   RCORE  =    2.300    outmost cutoff radius                                   
   RWIGS  =    2.300; RWIGS  =    1.217    wigner-seitz radius (au A)           
   ENMAX  =  310.294; ENMIN  =  232.720 eV                                      
   ICORE  =        3    local potential                                         
   LCOR   =        T    correct aug charges                                     
   LPAW   =        T    paw PP                                                  
   EAUG   =  531.356                                                            
   DEXC   =    0.000                                                            
   RMAX   =    2.342    core radius for proj-oper                               
   RAUG   =    1.300    factor for augmentation sphere                          
   RDEP   =    2.318    radius for radial grids                                 
   RDEPT  =    1.783    core radius for aug-charge                              
                                                                                
   Atomic configuration                                                         
    9 entries                                                                   
     n  l   j            E        occ.                                          
     1  0  0.50    -10959.8463   2.0000                                         
     2  0  0.50     -1371.6056   2.0000                                         
     2  1  1.50     -1198.4791   6.0000                                         
     3  0  0.50      -168.4733   2.0000                                         
     3  1  1.50      -115.6019   6.0000                                         
     3  2  2.50       -29.3106  10.0000                                         
     4  0  0.50       -11.7309   2.0000                                         
     4  1  0.50        -3.8952   2.0000                                         
     4  3  2.50        -4.0817   0.0000                                         
   Description                                                                  
     l       E           TYP  RCUT    TYP  RCUT                                 
     2    -29.3105938     23  2.200                                             
     2    -13.6058260     23  2.200                                             
     0    -11.7309493     23  2.300                                             
     0     -7.4578696     23  2.300                                             
     1     -3.8952261     23  2.300                                             
     1      6.1178114     23  2.300                                             
     3     -1.3605826     23  2.300                                             
  local pseudopotential read in
  partial core-charges read in
  partial kinetic energy density read in
  atomic valenz-charges read in
  non local Contribution for L=           2  read in
    real space projection operators read in
  non local Contribution for L=           2  read in
    real space projection operators read in
  non local Contribution for L=           0  read in
    real space projection operators read in
  non local Contribution for L=           0  read in
    real space projection operators read in
  non local Contribution for L=           1  read in
    real space projection operators read in
  non local Contribution for L=           1  read in
    real space projection operators read in
    PAW grid and wavefunctions read in

   number of l-projection  operators is LMAX  =           6
   number of lm-projection operators is LMMAX =          18

 POTCAR:    PAW_PBE C 08Apr2002                   
   SHA256 =  253f7b50bb8d59471dbedb8285d89021f4a42ed1a2c5d38a03a736e69125dd95 C/
   COPYR  = (c) Copyright 08Apr2002 Georg Kresse                                
   COPYR  = This file is part of the software VASP. Any use, copying, and all ot
   COPYR  = If you do not have a valid VASP license, you may not use, copy or di
   VRHFIN =C: s2p2                                                              
   LEXCH  = PE                                                                  
   EATOM  =   147.1560 eV,   10.8157 Ry                                         
                                                                                
   TITEL  = PAW_PBE C 08Apr2002                                                 
   LULTRA =        F    use ultrasoft PP ?                                      
   IUNSCR =        1    unscreen: 0-lin 1-nonlin 2-no                           
   RPACOR =    1.200    partial core radius                                     
   POMASS =   12.011; ZVAL   =    4.000    mass and valenz                      
   RCORE  =    1.500    outmost cutoff radius                                   
   RWIGS  =    1.630; RWIGS  =    0.863    wigner-seitz radius (au A)           
   ENMAX  =  400.000; ENMIN  =  300.000 eV                                      
   ICORE  =        2    local potential                                         
   LCOR   =        T    correct aug charges                                     
   LPAW   =        T    paw PP                                                  
   EAUG   =  644.873                                                            
   DEXC   =    0.000                                                            
   RMAX   =    1.529    core radius for proj-oper                               
   RAUG   =    1.300    factor for augmentation sphere                          
   RDEP   =    1.501    radius for radial grids                                 
   RDEPT  =    1.300    core radius for aug-charge                              
                                                                                
   Atomic configuration                                                         
    4 entries                                                                   
     n  l   j            E        occ.                                          
     1  0  0.50      -273.3789   2.0000                                         
     2  0  0.50       -13.7508   2.0000                                         
     2  1  0.50        -5.2854   2.0000                                         
     3  2  1.50        -5.4423   0.0000                                         
   Description                                                                  
     l       E           TYP  RCUT    TYP  RCUT                                 
     0    -13.7508458     23  1.200                                             
     0     -8.2022199     23  1.200                                             
     1     -5.2854383     23  1.500                                             
     1     34.0145650     23  1.500                                             
     2     -5.4423304      7  1.500                                             
  local pseudopotential read in
  partial core-charges read in
  partial kinetic energy density read in
  atomic valenz-charges read in
  non local Contribution for L=           0  read in
    real space projection operators read in
  non local Contribution for L=           0  read in
    real space projection operators read in
  non local Contribution for L=           1  read in
    real space projection operators read in
  non local Contribution for L=           1  read in
    real space projection operators read in
    PAW grid and wavefunctions read in

   number of l-projection  operators is LMAX  =           4
   number of lm-projection operators is LMMAX =           8

 POTCAR:    PAW_PBE O 08Apr2002                   
   SHA256 =  818f92134a0a090dccd8ba1447fa70422a3b330e708bb4f08108d8ae51209ddf O/
   COPYR  = (c) Copyright 08Apr2002 Georg Kresse                                
   COPYR  = This file is part of the software VASP. Any use, copying, and all ot
   COPYR  = If you do not have a valid VASP license, you may not use, copy or di
   VRHFIN =O: s2p4                                                              
   LEXCH  = PE                                                                  
   EATOM  =   432.3788 eV,   31.7789 Ry                                         
                                                                                
   TITEL  = PAW_PBE O 08Apr2002                                                 
   LULTRA =        F    use ultrasoft PP ?                                      
   IUNSCR =        1    unscreen: 0-lin 1-nonlin 2-no                           
   RPACOR =    1.200    partial core radius                                     
   POMASS =   16.000; ZVAL   =    6.000    mass and valenz                      
   RCORE  =    1.520    outmost cutoff radius                                   
   RWIGS  =    1.550; RWIGS  =    0.820    wigner-seitz radius (au A)           
   ENMAX  =  400.000; ENMIN  =  300.000 eV                                      
   ICORE  =        2    local potential                                         
   LCOR   =        T    correct aug charges                                     
   LPAW   =        T    paw PP                                                  
   EAUG   =  605.392                                                            
   DEXC   =    0.000                                                            
   RMAX   =    1.553    core radius for proj-oper                               
   RAUG   =    1.300    factor for augmentation sphere                          
   RDEP   =    1.550    radius for radial grids                                 
   RDEPT  =    1.329    core radius for aug-charge                              
                                                                                
   Atomic configuration                                                         
    4 entries                                                                   
     n  l   j            E        occ.                                          
     1  0  0.50      -514.6923   2.0000                                         
     2  0  0.50       -23.9615   2.0000                                         
     2  1  0.50        -9.0305   4.0000                                         
     3  2  1.50        -9.5241   0.0000                                         
   Description                                                                  
     l       E           TYP  RCUT    TYP  RCUT                                 
     0    -23.9615318     23  1.200                                             
     0     -9.5240782     23  1.200                                             
     1     -9.0304911     23  1.520                                             
     1      8.1634956     23  1.520                                             
     2     -9.5240782      7  1.500                                             
  local pseudopotential read in
  partial core-charges read in
  partial kinetic energy density read in
  kinetic energy density of atom read in
  atomic valenz-charges read in
  non local Contribution for L=           0  read in
    real space projection operators read in
  non local Contribution for L=           0  read in
    real space projection operators read in
  non local Contribution for L=           1  read in
    real space projection operators read in
  non local Contribution for L=           1  read in
    real space projection operators read in
    PAW grid and wavefunctions read in

   number of l-projection  operators is LMAX  =           4
   number of lm-projection operators is LMMAX =           8


 ----------------------------------------------------------------------------- 
|                                                                             |
|  ADVICE TO THIS USER RUNNING 'VASP/VAMP'   (HEAR YOUR MASTER'S VOICE ...):  |
|                                                                             |
|      You have a (more or less) 'large supercell' and for larger cells       |
|      it might be more efficient to use real space projection opertators     |
|      So try LREAL= Auto  in the INCAR   file.                               |
|      Mind:          For very  accurate calculation you might also keep the  |
|      reciprocal projection scheme          (i.e. LREAL=.FALSE.)             |
|                                                                             |
 ----------------------------------------------------------------------------- 

  PAW_PBE C 08Apr2002                   :
 energy of atom  1       EATOM= -147.1560
 kinetic energy error for atom=    0.0132 (will be added to EATOM!!)
  PAW_PBE N 08Apr2002                   :
 energy of atom  2       EATOM= -264.5486
 kinetic energy error for atom=    0.0298 (will be added to EATOM!!)
  PAW_PBE Ge_d 03Jul2007                :
 energy of atom  3       EATOM=-2596.2402
 kinetic energy error for atom=    0.0090 (will be added to EATOM!!)
  PAW_PBE C 08Apr2002                   :
 energy of atom  4       EATOM= -147.1560
 kinetic energy error for atom=    0.0132 (will be added to EATOM!!)
  PAW_PBE O 08Apr2002                   :
 energy of atom  5       EATOM= -432.3788
 kinetic energy error for atom=    0.0458 (will be added to EATOM!!)


 POSCAR: POSCAR-c3n4                             
  positions in cartesian coordinates
  No initial velocities read in
 exchange correlation table for  LEXCH =        8
   RHO(1)=    0.500       N(1)  =     2000
   RHO(2)=  100.500       N(2)  =     4000



--------------------------------------------------------------------------------------------------------


 ion  position               nearest neighbor table
   1  0.106  0.214  0.436-  26 1.53  46 1.53  25 1.61
   2  0.288  0.399  0.443-  29 1.50  35 1.58  25 1.63
   3  0.104  0.392  0.437-  44 1.50  39 1.57  25 1.63
   4  0.447  0.064  0.516-  30 1.51  27 1.52  48 1.61
   5  0.453  0.401  0.422-  28 1.52  29 1.53  56 1.63
   6  0.112  0.053  0.459-  26 1.51  31 1.52  32 1.60
   7  0.096  0.712  0.494-  54 1.52  34 1.55  33 1.60
   8  0.284  0.890  0.511-  27 1.52  37 1.54  33 1.61
   9  0.109  0.895  0.508-  31 1.51  52 1.53  33 1.63
  10  0.448  0.548  0.512-  38 1.51  56 1.54  35 1.55
  11  0.445  0.885  0.499-  37 1.52  36 1.53  48 1.58
  12  0.087  0.542  0.491-  34 1.51  40 1.53  39 1.55
  13  0.616  0.223  0.483-  42 1.54  30 1.54  41 1.60
  14  0.780  0.390  0.410-  45 1.54  51 1.55  41 1.60
  15  0.610  0.394  0.445-  28 1.53  55 1.53  41 1.66
  16  0.940  0.052  0.471-  46 1.50  43 1.52  32 1.59
  17  0.941  0.387  0.404-  45 1.51  44 1.53  40 1.62
  18  0.623  0.066  0.522-  42 1.51  47 1.53  48 1.61
  19  0.613  0.711  0.541-  50 1.51  38 1.56  49 1.61
  20  0.790  0.897  0.533-  43 1.51  53 1.53  49 1.65
  21  0.609  0.892  0.531-  47 1.52  36 1.54  49 1.64
  22  0.938  0.563  0.430-  51 1.49  54 1.54  40 1.62
  23  0.954  0.902  0.545-  52 1.53  53 1.53  32 1.59
  24  0.621  0.555  0.500-  55 1.50  50 1.52  56 1.61
  25  0.167  0.335  0.435-   1 1.61   3 1.63   2 1.63
  26  0.165  0.161  0.431-   6 1.51   1 1.53
  27  0.336  0.002  0.532-   8 1.52   4 1.52
  28  0.512  0.352  0.402-   5 1.52  15 1.53
  29  0.345  0.361  0.400-   2 1.50   5 1.53
  30  0.506  0.177  0.503-   4 1.51  13 1.54
  31  0.159  0.988  0.457-   9 1.51   6 1.52
  32  0.002  0.002  0.493-  16 1.59  23 1.59   6 1.60
  33  0.165  0.831  0.510-   7 1.60   8 1.61   9 1.63
  34  0.134  0.645  0.528-  12 1.51   7 1.55
  35  0.334  0.491  0.501-  10 1.55   2 1.58
  36  0.503  0.831  0.500-  11 1.53  21 1.54
  37  0.333  0.829  0.489-  11 1.52   8 1.54
  38  0.499  0.648  0.555-  10 1.51  19 1.56
  39  0.142  0.484  0.495-  12 1.55   3 1.57
  40  0.988  0.496  0.446-  12 1.53  22 1.62  17 1.62
  41  0.667  0.330  0.439-  13 1.60  14 1.60  15 1.66
  42  0.680  0.178  0.505-  18 1.51  13 1.54
  43  0.827  0.986  0.478-  20 1.51  16 1.52
  44  0.011  0.348  0.389-   3 1.50  17 1.53
  45  0.830  0.330  0.389-  17 1.51  14 1.54
  46  0.993  0.161  0.445-  16 1.50   1 1.53
  47  0.669  0.005  0.549-  21 1.52  18 1.53
  48  0.505  0.004  0.508-  11 1.58  18 1.61   4 1.61
  49  0.668  0.832  0.544-  19 1.61  21 1.64  20 1.65
  50  0.675  0.666  0.522-  19 1.51  24 1.52
  51  0.832  0.507  0.406-  22 1.49  14 1.55
  52  0.016  0.853  0.559-  23 1.53   9 1.53
  53  0.849  0.860  0.576-  20 1.53  23 1.53
  54  0.004  0.677  0.444-   7 1.52  22 1.54
  55  0.668  0.491  0.494-  24 1.50  15 1.53
  56  0.506  0.502  0.477-  10 1.54  24 1.61   5 1.63
  57  0.287  0.593  0.568-
  58  0.287  0.593  0.966-  59 1.32
  59  0.232  0.530  0.023-  58 1.32


IMPORTANT INFORMATION: All symmetrisations will be switched off!
NOSYMM: (Re-)initialisation of all symmetry stuff for point group C_1.



 KPOINTS: K-Points                                

Automatic generation of k-mesh.
Space group operators:
 irot       det(A)        alpha          n_x          n_y          n_z        tau_x        tau_y        tau_z
    1     1.000000     0.000000     1.000000     0.000000     0.000000     0.000000     0.000000     0.000000
 
 Subroutine IBZKPT returns following result:
 ===========================================
 
 Found      5 irreducible k-points:
 
 Following reciprocal coordinates:
            Coordinates               Weight
  0.000000  0.000000  0.000000      1.000000
  0.333333  0.000000  0.000000      2.000000
  0.000000  0.333333  0.000000      2.000000
  0.333333  0.333333  0.000000      2.000000
 -0.333333  0.333333  0.000000      2.000000
 
 Following cartesian coordinates:
            Coordinates               Weight
  0.000000  0.000000  0.000000      1.000000
  0.024277  0.014368  0.000000      2.000000
  0.000396  0.028736  0.000000      2.000000
  0.024673  0.043104  0.000000      2.000000
 -0.023881  0.014368  0.000000      2.000000
 
 TETIRR: Found     24 inequivalent tetrahedra from       54


--------------------------------------------------------------------------------------------------------




 Dimension of arrays:
   k-points           NKPTS =      5   k-points in BZ     NKDIM =      5   number of bands    NBANDS=    172
   number of dos      NEDOS =   4000   number of ions     NIONS =     59
   non local maximal  LDIM  =      6   non local SUM 2l+1 LMDIM =     18
   total plane-waves  NPLWV = 604800
   max r-space proj   IRMAX =      1   max aug-charges    IRDMAX=   5899
   dimension x,y,z NGX =    84 NGY =   80 NGZ =   90
   dimension x,y,z NGXF=   168 NGYF=  160 NGZF=  180
   support grid    NGXF=   168 NGYF=  160 NGZF=  180
   ions per type =              24  32   1   1   1
   NGX,Y,Z   is equivalent  to a cutoff of   8.85,  8.58,  8.75 a.u.
   NGXF,Y,Z  is equivalent  to a cutoff of  17.70, 17.17, 17.50 a.u.

 SYSTEM =  unknown system                          
 POSCAR =  POSCAR-c3n4                             

 Startparameter for this run:
   NWRITE =      2    write-flag & timer
   PREC   = normal    normal or accurate (medium, high low for compatibility)
   ISTART =      0    job   : 0-new  1-cont  2-samecut
   ICHARG =      2    charge: 1-file 2-atom 10-const
   ISPIN  =      2    spin polarized calculation?
   LNONCOLLINEAR =      F non collinear calculations
   LSORBIT =      F    spin-orbit coupling
   INIWAV =      1    electr: 0-lowe 1-rand  2-diag
   LASPH  =      F    aspherical Exc in radial PAW
   METAGGA=      F    non-selfconsistent MetaGGA calc.

 Electronic Relaxation 1
   ENCUT  =  440.0 eV  32.34 Ry    5.69 a.u.  26.99 26.50 29.25*2*pi/ulx,y,z
   ENINI  =  440.0     initial cutoff
   ENAUG  =  644.9 eV  augmentation charge cutoff
   NELM   =    100;   NELMIN=  2; NELMDL= -5     # of ELM steps 
   EDIFF  = 0.1E-03   stopping-criterion for ELM
   LREAL  =      F    real-space projection
   NLSPLINE    = F    spline interpolate recip. space projectors
   LCOMPAT=      F    compatible to vasp.4.4
   GGA_COMPAT  = T    GGA compatible to vasp.4.4-vasp.4.6
   LMAXPAW     = -100 max onsite density
   LMAXMIX     =    2 max onsite mixed and CHGCAR
   VOSKOWN=      0    Vosko Wilk Nusair interpolation
   ROPT   =    0.00000   0.00000   0.00000   0.00000
   ROPT   =    0.00000
 Ionic relaxation
   EDIFFG = -.1E-01   stopping-criterion for IOM
   NSW    =      0    number of steps for IOM
   NBLOCK =      1;   KBLOCK =      1    inner block; outer block 
   IBRION =     -1    ionic relax: 0-MD 1-quasi-New 2-CG
   NFREE  =      0    steps in history (QN), initial steepest desc. (CG)
   ISIF   =      2    stress and relaxation
   IWAVPR =     10    prediction:  0-non 1-charg 2-wave 3-comb
   ISYM   =      0    0-nonsym 1-usesym 2-fastsym
   LCORR  =      T    Harris-Foulkes like correction to forces

   POTIM  = 0.5000    time-step for ionic-motion
   TEIN   =    0.0    initial temperature
   TEBEG  =    0.0;   TEEND  =   0.0 temperature during run
   SMASS  =  -3.00    Nose mass-parameter (am)
   estimated Nose-frequenzy (Omega)   =  0.10E-29 period in steps =****** mass=  -0.569E-26a.u.
   SCALEE = 1.0000    scale energy and forces
   NPACO  =    256;   APACO  = 16.0  distance and # of slots for P.C.
   PSTRESS=    0.0 pullay stress

  Mass of Ions in am
   POMASS =  12.01 14.00 72.61 12.01 16.00
  Ionic Valenz
   ZVAL   =   4.00  5.00 14.00  4.00  6.00
  Atomic Wigner-Seitz radii
   RWIGS  =  -1.00 -1.00 -1.00 -1.00 -1.00
  virtual crystal weights 
   VCA    =   1.00  1.00  1.00  1.00  1.00
   NELECT =     280.0000    total number of electrons
   NUPDOWN=      -1.0000    fix difference up-down

 DOS related values:
   EMIN   = -14.00;   EMAX   =  6.00  energy-range for DOS
   EFERMI =   0.00
   ISMEAR =    -5;   SIGMA  =   0.20  broadening in eV -4-tet -1-fermi 0-gaus

 Electronic relaxation 2 (details)
   IALGO  =     38    algorithm
   LDIAG  =      T    sub-space diagonalisation (order eigenvalues)
   LSUBROT=      F    optimize rotation matrix (better conditioning)
   TURBO    =      0    0=normal 1=particle mesh
   IRESTART =      0    0=no restart 2=restart with 2 vectors
   NREBOOT  =      0    no. of reboots
   NMIN     =      0    reboot dimension
   EREF     =   0.00    reference energy to select bands
   IMIX   =      4    mixing-type and parameters
     AMIX     =   0.25;   BMIX     =  0.00
     AMIX_MAG =   1.00;   BMIX_MAG =  0.00
     AMIN     =   0.10
     WC   =   100.;   INIMIX=   1;  MIXPRE=   1;  MAXMIX= -45

 Intra band minimization:
   WEIMIN = 0.0000     energy-eigenvalue tresh-hold
   EBREAK =  0.15E-06  absolut break condition
   DEPER  =   0.30     relativ break condition  

   TIME   =   0.40     timestep for ELM

  volume/ion in A,a.u.               =      60.49       408.17
  Fermi-wavevector in a.u.,A,eV,Ry     =   0.700854  1.324421  6.683124  0.491196
  Thomas-Fermi vector in A             =   1.785121

 Write flags
   LWAVE        =      F    write WAVECAR
   LDOWNSAMPLE  =      F    k-point downsampling of WAVECAR
   LCHARG       =      F    write CHGCAR
   LVTOT        =      F    write LOCPOT, total local potential
   LVHAR        =      F    write LOCPOT, Hartree potential only
   LELF         =      F    write electronic localiz. function (ELF)
   LORBIT       =     11    0 simple, 1 ext, 2 COOP (PROOUT), +10 PAW based schemes


 Dipole corrections
   LMONO  =      F    monopole corrections only (constant potential shift)
   LDIPOL =      F    correct potential (dipole corrections)
   IDIPOL =      0    1-x, 2-y, 3-z, 4-all directions 
   EPSILON=  1.0000000 bulk dielectric constant

 Exchange correlation treatment:
   GGA     =    --    GGA type
   LEXCH   =     8    internal setting for exchange type
   VOSKOWN=      0    Vosko Wilk Nusair interpolation
   LHFCALC =     F    Hartree Fock is set to
   LHFONE  =     F    Hartree Fock one center treatment
   AEXX    =    0.0000 exact exchange contribution

 Linear response parameters
   LEPSILON=     F    determine dielectric tensor
   LRPA    =     F    only Hartree local field effects (RPA)
   LNABLA  =     F    use nabla operator in PAW spheres
   LVEL    =     F    velocity operator in full k-point grid
   LINTERFAST=   F  fast interpolation
   KINTER  =     0    interpolate to denser k-point grid
   CSHIFT  =0.1000    complex shift for real part using Kramers Kronig
   OMEGAMAX=  -1.0    maximum frequency
   DEG_THRESHOLD= 0.2000000E-02 threshold for treating states as degnerate
   RTIME   =   -0.100 relaxation time in fs
  (WPLASMAI=    0.000 imaginary part of plasma frequency in eV, 0.658/RTIME)
   DFIELD  = 0.0000000 0.0000000 0.0000000 field for delta impulse in time

 Orbital magnetization related:
   ORBITALMAG=     F  switch on orbital magnetization
   LCHIMAG   =     F  perturbation theory with respect to B field
   DQ        =  0.001000  dq finite difference perturbation B field
   LLRAUG    =     F  two centre corrections for induced B field



--------------------------------------------------------------------------------------------------------


 Static calculation
 charge density and potential will be updated during run
 spin polarized calculation
 Variant of blocked Davidson
 Davidson routine will perform the subspace rotation
 perform sub-space diagonalisation
    after iterative eigenvector-optimisation
 modified Broyden-mixing scheme, WC =      100.0
 initial mixing is a Kerker type mixing with AMIX =  0.2500 and BMIX =      0.0001
 Hartree-type preconditioning will be used
 using additional bands           32
 reciprocal scheme for non local part
 use partial core corrections
 calculate Harris-corrections to forces   (improved forces if not selfconsistent)
 use gradient corrections 
 use of overlap-Matrix (Vanderbilt PP)
 Fermi weights with tetrahedron method with Bloechl corrections


--------------------------------------------------------------------------------------------------------


  energy-cutoff  :      440.00
  volume of cell :     3568.62
      direct lattice vectors                 reciprocal lattice vectors
    15.781503627 -0.217444140  0.000000000     0.063886289  0.037810627 -0.000000000
    -7.890751814 13.332517733  0.000000000     0.001041941  0.075621253 -0.000000000
     0.000000000  0.000000000 17.100000000    -0.000000000 -0.000000000  0.058479532

  length of vectors
    15.783001574 15.492578652 17.100000000     0.074236793  0.075628431  0.058479532



 k-points in units of 2pi/SCALE and weight: K-Points                                
   0.00000000  0.00000000  0.00000000       0.111
   0.02427679  0.01436804  0.00000000       0.222
   0.00039594  0.02873608  0.00000000       0.222
   0.02467273  0.04310411  0.00000000       0.222
  -0.02388085  0.01436804  0.00000000       0.222

 k-points in reciprocal lattice and weights: K-Points                                
   0.00000000  0.00000000  0.00000000       0.111
   0.33333333  0.00000000  0.00000000       0.222
   0.00000000  0.33333333  0.00000000       0.222
   0.33333333  0.33333333  0.00000000       0.222
  -0.33333333  0.33333333  0.00000000       0.222

 position of ions in fractional coordinates (direct lattice) 
   0.10567936  0.21351909  0.43638452
   0.28750403  0.39866334  0.44307848
   0.10379301  0.39177313  0.43720774
   0.44732828  0.06383887  0.51561413
   0.45258916  0.40124889  0.42244582
   0.11203481  0.05273921  0.45860169
   0.09638015  0.71191070  0.49382164
   0.28433946  0.89006364  0.51112159
   0.10941441  0.89537413  0.50804572
   0.44792521  0.54827090  0.51182417
   0.44544784  0.88520183  0.49889037
   0.08690842  0.54210436  0.49059155
   0.61614813  0.22292684  0.48262487
   0.78023735  0.38968276  0.40980308
   0.61037743  0.39432339  0.44538198
   0.93951642  0.05229783  0.47062057
   0.94071854  0.38652888  0.40380040
   0.62278394  0.06558106  0.52195204
   0.61322902  0.71118454  0.54116914
   0.78984871  0.89727295  0.53280047
   0.60944297  0.89248269  0.53124739
   0.93832005  0.56283419  0.43042990
   0.95436023  0.90171878  0.54458488
   0.62130548  0.55465507  0.49978063
   0.16668926  0.33545237  0.43494871
   0.16473950  0.16097029  0.43087242
   0.33626584  0.00180669  0.53207802
   0.51175722  0.35246859  0.40230650
   0.34471728  0.36074551  0.39967324
   0.50565751  0.17673507  0.50307206
   0.15873210  0.98821904  0.45657691
   0.00214731  0.00186372  0.49276218
   0.16462634  0.83083069  0.51017993
   0.13400723  0.64526801  0.52770834
   0.33371346  0.49116238  0.50147098
   0.50288345  0.83078126  0.49964378
   0.33307237  0.82932770  0.48929409
   0.49902190  0.64803204  0.55475412
   0.14173676  0.48364631  0.49503647
   0.98839512  0.49595573  0.44590834
   0.66736443  0.33015381  0.43923807
   0.67970142  0.17802103  0.50515807
   0.82720183  0.98622484  0.47776955
   0.01097216  0.34809993  0.38872280
   0.83047981  0.33016544  0.38944898
   0.99296173  0.16101876  0.44505124
   0.66886761  0.00524437  0.54940128
   0.50484899  0.00388347  0.50822952
   0.66830364  0.83227641  0.54411956
   0.67536455  0.66551462  0.52238502
   0.83211404  0.50666912  0.40566699
   0.01584380  0.85299492  0.55859758
   0.84924332  0.85956436  0.57597004
   0.00424175  0.67726383  0.44447513
   0.66753141  0.49127771  0.49374111
   0.50565566  0.50179634  0.47708161
   0.28676550  0.59288202  0.56771515
   0.28676550  0.59288202  0.96638181
   0.23209909  0.52992702  0.02273763

 position of ions in cartesian coordinates  (Angst):
  -0.01704688  2.82376764  7.46217522
   1.39149237  5.25266997  7.57664197
  -1.45337485  5.20075304  7.47625227
   6.55577622  0.75386391  8.81700163
   3.97638197  5.25124512  7.22382360
   1.35192576  0.67878518  7.84208883
  -4.09648699  9.47060475  8.44434998
  -2.53596710 11.80496129  8.74017914
  -5.33845122 11.91379996  8.68758186
   2.74266378  7.21243280  8.75219334
   0.04492879 11.70510910  8.53102532
  -2.90606551  7.20871833  8.38911552
   7.96468358  2.83819826  8.25288530
   9.23842857  5.02579431  7.00763273
   6.52116555  5.12460064  7.61603181
  14.41431266  0.49296937  8.04761169
  11.79594963  4.94884945  6.90498678
   9.31098314  0.73893986  8.92537991
   4.06589536  9.34853747  9.25399233
   5.38484209 11.79115958  9.11088803
   2.57556700 11.76652143  9.08433031
  10.36691635  7.29996467  7.36035137
   7.94600026 11.81466161  9.31240142
   5.42848923  7.25984936  8.54624879
  -0.01636423  4.43617910  7.43762298
   1.32966047  2.11031756  7.36791844
   5.29252438 -0.04903134  9.09853416
   5.29505633  4.58801508  6.87944113
   2.59360368  4.73468917  6.83441237
   6.58546319  2.24637126  8.60253227
  -5.29276006 13.14093253  7.80746512
   0.01918165  0.02438115  8.42623324
  -3.95782749 11.04126784  8.72407676
  -2.97681413  8.57390807  9.02381264
   1.39085981  6.47586706  8.57515382
   1.38076829 10.96705676  8.54390863
  -1.28763626 10.98460161  8.36692889
   2.76185594  8.53138928  9.48629539
  -1.57951381  6.41740312  8.46512357
  11.68489763  6.39741787  7.62503264
   7.92685240  4.25666708  7.51097093
   9.32199072  2.22567143  8.63820306
   5.27243330 12.96898996  8.16985934
  -2.57361297  4.63866259  6.64715996
  10.50096655  4.22135361  6.65957748
  14.39987001  1.93087175  7.61037620
  10.51435470 -0.07552074  9.39476190
   7.93663270 -0.05800002  8.69072486
   3.97954981 10.95102125  9.30444445
   5.40685735  8.72613143  8.93278389
   9.13401040  6.57423674  6.93690560
  -6.48073229 11.36912478  9.55201857
   6.61972749 11.27549415  9.84908775
  -5.27717966  9.02870972  7.60052481
   6.65809881  6.40481800  8.44297301
   4.02045622  6.58025679  8.15809556
  -0.15269413  7.84225463  9.70792902
  -0.15269413  7.84225463 16.52512902
  -0.51865003  7.01479282  0.38881341



--------------------------------------------------------------------------------------------------------


 k-point  1 :   0.0000 0.0000 0.0000  plane waves:   74771
 k-point  2 :   0.3333 0.0000 0.0000  plane waves:   74853
 k-point  3 :   0.0000 0.3333 0.0000  plane waves:   74756
 k-point  4 :   0.3333 0.3333 0.0000  plane waves:   74779
 k-point  5 :  -0.3333 0.3333 0.0000  plane waves:   74788

 maximum and minimum number of plane-waves per node :      6267     6212

 maximum number of plane-waves:     74853
 maximum index in each direction: 
   IXMAX=   27   IYMAX=   26   IZMAX=   29
   IXMIN=  -27   IYMIN=  -26   IZMIN=  -29


 parallel 3D FFT for wavefunctions:
    minimum data exchange during FFTs selected (reduces bandwidth)
 parallel 3D FFT for charge:
    minimum data exchange during FFTs selected (reduces bandwidth)


 total amount of memory used by VASP MPI-rank0   123241. kBytes
=======================================================================

   base      :      30000. kBytes
   nonl-proj :      28336. kBytes
   fftplans  :       5346. kBytes
   grid      :      16143. kBytes
   one-center:        155. kBytes
   wavefun   :      43261. kBytes

     INWAV:  cpu time    0.0001: real time    0.0000
 Broyden mixing: mesh for mixing (old mesh)
   NGX = 53   NGY = 53   NGZ = 59
  (NGX  =168   NGY  =160   NGZ  =180)
  gives a total of 165731 points

 initial charge density was supplied:
 charge density of overlapping atoms calculated
 number of electron     280.0000000 magnetization       2.0000000
 keeping initial charge density in first step


--------------------------------------------------------------------------------------------------------


 Maximum index for augmentation-charges          337 (set IRDMAX)


--------------------------------------------------------------------------------------------------------


 First call to EWALD:  gamma=   0.116
 Maximum number of real-space cells 3x 3x 3
 Maximum number of reciprocal cells 3x 3x 3

    FEWALD:  cpu time    0.0029: real time    0.0029


--------------------------------------- Iteration      1(   1)  ---------------------------------------


    POTLOK:  cpu time    0.1785: real time    0.1883
    SETDIJ:  cpu time    0.0098: real time    0.0098
     EDDAV:  cpu time   18.9117: real time   18.9847
 BZINTS: Fermi energy:  7.232932;280.000000 electrons
         Band energy:***********;  BLOECHL correction: -0.006818
       DOS:  cpu time    0.0856: real time    0.0857
    --------------------------------------------
      LOOP:  cpu time   19.1856: real time   19.2685

 eigenvalue-minimisations  :  3944
 total energy-change (2. order) : 0.2411656E+04  (-0.9338252E+04)
 number of electron     280.0000000 magnetization       2.0000000
 augmentation part      280.0000000 magnetization       2.0000000

 Free energy of the ion-electron system (eV)
  ---------------------------------------------------
  alpha Z        PSCENC =       104.41568073
  Ewald energy   TEWEN  =     22584.24697297
  -Hartree energ DENC   =    -34840.92752815
  -exchange      EXHF   =         0.00000000
  -V(xc)+E(xc)   XCENC  =      1021.60718908
  PAW double counting   =     11453.83848114   -11942.90478952
  entropy T*S    EENTRO =         0.00000000
  eigenvalues    EBANDS =     -1140.35573414
  atomic energy  EATOM  =     15171.73615219
  Solvation  Ediel_sol  =         0.00000000
  ---------------------------------------------------
  free energy    TOTEN  =      2411.65642430 eV

  energy without entropy =     2411.65642430  energy(sigma->0) =     2411.65642430


--------------------------------------------------------------------------------------------------------




--------------------------------------- Iteration      1(   2)  ---------------------------------------


     EDDAV:  cpu time   22.8367: real time   22.9149
 BZINTS: Fermi energy: -0.651350;280.000000 electrons
         Band energy:***********;  BLOECHL correction:  0.000000
       DOS:  cpu time    0.0176: real time    0.0176
    --------------------------------------------
      LOOP:  cpu time   22.8543: real time   22.9325

 eigenvalue-minimisations  :  5008
 total energy-change (2. order) :-0.2259403E+04  (-0.2163266E+04)
 number of electron     280.0000000 magnetization       2.0000000
 augmentation part      280.0000000 magnetization       2.0000000

 Free energy of the ion-electron system (eV)
  ---------------------------------------------------
  alpha Z        PSCENC =       104.41568073
  Ewald energy   TEWEN  =     22584.24697297
  -Hartree energ DENC   =    -34840.92752815
  -exchange      EXHF   =         0.00000000
  -V(xc)+E(xc)   XCENC  =      1021.60718908
  PAW double counting   =     11453.83848114   -11942.90478952
  entropy T*S    EENTRO =         0.00000000
  eigenvalues    EBANDS =     -3399.75824119
  atomic energy  EATOM  =     15171.73615219
  Solvation  Ediel_sol  =         0.00000000
  ---------------------------------------------------
  free energy    TOTEN  =       152.25391725 eV

  energy without entropy =      152.25391725  energy(sigma->0) =      152.25391725


--------------------------------------------------------------------------------------------------------




--------------------------------------- Iteration      1(   3)  ---------------------------------------


     EDDAV:  cpu time   20.2557: real time   20.3189
 BZINTS: Fermi energy: -3.627094;280.000000 electrons
         Band energy:***********;  BLOECHL correction:  0.000000
       DOS:  cpu time    0.0206: real time    0.0206
    --------------------------------------------
      LOOP:  cpu time   20.2763: real time   20.3396

 eigenvalue-minimisations  :  4272
 total energy-change (2. order) :-0.5845130E+03  (-0.5791561E+03)
 number of electron     280.0000000 magnetization       2.0000000
 augmentation part      280.0000000 magnetization       2.0000000

 Free energy of the ion-electron system (eV)
  ---------------------------------------------------
  alpha Z        PSCENC =       104.41568073
  Ewald energy   TEWEN  =     22584.24697297
  -Hartree energ DENC   =    -34840.92752815
  -exchange      EXHF   =         0.00000000
  -V(xc)+E(xc)   XCENC  =      1021.60718908
  PAW double counting   =     11453.83848114   -11942.90478952
  entropy T*S    EENTRO =         0.00000000
  eigenvalues    EBANDS =     -3984.27122267
  atomic energy  EATOM  =     15171.73615219
  Solvation  Ediel_sol  =         0.00000000
  ---------------------------------------------------
  free energy    TOTEN  =      -432.25906423 eV

  energy without entropy =     -432.25906423  energy(sigma->0) =     -432.25906423


--------------------------------------------------------------------------------------------------------




--------------------------------------- Iteration      1(   4)  ---------------------------------------


     EDDAV:  cpu time   19.9141: real time   19.9776
 BZINTS: Fermi energy: -4.095024;280.000000 electrons
         Band energy:***********;  BLOECHL correction:  0.000000
       DOS:  cpu time    0.0198: real time    0.0198
    --------------------------------------------
      LOOP:  cpu time   19.9339: real time   19.9974

 eigenvalue-minimisations  :  4168
 total energy-change (2. order) :-0.3026084E+02  (-0.2936582E+02)
 number of electron     280.0000000 magnetization       2.0000000
 augmentation part      280.0000000 magnetization       2.0000000

 Free energy of the ion-electron system (eV)
  ---------------------------------------------------
  alpha Z        PSCENC =       104.41568073
  Ewald energy   TEWEN  =     22584.24697297
  -Hartree energ DENC   =    -34840.92752815
  -exchange      EXHF   =         0.00000000
  -V(xc)+E(xc)   XCENC  =      1021.60718908
  PAW double counting   =     11453.83848114   -11942.90478952
  entropy T*S    EENTRO =         0.00000000
  eigenvalues    EBANDS =     -4014.53206281
  atomic energy  EATOM  =     15171.73615219
  Solvation  Ediel_sol  =         0.00000000
  ---------------------------------------------------
  free energy    TOTEN  =      -462.51990438 eV

  energy without entropy =     -462.51990438  energy(sigma->0) =     -462.51990438


--------------------------------------------------------------------------------------------------------




--------------------------------------- Iteration      1(   5)  ---------------------------------------


     EDDAV:  cpu time   23.4757: real time   23.5777
 BZINTS: Fermi energy: -4.141285;280.000000 electrons
         Band energy:***********;  BLOECHL correction:  0.000000
       DOS:  cpu time    0.0192: real time    0.0192
    CHARGE:  cpu time    0.4189: real time    0.4213
    MIXING:  cpu time    0.0048: real time    0.0049
    --------------------------------------------
      LOOP:  cpu time   23.9187: real time   24.0230

 eigenvalue-minimisations  :  5216
 total energy-change (2. order) :-0.1742670E+01  (-0.1720102E+01)
 number of electron     280.0000050 magnetization       0.0000000
 augmentation part       17.5357021 magnetization       0.0377068

 Broyden mixing:
  rms(total) = 0.33141E+01    rms(broyden)= 0.33105E+01
  rms(prec ) = 0.36683E+01
  weight for this iteration     100.00

 Free energy of the ion-electron system (eV)
  ---------------------------------------------------
  alpha Z        PSCENC =       104.41568073
  Ewald energy   TEWEN  =     22584.24697297
  -Hartree energ DENC   =    -34840.92752815
  -exchange      EXHF   =         0.00000000
  -V(xc)+E(xc)   XCENC  =      1021.60718908
  PAW double counting   =     11453.83848114   -11942.90478952
  entropy T*S    EENTRO =         0.00000000
  eigenvalues    EBANDS =     -4016.27473265
  atomic energy  EATOM  =     15171.73615219
  Solvation  Ediel_sol  =         0.00000000
  ---------------------------------------------------
  free energy    TOTEN  =      -464.26257422 eV

  energy without entropy =     -464.26257422  energy(sigma->0) =     -464.26257422


--------------------------------------------------------------------------------------------------------




--------------------------------------- Iteration      1(   6)  ---------------------------------------


    POTLOK:  cpu time    0.1623: real time    0.1711
    SETDIJ:  cpu time    0.0099: real time    0.0099
     EDDAV:  cpu time   21.5383: real time   21.6188
 BZINTS: Fermi energy: -4.470118;280.000000 electrons
         Band energy:***********;  BLOECHL correction:  0.000000
       DOS:  cpu time    0.0187: real time    0.0187
    CHARGE:  cpu time    0.5543: real time    0.5564
    MIXING:  cpu time    0.0047: real time    0.0048
    --------------------------------------------
      LOOP:  cpu time   22.2883: real time   22.3797

 eigenvalue-minimisations  :  4648
 total energy-change (2. order) : 0.1762200E+02  (-0.7368631E+01)
 number of electron     280.0000044 magnetization      -0.0000001
 augmentation part       16.1067265 magnetization       0.0141437

 Broyden mixing:
  rms(total) = 0.18620E+01    rms(broyden)= 0.18610E+01
  rms(prec ) = 0.19906E+01
  weight for this iteration     100.00

 eigenvalues of (default mixing * dielectric matrix)
  average eigenvalue GAMMA=   1.0639
  1.0639

 Free energy of the ion-electron system (eV)
  ---------------------------------------------------
  alpha Z        PSCENC =       104.41568073
  Ewald energy   TEWEN  =     22584.24697297
  -Hartree energ DENC   =    -34975.90566758
  -exchange      EXHF   =         0.00000000
  -V(xc)+E(xc)   XCENC  =      1031.25373267
  PAW double counting   =     13383.57255651   -13872.31439409
  entropy T*S    EENTRO =         0.00000000
  eigenvalues    EBANDS =     -3873.64560995
  atomic energy  EATOM  =     15171.73615219
  Solvation  Ediel_sol  =         0.00000000
  ---------------------------------------------------
  free energy    TOTEN  =      -446.64057655 eV

  energy without entropy =     -446.64057655  energy(sigma->0) =     -446.64057655


--------------------------------------------------------------------------------------------------------




--------------------------------------- Iteration      1(   7)  ---------------------------------------


    POTLOK:  cpu time    0.1999: real time    0.2023
    SETDIJ:  cpu time    0.0109: real time    0.0109
     EDDAV:  cpu time   19.9853: real time   20.0557
 BZINTS: Fermi energy: -4.311328;280.000000 electrons
         Band energy:***********;  BLOECHL correction:  0.000000
       DOS:  cpu time    0.0202: real time    0.0202
    CHARGE:  cpu time    0.5485: real time    0.5517
    MIXING:  cpu time    0.0048: real time    0.0048
    --------------------------------------------
      LOOP:  cpu time   20.7696: real time   20.8456

 eigenvalue-minimisations  :  4192
 total energy-change (2. order) : 0.7495472E+00  (-0.2537606E+01)
 number of electron     280.0000043 magnetization      -0.0000000
 augmentation part       16.0875498 magnetization       0.0076158

 Broyden mixing:
  rms(total) = 0.13544E+01    rms(broyden)= 0.13540E+01
  rms(prec ) = 0.14662E+01
  weight for this iteration     100.00

 eigenvalues of (default mixing * dielectric matrix)
  average eigenvalue GAMMA=   1.1826
  0.8560  1.5091

 Free energy of the ion-electron system (eV)
  ---------------------------------------------------
  alpha Z        PSCENC =       104.41568073
  Ewald energy   TEWEN  =     22584.24697297
  -Hartree energ DENC   =    -35050.19529062
  -exchange      EXHF   =         0.00000000
  -V(xc)+E(xc)   XCENC  =      1034.36807597
  PAW double counting   =     14930.03483129   -15418.93491056
  entropy T*S    EENTRO =         0.00000000
  eigenvalues    EBANDS =     -3801.56254130
  atomic energy  EATOM  =     15171.73615219
  Solvation  Ediel_sol  =         0.00000000
  ---------------------------------------------------
  free energy    TOTEN  =      -445.89102934 eV

  energy without entropy =     -445.89102934  energy(sigma->0) =     -445.89102934


--------------------------------------------------------------------------------------------------------




--------------------------------------- Iteration      1(   8)  ---------------------------------------


    POTLOK:  cpu time    0.1948: real time    0.2034
    SETDIJ:  cpu time    0.0110: real time    0.0110
     EDDAV:  cpu time   19.6224: real time   19.6851
 BZINTS: Fermi energy: -4.215054;280.000000 electrons
         Band energy:***********;  BLOECHL correction:  0.000000
       DOS:  cpu time    0.0205: real time    0.0205
    CHARGE:  cpu time    0.5439: real time    0.5462
    MIXING:  cpu time    0.0048: real time    0.0048
    --------------------------------------------
      LOOP:  cpu time   20.3974: real time   20.4711

 eigenvalue-minimisations  :  4160
 total energy-change (2. order) : 0.6340577E+00  (-0.1767987E+01)
 number of electron     280.0000042 magnetization       0.0000000
 augmentation part       15.8832196 magnetization       0.0030184

 Broyden mixing:
  rms(total) = 0.99186E+00    rms(broyden)= 0.99163E+00
  rms(prec ) = 0.11078E+01
  weight for this iteration     100.00

 eigenvalues of (default mixing * dielectric matrix)
  average eigenvalue GAMMA=   1.3940
  2.5865  1.0376  0.5577

 Free energy of the ion-electron system (eV)
  ---------------------------------------------------
  alpha Z        PSCENC =       104.41568073
  Ewald energy   TEWEN  =     22584.24697297
  -Hartree energ DENC   =    -35091.16713955
  -exchange      EXHF   =         0.00000000
  -V(xc)+E(xc)   XCENC  =      1036.50496465
  PAW double counting   =     16316.41874407   -16806.21858170
  entropy T*S    EENTRO =         0.00000000
  eigenvalues    EBANDS =     -3761.19376495
  atomic energy  EATOM  =     15171.73615219
  Solvation  Ediel_sol  =         0.00000000
  ---------------------------------------------------
  free energy    TOTEN  =      -445.25697159 eV

  energy without entropy =     -445.25697159  energy(sigma->0) =     -445.25697159


--------------------------------------------------------------------------------------------------------




--------------------------------------- Iteration      1(   9)  ---------------------------------------


    POTLOK:  cpu time    0.1998: real time    0.2004
    SETDIJ:  cpu time    0.0114: real time    0.0114
     EDDAV:  cpu time   23.0975: real time   23.1739
 BZINTS: Fermi energy: -4.091273;280.000000 electrons
         Band energy:***********;  BLOECHL correction:  0.000000
       DOS:  cpu time    0.0204: real time    0.0204
    CHARGE:  cpu time    0.5480: real time    0.5493
    MIXING:  cpu time    0.0053: real time    0.0053
    --------------------------------------------
      LOOP:  cpu time   23.8824: real time   23.9607

 eigenvalue-minimisations  :  5048
 total energy-change (2. order) :-0.2803339E+00  (-0.2238893E+01)
 number of electron     280.0000045 magnetization       0.0000000
 augmentation part       16.0536848 magnetization      -0.0002080

 Broyden mixing:
  rms(total) = 0.68297E+00    rms(broyden)= 0.68256E+00
  rms(prec ) = 0.86258E+00
  weight for this iteration     100.00

 eigenvalues of (default mixing * dielectric matrix)
  average eigenvalue GAMMA=   1.3730
  3.3488  1.0648  0.5393  0.5393

 Free energy of the ion-electron system (eV)
  ---------------------------------------------------
  alpha Z        PSCENC =       104.41568073
  Ewald energy   TEWEN  =     22584.24697297
  -Hartree energ DENC   =    -35128.89672542
  -exchange      EXHF   =         0.00000000
  -V(xc)+E(xc)   XCENC  =      1038.01187283
  PAW double counting   =     17973.39557599   -18466.57934696
  entropy T*S    EENTRO =         0.00000000
  eigenvalues    EBANDS =     -3721.86748778
  atomic energy  EATOM  =     15171.73615219
  Solvation  Ediel_sol  =         0.00000000
  ---------------------------------------------------
  free energy    TOTEN  =      -445.53730545 eV

  energy without entropy =     -445.53730545  energy(sigma->0) =     -445.53730545


--------------------------------------------------------------------------------------------------------




--------------------------------------- Iteration      1(  10)  ---------------------------------------


    POTLOK:  cpu time    0.1923: real time    0.2015
    SETDIJ:  cpu time    0.0108: real time    0.0109
     EDDAV:  cpu time   22.3045: real time   22.3766
 BZINTS: Fermi energy: -3.676169;280.000000 electrons
         Band energy:***********;  BLOECHL correction:  0.000000
       DOS:  cpu time    0.0191: real time    0.0191
    CHARGE:  cpu time    0.5413: real time    0.5437
    MIXING:  cpu time    0.0055: real time    0.0055
    --------------------------------------------
      LOOP:  cpu time   23.0735: real time   23.1573

 eigenvalue-minimisations  :  4816
 total energy-change (2. order) : 0.1012480E+01  (-0.7602785E+00)
 number of electron     280.0000042 magnetization       0.0000000
 augmentation part       16.0494633 magnetization      -0.0020624

 Broyden mixing:
  rms(total) = 0.33531E+00    rms(broyden)= 0.33429E+00
  rms(prec ) = 0.44558E+00
  weight for this iteration     100.00

 eigenvalues of (default mixing * dielectric matrix)
  average eigenvalue GAMMA=   1.2854
  3.6477  1.0820  0.7572  0.4701  0.4701

 Free energy of the ion-electron system (eV)
  ---------------------------------------------------
  alpha Z        PSCENC =       104.41568073
  Ewald energy   TEWEN  =     22584.24697297
  -Hartree energ DENC   =    -35155.43430479
  -exchange      EXHF   =         0.00000000
  -V(xc)+E(xc)   XCENC  =      1039.61965795
  PAW double counting   =     19310.33740215   -19803.73840040
  entropy T*S    EENTRO =         0.00000000
  eigenvalues    EBANDS =     -3695.70798602
  atomic energy  EATOM  =     15171.73615219
  Solvation  Ediel_sol  =         0.00000000
  ---------------------------------------------------
  free energy    TOTEN  =      -444.52482523 eV

  energy without entropy =     -444.52482523  energy(sigma->0) =     -444.52482523


--------------------------------------------------------------------------------------------------------




--------------------------------------- Iteration      1(  11)  ---------------------------------------


    POTLOK:  cpu time    0.1812: real time    0.1867
    SETDIJ:  cpu time    0.0106: real time    0.0106
     EDDAV:  cpu time   20.4417: real time   20.5173
 BZINTS: Fermi energy: -3.699925;280.000000 electrons
         Band energy:***********;  BLOECHL correction:  0.000000
       DOS:  cpu time    0.0201: real time    0.0201
    CHARGE:  cpu time    0.5474: real time    0.5490
    MIXING:  cpu time    0.0063: real time    0.0063
    --------------------------------------------
      LOOP:  cpu time   21.2072: real time   21.2900

 eigenvalue-minimisations  :  4408
 total energy-change (2. order) : 0.1260410E+00  (-0.3534826E+00)
 number of electron     280.0000044 magnetization       0.0000000
 augmentation part       16.0387331 magnetization      -0.0020675

 Broyden mixing:
  rms(total) = 0.26500E+00    rms(broyden)= 0.26444E+00
  rms(prec ) = 0.36267E+00
  weight for this iteration     100.00

 eigenvalues of (default mixing * dielectric matrix)
  average eigenvalue GAMMA=   1.1930
  3.6476  1.0574  0.8014  0.8014  0.4252  0.4252

 Free energy of the ion-electron system (eV)
  ---------------------------------------------------
  alpha Z        PSCENC =       104.41568073
  Ewald energy   TEWEN  =     22584.24697297
  -Hartree energ DENC   =    -35162.18169070
  -exchange      EXHF   =         0.00000000
  -V(xc)+E(xc)   XCENC  =      1040.02683763
  PAW double counting   =     19816.11147560   -20309.17371495
  entropy T*S    EENTRO =         0.00000000
  eigenvalues    EBANDS =     -3689.58049765
  atomic energy  EATOM  =     15171.73615219
  Solvation  Ediel_sol  =         0.00000000
  ---------------------------------------------------
  free energy    TOTEN  =      -444.39878418 eV

  energy without entropy =     -444.39878418  energy(sigma->0) =     -444.39878418


--------------------------------------------------------------------------------------------------------




--------------------------------------- Iteration      1(  12)  ---------------------------------------


    POTLOK:  cpu time    0.1967: real time    0.2033
    SETDIJ:  cpu time    0.0110: real time    0.0110
     EDDAV:  cpu time   21.0421: real time   21.2585
 BZINTS: Fermi energy: -3.669917;280.000000 electrons
         Band energy:***********;  BLOECHL correction:  0.000000
       DOS:  cpu time    0.0196: real time    0.0196
    CHARGE:  cpu time    0.5622: real time    0.5625
    MIXING:  cpu time    0.0062: real time    0.0063
    --------------------------------------------
      LOOP:  cpu time   21.8381: real time   22.0625

 eigenvalue-minimisations  :  4512
 total energy-change (2. order) : 0.1315459E+00  (-0.1595760E+00)
 number of electron     280.0000043 magnetization       0.0000000
 augmentation part       15.9839217 magnetization      -0.0014674

 Broyden mixing:
  rms(total) = 0.12734E+00    rms(broyden)= 0.12679E+00
  rms(prec ) = 0.15018E+00
  weight for this iteration     100.00

 eigenvalues of (default mixing * dielectric matrix)
  average eigenvalue GAMMA=   1.1669
  3.5911  1.2685  1.1024  0.6806  0.6806  0.4224  0.4224

 Free energy of the ion-electron system (eV)
  ---------------------------------------------------
  alpha Z        PSCENC =       104.41568073
  Ewald energy   TEWEN  =     22584.24697297
  -Hartree energ DENC   =    -35159.79072439
  -exchange      EXHF   =         0.00000000
  -V(xc)+E(xc)   XCENC  =      1039.97425413
  PAW double counting   =     19893.87409851   -20386.39400693
  entropy T*S    EENTRO =         0.00000000
  eigenvalues    EBANDS =     -3692.32966550
  atomic energy  EATOM  =     15171.73615219
  Solvation  Ediel_sol  =         0.00000000
  ---------------------------------------------------
  free energy    TOTEN  =      -444.26723829 eV

  energy without entropy =     -444.26723829  energy(sigma->0) =     -444.26723829


--------------------------------------------------------------------------------------------------------




--------------------------------------- Iteration      1(  13)  ---------------------------------------


    POTLOK:  cpu time    0.2046: real time    0.2066
    SETDIJ:  cpu time    0.0122: real time    0.0122
     EDDAV:  cpu time   20.2039: real time   20.2717
 BZINTS: Fermi energy: -3.686172;280.000000 electrons
         Band energy:***********;  BLOECHL correction:  0.000000
       DOS:  cpu time    0.0181: real time    0.0182
    CHARGE:  cpu time    0.3720: real time    0.3745
    MIXING:  cpu time    0.0062: real time    0.0062
    --------------------------------------------
      LOOP:  cpu time   20.8165: real time   20.8882

 eigenvalue-minimisations  :  4320
 total energy-change (2. order) : 0.1521754E-01  (-0.1760636E-01)
 number of electron     280.0000043 magnetization      -0.0000000
 augmentation part       15.9814967 magnetization      -0.0008041

 Broyden mixing:
  rms(total) = 0.74628E-01    rms(broyden)= 0.74603E-01
  rms(prec ) = 0.81081E-01
  weight for this iteration     100.00

 eigenvalues of (default mixing * dielectric matrix)
  average eigenvalue GAMMA=   1.2015
  3.5394  2.0385  1.0201  0.7052  0.7052  0.7666  0.4184  0.4184

 Free energy of the ion-electron system (eV)
  ---------------------------------------------------
  alpha Z        PSCENC =       104.41568073
  Ewald energy   TEWEN  =     22584.24697297
  -Hartree energ DENC   =    -35152.21856323
  -exchange      EXHF   =         0.00000000
  -V(xc)+E(xc)   XCENC  =      1039.66803245
  PAW double counting   =     19924.92520229   -20417.30020470
  entropy T*S    EENTRO =         0.00000000
  eigenvalues    EBANDS =     -3699.72529345
  atomic energy  EATOM  =     15171.73615219
  Solvation  Ediel_sol  =         0.00000000
  ---------------------------------------------------
  free energy    TOTEN  =      -444.25202076 eV

  energy without entropy =     -444.25202076  energy(sigma->0) =     -444.25202076


--------------------------------------------------------------------------------------------------------




--------------------------------------- Iteration      1(  14)  ---------------------------------------


    POTLOK:  cpu time    0.1601: real time    0.1686
    SETDIJ:  cpu time    0.0096: real time    0.0096
     EDDAV:  cpu time   19.4529: real time   19.5130
 BZINTS: Fermi energy: -3.711178;280.000000 electrons
         Band energy:***********;  BLOECHL correction:  0.000000
       DOS:  cpu time    0.0204: real time    0.0204
    CHARGE:  cpu time    0.5491: real time    0.5513
    MIXING:  cpu time    0.0072: real time    0.0072
    --------------------------------------------
      LOOP:  cpu time   20.1992: real time   20.2701

 eigenvalue-minimisations  :  4096
 total energy-change (2. order) : 0.4563244E-02  (-0.4486040E-02)
 number of electron     280.0000043 magnetization       0.0000000
 augmentation part       15.9894450 magnetization      -0.0002079

 Broyden mixing:
  rms(total) = 0.44752E-01    rms(broyden)= 0.44732E-01
  rms(prec ) = 0.50666E-01
  weight for this iteration     100.00

 eigenvalues of (default mixing * dielectric matrix)
  average eigenvalue GAMMA=   1.2452
  3.6144  2.5417  0.9389  0.9389  0.9467  0.6962  0.6962  0.4168  0.4168

 Free energy of the ion-electron system (eV)
  ---------------------------------------------------
  alpha Z        PSCENC =       104.41568073
  Ewald energy   TEWEN  =     22584.24697297
  -Hartree energ DENC   =    -35145.87898388
  -exchange      EXHF   =         0.00000000
  -V(xc)+E(xc)   XCENC  =      1039.39174177
  PAW double counting   =     19972.57194311   -20464.84264240
  entropy T*S    EENTRO =         0.00000000
  eigenvalues    EBANDS =     -3705.88832200
  atomic energy  EATOM  =     15171.73615219
  Solvation  Ediel_sol  =         0.00000000
  ---------------------------------------------------
  free energy    TOTEN  =      -444.24745751 eV

  energy without entropy =     -444.24745751  energy(sigma->0) =     -444.24745751


--------------------------------------------------------------------------------------------------------




--------------------------------------- Iteration      1(  15)  ---------------------------------------


    POTLOK:  cpu time    0.1904: real time    0.2002
    SETDIJ:  cpu time    0.0110: real time    0.0110
     EDDAV:  cpu time   21.2129: real time   21.2705
 BZINTS: Fermi energy: -3.716804;280.000000 electrons
         Band energy:***********;  BLOECHL correction:  0.000000
       DOS:  cpu time    0.0196: real time    0.0196
    CHARGE:  cpu time    0.5500: real time    0.5519
    MIXING:  cpu time    0.0075: real time    0.0075
    --------------------------------------------
      LOOP:  cpu time   21.9914: real time   22.0608

 eigenvalue-minimisations  :  4528
 total energy-change (2. order) :-0.6288174E-03  (-0.4861703E-02)
 number of electron     280.0000043 magnetization       0.0000000
 augmentation part       15.9937779 magnetization      -0.0000593

 Broyden mixing:
  rms(total) = 0.45420E-01    rms(broyden)= 0.45326E-01
  rms(prec ) = 0.60325E-01
  weight for this iteration     100.00

 eigenvalues of (default mixing * dielectric matrix)
  average eigenvalue GAMMA=   1.2566
  3.6705  2.8327  1.0708  0.9973  0.9973  0.7015  0.7015  0.7576  0.4185  0.4185

 Free energy of the ion-electron system (eV)
  ---------------------------------------------------
  alpha Z        PSCENC =       104.41568073
  Ewald energy   TEWEN  =     22584.24697297
  -Hartree energ DENC   =    -35143.64656512
  -exchange      EXHF   =         0.00000000
  -V(xc)+E(xc)   XCENC  =      1039.28656358
  PAW double counting   =     20029.11360005   -20521.36612745
  entropy T*S    EENTRO =         0.00000000
  eigenvalues    EBANDS =     -3708.03436328
  atomic energy  EATOM  =     15171.73615219
  Solvation  Ediel_sol  =         0.00000000
  ---------------------------------------------------
  free energy    TOTEN  =      -444.24808633 eV

  energy without entropy =     -444.24808633  energy(sigma->0) =     -444.24808633


--------------------------------------------------------------------------------------------------------




--------------------------------------- Iteration      1(  16)  ---------------------------------------


    POTLOK:  cpu time    0.1981: real time    0.1989
    SETDIJ:  cpu time    0.0142: real time    0.0142
     EDDAV:  cpu time   20.2014: real time   20.2633
 BZINTS: Fermi energy: -3.719930;280.000000 electrons
         Band energy:***********;  BLOECHL correction:  0.000000
       DOS:  cpu time    0.0193: real time    0.0193
    CHARGE:  cpu time    0.5440: real time    0.5456
    MIXING:  cpu time    0.0075: real time    0.0075
    --------------------------------------------
      LOOP:  cpu time   20.9844: real time   21.0489

 eigenvalue-minimisations  :  4336
 total energy-change (2. order) :-0.3071729E-04  (-0.8029151E-02)
 number of electron     280.0000043 magnetization       0.0000000
 augmentation part       15.9917918 magnetization      -0.0007139

 Broyden mixing:
  rms(total) = 0.41620E-01    rms(broyden)= 0.41467E-01
  rms(prec ) = 0.56529E-01
  weight for this iteration     100.00

 eigenvalues of (default mixing * dielectric matrix)
  average eigenvalue GAMMA=   1.2116
  3.6958  2.8826  1.1906  1.0776  1.0776  0.7005  0.7005  0.7089  0.3987  0.4472
  0.4472

 Free energy of the ion-electron system (eV)
  ---------------------------------------------------
  alpha Z        PSCENC =       104.41568073
  Ewald energy   TEWEN  =     22584.24697297
  -Hartree energ DENC   =    -35143.06809529
  -exchange      EXHF   =         0.00000000
  -V(xc)+E(xc)   XCENC  =      1039.26392126
  PAW double counting   =     20049.72062479   -20541.94455318
  entropy T*S    EENTRO =         0.00000000
  eigenvalues    EBANDS =     -3708.61882051
  atomic energy  EATOM  =     15171.73615219
  Solvation  Ediel_sol  =         0.00000000
  ---------------------------------------------------
  free energy    TOTEN  =      -444.24811705 eV

  energy without entropy =     -444.24811705  energy(sigma->0) =     -444.24811705


--------------------------------------------------------------------------------------------------------




--------------------------------------- Iteration      1(  17)  ---------------------------------------


    POTLOK:  cpu time    0.1919: real time    0.1931
    SETDIJ:  cpu time    0.0108: real time    0.0108
     EDDAV:  cpu time   19.9679: real time   20.0275
 BZINTS: Fermi energy: -3.716179;280.000000 electrons
         Band energy:***********;  BLOECHL correction:  0.000000
       DOS:  cpu time    0.0195: real time    0.0195
    CHARGE:  cpu time    0.5566: real time    0.5588
    MIXING:  cpu time    0.0084: real time    0.0084
    --------------------------------------------
      LOOP:  cpu time   20.7551: real time   20.8181

 eigenvalue-minimisations  :  4200
 total energy-change (2. order) : 0.1989521E-02  (-0.1978075E-02)
 number of electron     280.0000043 magnetization       0.0000000
 augmentation part       15.9922307 magnetization      -0.0009393

 Broyden mixing:
  rms(total) = 0.14229E-01    rms(broyden)= 0.14160E-01
  rms(prec ) = 0.14549E-01
  weight for this iteration     100.00

 eigenvalues of (default mixing * dielectric matrix)
  average eigenvalue GAMMA=   1.1509
  3.7104  2.9094  1.2081  1.0836  1.0836  0.7048  0.7048  0.7157  0.4050  0.4585
  0.4585  0.3678

 Free energy of the ion-electron system (eV)
  ---------------------------------------------------
  alpha Z        PSCENC =       104.41568073
  Ewald energy   TEWEN  =     22584.24697297
  -Hartree energ DENC   =    -35143.00968781
  -exchange      EXHF   =         0.00000000
  -V(xc)+E(xc)   XCENC  =      1039.26386728
  PAW double counting   =     20055.21909108   -20547.46445257
  entropy T*S    EENTRO =         0.00000000
  eigenvalues    EBANDS =     -3708.65375140
  atomic energy  EATOM  =     15171.73615219
  Solvation  Ediel_sol  =         0.00000000
  ---------------------------------------------------
  free energy    TOTEN  =      -444.24612753 eV

  energy without entropy =     -444.24612753  energy(sigma->0) =     -444.24612753


--------------------------------------------------------------------------------------------------------




--------------------------------------- Iteration      1(  18)  ---------------------------------------


    POTLOK:  cpu time    0.1984: real time    0.2013
    SETDIJ:  cpu time    0.0109: real time    0.0109
     EDDAV:  cpu time   19.3711: real time   19.4380
 BZINTS: Fermi energy: -3.716179;280.000000 electrons
         Band energy:***********;  BLOECHL correction:  0.000000
       DOS:  cpu time    0.0187: real time    0.0187
    CHARGE:  cpu time    0.5483: real time    0.5499
    MIXING:  cpu time    0.0086: real time    0.0086
    --------------------------------------------
      LOOP:  cpu time   20.1560: real time   20.2275

 eigenvalue-minimisations  :  4032
 total energy-change (2. order) :-0.6981136E-03  (-0.2120951E-03)
 number of electron     280.0000043 magnetization       0.0000000
 augmentation part       15.9923822 magnetization      -0.0013398

 Broyden mixing:
  rms(total) = 0.18982E-01    rms(broyden)= 0.18967E-01
  rms(prec ) = 0.19146E-01
  weight for this iteration     100.00

 eigenvalues of (default mixing * dielectric matrix)
  average eigenvalue GAMMA=   1.2201
  3.7366  3.0595  1.7618  0.7838  1.0550  1.0550  0.7171  0.7171  0.8224  0.8224
  0.4076  0.4769  0.4465

 Free energy of the ion-electron system (eV)
  ---------------------------------------------------
  alpha Z        PSCENC =       104.41568073
  Ewald energy   TEWEN  =     22584.24697297
  -Hartree energ DENC   =    -35143.12888395
  -exchange      EXHF   =         0.00000000
  -V(xc)+E(xc)   XCENC  =      1039.26979027
  PAW double counting   =     20053.52989309   -20545.77958035
  entropy T*S    EENTRO =         0.00000000
  eigenvalues    EBANDS =     -3708.53685058
  atomic energy  EATOM  =     15171.73615219
  Solvation  Ediel_sol  =         0.00000000
  ---------------------------------------------------
  free energy    TOTEN  =      -444.24682564 eV

  energy without entropy =     -444.24682564  energy(sigma->0) =     -444.24682564


--------------------------------------------------------------------------------------------------------




--------------------------------------- Iteration      1(  19)  ---------------------------------------


    POTLOK:  cpu time    0.1916: real time    0.1963
    SETDIJ:  cpu time    0.0111: real time    0.0111
     EDDAV:  cpu time   17.6131: real time   17.6626
 BZINTS: Fermi energy: -3.716179;280.000000 electrons
         Band energy:***********;  BLOECHL correction:  0.000000
       DOS:  cpu time    0.0200: real time    0.0201
    CHARGE:  cpu time    0.5522: real time    0.5537
    MIXING:  cpu time    0.0091: real time    0.0091
    --------------------------------------------
      LOOP:  cpu time   18.3971: real time   18.4529

 eigenvalue-minimisations  :  3632
 total energy-change (2. order) : 0.7920325E-03  (-0.3657603E-03)
 number of electron     280.0000043 magnetization      -0.0000000
 augmentation part       15.9928294 magnetization      -0.0008142

 Broyden mixing:
  rms(total) = 0.12566E-01    rms(broyden)= 0.12543E-01
  rms(prec ) = 0.13346E-01
  weight for this iteration     100.00

 eigenvalues of (default mixing * dielectric matrix)
  average eigenvalue GAMMA=   1.2141
  3.6750  2.9424  2.2104  0.9031  1.0552  1.0552  1.0520  0.7114  0.7114  0.7383
  0.6068  0.4075  0.4828  0.4453

 Free energy of the ion-electron system (eV)
  ---------------------------------------------------
  alpha Z        PSCENC =       104.41568073
  Ewald energy   TEWEN  =     22584.24697297
  -Hartree energ DENC   =    -35143.08390859
  -exchange      EXHF   =         0.00000000
  -V(xc)+E(xc)   XCENC  =      1039.26868294
  PAW double counting   =     20057.29980673   -20549.56026036
  entropy T*S    EENTRO =         0.00000000
  eigenvalues    EBANDS =     -3708.56916022
  atomic energy  EATOM  =     15171.73615219
  Solvation  Ediel_sol  =         0.00000000
  ---------------------------------------------------
  free energy    TOTEN  =      -444.24603361 eV

  energy without entropy =     -444.24603361  energy(sigma->0) =     -444.24603361


--------------------------------------------------------------------------------------------------------




--------------------------------------- Iteration      1(  20)  ---------------------------------------


    POTLOK:  cpu time    0.2082: real time    0.2089
[...]
   -.119E+02 0.403E+02 0.143E+03   0.127E+02 -.417E+02 -.143E+03   -.508E+00 0.153E+01 0.118E+01   -.645E-02 0.256E-03 0.188E-02
   -.475E+02 -.125E+02 0.691E+02   0.487E+02 0.132E+02 -.693E+02   -.186E+01 -.790E+00 0.646E+00   0.320E-03 0.170E-02 0.136E-03
   0.308E+02 -.252E+02 -.264E+02   -.315E+02 0.203E+02 0.247E+02   0.372E+00 0.311E+01 0.694E+00   0.991E-03 0.326E-02 0.640E-03
   0.233E+02 -.106E+02 -.355E+02   -.182E+02 0.138E+02 0.349E+02   -.328E+01 -.178E+01 0.293E+00   -.118E-02 -.197E-02 0.282E-02
   -.870E+01 0.146E+01 -.435E+02   0.351E+01 0.170E+01 0.430E+02   0.332E+01 -.166E+01 0.648E-01   -.730E-03 0.272E-03 0.257E-03
   -.189E+02 0.136E+02 -.518E+02   0.190E+02 -.119E+02 0.524E+02   0.918E+00 -.150E+01 -.118E+01   -.361E-02 0.139E-02 0.101E-02
   -.271E+01 0.147E+02 0.353E+02   0.264E+01 -.159E+02 -.342E+02   -.109E-02 0.233E+01 -.405E+00   -.790E-04 -.643E-02 0.418E-02
   0.246E+02 0.126E+02 -.486E+02   -.245E+02 -.106E+02 0.484E+02   -.105E+01 -.172E+01 -.994E+00   0.745E-02 0.481E-02 0.430E-02
   -.271E+01 -.161E+02 -.924E+01   0.271E+01 0.105E+02 0.111E+02   -.102E+00 0.362E+01 -.953E+00   -.152E-02 -.266E-02 0.287E-04
   0.329E+02 0.236E+02 0.137E+03   -.281E+02 -.209E+02 -.137E+03   -.291E+01 -.178E+01 0.332E+00   0.730E-03 -.111E-02 0.161E-02
   -.138E+02 0.193E+02 0.626E+02   0.892E+01 -.163E+02 -.615E+02   0.299E+01 -.150E+01 -.620E+00   -.621E-02 -.123E-02 0.524E-03
   0.492E+02 -.114E+02 0.475E+02   -.503E+02 0.122E+02 -.475E+02   0.191E+01 -.783E+00 0.330E+00   -.639E-03 0.668E-06 0.845E-03
   0.374E+01 0.571E+02 0.152E+03   -.441E+01 -.583E+02 -.153E+03   0.142E+00 0.170E+01 0.116E+01   0.549E-02 -.601E-02 -.131E-02
   -.487E+02 -.443E+02 -.714E+02   0.497E+02 0.449E+02 0.713E+02   -.180E+01 -.100E+01 -.386E+00   0.218E-02 -.202E-02 0.143E-02
   -.259E+02 -.246E+02 -.102E+03   0.264E+02 0.196E+02 0.101E+03   -.590E-03 0.295E+01 0.505E+00   0.864E-03 0.329E-02 0.548E-03
   0.114E+02 0.637E+00 -.797E+02   -.608E+01 0.243E+01 0.783E+02   -.322E+01 -.159E+01 0.283E+00   -.390E-03 -.257E-02 0.100E-02
   -.256E+02 -.702E+01 -.647E+02   0.204E+02 0.104E+02 0.632E+02   0.315E+01 -.184E+01 0.751E+00   0.303E-02 -.452E-02 0.299E-02
   0.553E+02 -.529E+02 0.985E+02   -.570E+02 0.531E+02 -.981E+02   0.175E+01 -.128E+01 -.302E-01   -.233E-02 0.680E-02 0.233E-03
   -.776E+01 0.327E+02 -.137E+03   0.772E+01 -.344E+02 0.137E+03   0.213E-03 0.230E+01 -.117E+01   -.163E-02 -.119E-02 0.115E-03
   -.636E+02 -.194E+02 -.442E+02   0.651E+02 0.195E+02 0.446E+02   -.195E+01 -.387E+00 -.732E+00   -.605E-02 0.283E-02 0.102E-02
   -.111E+02 0.298E+02 0.118E+03   0.112E+02 -.306E+02 -.120E+03   -.271E+00 0.371E+00 0.208E+01   -.401E-02 0.102E-02 0.171E-03
   -.143E+03 -.207E+02 0.161E+03   0.169E+03 0.350E+02 -.171E+03   -.293E+02 -.163E+02 0.116E+02   0.351E-03 -.130E-02 0.154E-02
   0.115E+03 -.114E+03 -.172E+03   -.141E+03 0.127E+03 0.181E+03   0.293E+02 -.153E+02 -.113E+02   -.225E-02 -.117E-03 0.265E-03
   0.196E+01 0.126E+03 0.284E+03   0.229E+00 -.150E+03 -.303E+03   -.278E+01 0.275E+02 0.219E+02   -.181E-02 -.278E-03 0.465E-02
   -.306E+02 0.104E+03 0.298E+03   0.278E+02 -.127E+03 -.319E+03   0.274E+01 0.252E+02 0.242E+02   -.220E-03 -.130E-02 0.260E-02
   0.141E+03 -.723E+02 -.824E+02   -.167E+03 0.894E+02 0.822E+02   0.285E+02 -.199E+02 -.423E+00   -.524E-02 -.321E-02 -.332E-03
   -.106E+03 -.596E+02 0.183E+03   0.132E+03 0.670E+02 -.199E+03   -.284E+02 -.849E+01 0.191E+02   -.260E-02 0.207E-02 0.211E-02
   -.341E+01 -.285E-01 -.178E+02   0.352E+01 0.206E+00 0.187E+02   -.177E+00 -.958E-01 -.107E+01   0.738E-03 0.170E-04 0.225E-03
   0.130E+02 -.182E+02 -.692E+02   -.134E+02 0.185E+02 0.735E+02   0.152E+00 -.479E+00 -.475E+01   -.676E-03 -.257E-02 0.174E-02
   0.135E+01 -.463E+02 -.219E+03   0.167E+02 0.567E+02 0.238E+03   -.201E+02 -.121E+02 -.223E+02   0.952E-02 0.880E-03 -.117E-02
   0.402E+01 0.509E+02 -.544E+02   -.205E+02 -.470E+02 0.636E+02   0.192E+02 -.408E+01 -.105E+02   -.565E-02 0.101E-01 0.680E-02
   -.126E+02 0.802E+02 0.899E+02   0.153E+02 -.109E+03 -.984E+02   -.320E+01 0.324E+02 0.999E+01   -.193E-02 -.890E-02 0.743E-02
   0.447E-01 0.778E+02 0.999E+02   -.197E+01 -.106E+03 -.108E+03   0.231E+01 0.323E+02 0.101E+02   0.383E-02 -.866E-02 0.777E-02
   0.269E+02 -.451E+02 -.239E+03   -.486E+02 0.560E+02 0.254E+03   0.242E+02 -.127E+02 -.173E+02   -.540E-02 0.156E-02 -.423E-02
   -.207E-01 0.579E+02 -.779E+02   0.150E+02 -.545E+02 0.902E+02   -.174E+02 -.339E+01 -.142E+02   0.629E-02 0.383E-02 0.137E-02
   0.389E+02 0.135E+02 0.524E+02   -.424E+02 -.161E+02 -.516E+02   0.467E+01 0.312E+01 -.452E+00   0.762E-02 0.288E-02 0.364E-02
   0.108E+02 0.285E+02 0.106E+03   -.125E+02 -.302E+02 -.110E+03   0.194E+01 0.195E+01 0.508E+01   -.859E-02 -.377E-02 0.823E-03
   -.139E+03 -.758E+02 -.897E+02   0.164E+03 0.925E+02 0.901E+02   -.290E+02 -.192E+02 -.728E+00   0.414E-02 -.424E-02 0.930E-03
   0.109E+03 -.504E+02 0.142E+03   -.135E+03 0.575E+02 -.156E+03   0.296E+02 -.800E+01 0.167E+02   0.977E-03 -.100E-02 0.341E-02
   0.112E+02 0.121E+03 0.307E+03   -.644E+01 -.144E+03 -.326E+03   -.491E+01 0.259E+02 0.229E+02   0.123E-01 -.219E-02 0.421E-02
   0.455E+01 0.173E+03 0.258E+03   -.600E+01 -.203E+03 -.267E+03   0.214E+01 0.331E+02 0.107E+02   0.108E-01 -.645E-02 0.766E-03
   0.144E+03 -.215E+02 0.972E+02   -.170E+03 0.368E+02 -.102E+03   0.301E+02 -.176E+02 0.542E+01   0.179E-02 0.188E-02 0.155E-02
   -.104E+03 -.117E+03 -.210E+03   0.129E+03 0.130E+03 0.223E+03   -.277E+02 -.152E+02 -.145E+02   0.309E-02 -.230E-02 -.196E-03
   0.595E+00 -.257E+02 -.931E+01   -.486E+00 0.268E+02 0.713E+01   -.111E+00 -.138E+01 0.253E+01   -.422E-03 -.218E-02 0.395E-02
   -.126E+02 -.198E+02 -.135E+03   0.127E+02 0.214E+02 0.140E+03   0.163E+00 -.184E+01 -.640E+01   0.168E-02 -.657E-02 0.201E-02
   -.166E+03 -.472E+02 -.672E+02   0.192E+03 0.633E+02 0.675E+02   -.294E+02 -.182E+02 -.445E+00   -.729E-02 0.480E-02 0.168E-02
   0.131E+03 -.108E+03 0.220E+03   -.158E+03 0.122E+03 -.225E+03   0.305E+02 -.148E+02 0.740E+01   -.536E-03 0.117E-01 0.314E-02
   0.126E+01 0.108E+03 -.277E+03   0.272E+01 -.132E+03 0.297E+03   -.458E+01 0.270E+02 -.222E+02   -.162E-02 0.845E-04 -.186E-02
   -.266E+02 0.829E+02 -.312E+03   0.252E+02 -.105E+03 0.334E+03   0.165E+01 0.246E+02 -.255E+02   -.226E-02 -.207E-02 -.304E-02
   0.140E+03 -.933E+02 0.169E+03   -.161E+03 0.113E+03 -.180E+03   0.232E+02 -.221E+02 0.127E+02   0.245E-02 0.571E-02 0.325E-02
   -.123E+03 -.537E+02 -.135E+03   0.151E+03 0.610E+02 0.147E+03   -.309E+02 -.797E+01 -.142E+02   -.749E-02 0.369E-02 0.352E-03
   -.365E+02 0.160E+02 0.316E+02   0.389E+02 -.177E+02 -.332E+02   -.323E+01 0.224E+01 0.230E+01   -.272E-02 0.274E-02 0.346E-02
   0.333E+02 -.892E+02 -.714E+03   -.339E+02 0.985E+02 0.724E+03   0.715E+00 -.107E+02 -.117E+02   0.142E-01 0.861E-02 -.336E-03
   -.500E+02 -.114E+03 0.109E+03   0.543E+02 0.124E+03 -.121E+03   -.738E+01 -.167E+02 0.195E+02   -.178E-03 -.825E-03 -.532E-03
   0.429E+02 0.967E+02 -.638E+02   -.531E+02 -.120E+03 0.906E+02   0.132E+02 0.299E+02 -.348E+02   0.425E-03 0.209E-03 -.177E-02
 -----------------------------------------------------------------------------------------------
   -.469E+01 -.205E+02 0.103E+02   0.256E-12 -.426E-13 -.313E-12   0.468E+01 0.205E+02 -.103E+02   0.101E-01 -.556E-02 0.793E-01


 POSITION                                       TOTAL-FORCE (eV/Angst)
 -----------------------------------------------------------------------------------
     -0.01705      2.82377      7.46218         0.008887     -2.213116      0.874354
      1.39149      5.25267      7.57664         2.318193      0.333429      0.372508
     -1.45337      5.20075      7.47625        -2.345335      0.297022      0.059425
      6.55578      0.75386      8.81700         0.714273     -0.216856     -0.513230
      3.97638      5.25125      7.22382         0.233499      0.223741      0.900495
      1.35193      0.67879      7.84209        -0.687878     -0.088315      0.503530
     -4.09649      9.47060      8.44435        -0.258860     -1.859175     -1.023848
     -2.53597     11.80496      8.74018         1.861789      1.473951     -0.305508
     -5.33845     11.91380      8.68758        -1.860640      1.498816     -0.467028
      2.74266      7.21243      8.75219         1.042228      0.146267     -0.592526
      0.04493     11.70511      8.53103        -0.072547      1.086778      0.730149
     -2.90607      7.20872      8.38912        -0.904833      0.288636     -1.199255
      7.96468      2.83820      8.25289        -0.099511     -1.907970      0.910818
      9.23843      5.02579      7.00763         1.912651      0.926231      0.464805
      6.52117      5.12460      7.61603        -1.864015      1.504710      0.542772
     14.41431      0.49297      8.04761         0.779591     -0.007168      0.425200
     11.79595      4.94885      6.90499        -0.528855      0.425942      0.858581
      9.31098      0.73894      8.92538        -0.812045     -0.368753     -0.458325
      4.06590      9.34854      9.25399         0.511991     -2.065870     -1.095481
      5.38484     11.79116      9.11089         2.064480      1.473693     -1.077939
      2.57557     11.76652      9.08433        -2.010440      1.506750     -0.770345
     10.36692      7.29996      7.36035         0.011597     -1.057065      0.394741
      7.94600     11.81466      9.31240        -0.041517      0.590017     -1.096410
      5.42849      7.25985      8.54625        -0.418249     -0.305379     -0.307615
     -0.01636      4.43618      7.43762        -0.149807     -0.455012      0.303460
      1.32966      2.11032      7.36792        -3.187911     -1.987072      1.643476
      5.29252     -0.04903      9.09853         3.151886     -1.816371     -2.048329
      5.29506      4.58802      6.87944        -0.588784      2.962372      3.011278
      2.59360      4.73469      6.83441        -0.038330      2.424106      3.260799
      6.58546      2.24637      8.60253         3.135237     -2.791393     -0.578240
     -5.29276     13.14093      7.80747        -3.215627     -1.063389      2.763664
      0.01918      0.02438      8.42623        -0.071771      0.081093     -0.172480
     -3.95783     11.04127      8.72408        -0.246125     -0.147874     -0.538642
     -2.97681      8.57391      9.02381        -2.017323     -1.623128     -3.425319
      1.39086      6.47587      8.57515         2.755369     -0.252870     -1.295856
      1.38077     10.96706      8.54391        -0.482608      3.610386      1.551958
     -1.28764     10.98460      8.36693         0.383082      3.645852      1.578351
      2.76186      8.53139      9.48630         2.431167     -1.778874     -3.007440
     -1.57951      6.41740      8.46512        -2.462763     -0.089686     -1.954591
     11.68490      6.39742      7.62503         1.133890      0.589689      0.369098
      7.92685      4.25667      7.51097         0.172218      0.229912      0.627498
      9.32199      2.22567      8.63820        -3.250572     -2.569300     -0.404912
      5.27243     12.96899      8.16986         3.374264     -0.935153      2.565474
     -2.57361      4.63866      6.64716        -0.147752      2.629615      3.268997
     10.50097      4.22135      6.65958         0.704638      3.966651      1.978849
     14.39987      1.93087      7.61038         3.316463     -2.218602      0.921028
     10.51435     -0.07552      9.39476        -2.853598     -1.825182     -2.340973
      7.93663     -0.05800      8.69072        -0.002231     -0.329094      0.353738
      3.97955     10.95102      9.30444         0.260639     -0.270857     -0.757713
      5.40686      8.72613      8.93278        -3.535712     -2.026308     -0.182740
      9.13401      6.57424      6.93691         3.893094     -1.141596      2.065687
     -6.48073     11.36912      9.55202        -0.594750      2.915674     -2.976119
      6.61973     11.27549      9.84909         0.182934      2.304091     -3.506554
     -5.27718      9.02871      7.60052         2.928219     -2.317749      1.882145
      6.65810      6.40482      8.44297        -3.804040     -0.669754     -2.049127
      4.02046      6.58026      8.15810        -0.845012      0.562995      0.701127
     -0.15269      7.84225      9.70793         0.116463     -1.298133     -1.738646
     -0.15269      7.84225     16.52513        -3.039705     -6.873208      7.998849
     -0.51865      7.01479      0.38881         3.040406      6.871859     -7.997663
 -----------------------------------------------------------------------------------
    total drift:                               -0.001866     -0.009001     -0.006495


--------------------------------------------------------------------------------------------------------



  FREE ENERGIE OF THE ION-ELECTRON SYSTEM (eV)
  ---------------------------------------------------
  free  energy   TOTEN  =      -447.57369298 eV

  energy  without entropy=     -447.57369298  energy(sigma->0) =     -447.57369298



--------------------------------------------------------------------------------------------------------


    POTLOK:  cpu time    0.1592: real time    0.1665


--------------------------------------------------------------------------------------------------------


     LOOP+:  cpu time  464.1563: real time  465.9549
    4ORBIT:  cpu time    0.0000: real time    0.0000



 total charge     

# of ion       s       p       d       tot
------------------------------------------
    1        0.801   1.383   0.000   2.184
    2        0.794   1.374   0.000   2.168
    3        0.795   1.378   0.000   2.173
    4        0.815   1.383   0.000   2.198
    5        0.810   1.382   0.000   2.192
    6        0.816   1.390   0.000   2.206
    7        0.801   1.379   0.000   2.181
    8        0.802   1.375   0.000   2.177
    9        0.805   1.377   0.000   2.182
   10        0.811   1.405   0.000   2.216
   11        0.815   1.386   0.000   2.201
   12        0.812   1.412   0.000   2.224
   13        0.803   1.375   0.000   2.178
   14        0.798   1.383   0.000   2.181
   15        0.797   1.383   0.000   2.180
   16        0.816   1.393   0.000   2.209
   17        0.810   1.390   0.000   2.200
   18        0.814   1.381   0.000   2.195
   19        0.802   1.377   0.000   2.179
   20        0.805   1.375   0.000   2.179
   21        0.802   1.370   0.000   2.172
   22        0.815   1.383   0.000   2.198
   23        0.817   1.373   0.000   2.190
   24        0.813   1.395   0.000   2.209
   25        1.180   2.381   0.000   3.561
   26        1.277   2.306   0.000   3.583
   27        1.274   2.306   0.000   3.580
   28        1.280   2.283   0.000   3.563
   29        1.275   2.299   0.000   3.574
   30        1.275   2.302   0.000   3.577
   31        1.280   2.303   0.000   3.583
   32        1.214   2.397   0.000   3.610
   33        1.184   2.393   0.000   3.577
   34        1.267   2.323   0.000   3.590
   35        1.241   2.333   0.000   3.574
   36        1.274   2.303   0.000   3.577
   37        1.272   2.304   0.000   3.577
   38        1.267   2.315   0.000   3.582
   39        1.241   2.338   0.000   3.579
   40        1.210   2.412   0.000   3.621
   41        1.186   2.379   0.000   3.564
   42        1.277   2.293   0.000   3.570
   43        1.277   2.308   0.000   3.585
   44        1.275   2.300   0.000   3.574
   45        1.278   2.288   0.000   3.566
   46        1.275   2.311   0.000   3.586
   47        1.275   2.299   0.000   3.574
   48        1.211   2.399   0.000   3.610
   49        1.189   2.367   0.000   3.556
   50        1.273   2.311   0.000   3.584
   51        1.275   2.301   0.000   3.577
   52        1.281   2.286   0.000   3.567
   53        1.280   2.289   0.000   3.569
   54        1.275   2.295   0.000   3.570
   55        1.280   2.297   0.000   3.578
   56        1.210   2.407   0.000   3.617
   57        1.364   0.545   9.990  11.898
   58        1.022   1.141   0.000   2.163
   59        1.618   3.310   0.000   4.927
--------------------------------------------------
tot         63.499 112.628   9.990 186.116



 magnetization (x)

# of ion       s       p       d       tot
------------------------------------------
    1       -0.000  -0.000   0.000  -0.000
    2        0.000  -0.000   0.000  -0.000
    3       -0.000   0.000   0.000   0.000
    4       -0.000  -0.000   0.000  -0.000
    5        0.000  -0.000   0.000  -0.000
    6       -0.000  -0.000   0.000  -0.000
    7       -0.000  -0.000   0.000  -0.000
    8       -0.000  -0.000   0.000  -0.000
    9       -0.000  -0.000   0.000  -0.000
   10       -0.000   0.000   0.000   0.000
   11        0.000  -0.000   0.000  -0.000
   12        0.000   0.000   0.000   0.000
   13       -0.000  -0.000   0.000  -0.000
   14       -0.000  -0.000   0.000  -0.000
   15       -0.000  -0.000   0.000  -0.001
   16       -0.000  -0.000   0.000  -0.000
   17       -0.000  -0.000   0.000  -0.000
   18       -0.000  -0.000   0.000  -0.000
   19       -0.000  -0.000   0.000  -0.000
   20       -0.000  -0.000   0.000  -0.000
   21       -0.000  -0.000   0.000  -0.000
   22       -0.000  -0.000   0.000  -0.000
   23        0.000   0.000   0.000   0.000
   24       -0.000  -0.000   0.000  -0.000
   25        0.000   0.000   0.000   0.000
   26       -0.000  -0.000   0.000  -0.000
   27       -0.000   0.000   0.000   0.000
   28        0.000   0.000   0.000   0.000
   29        0.000   0.000   0.000   0.000
   30       -0.000   0.000   0.000  -0.000
   31       -0.000   0.000   0.000   0.000
   32       -0.000  -0.000   0.000  -0.000
   33       -0.000  -0.000   0.000  -0.000
   34        0.000   0.000   0.000   0.000
   35       -0.000  -0.000   0.000  -0.000
   36        0.000  -0.000   0.000  -0.000
   37        0.000   0.000   0.000   0.000
   38       -0.000  -0.000   0.000  -0.000
   39       -0.000  -0.000   0.000  -0.000
   40       -0.000  -0.000   0.000  -0.000
   41        0.000   0.000   0.000   0.000
   42       -0.000   0.000   0.000   0.000
   43       -0.000   0.000   0.000   0.000
   44       -0.000   0.000   0.000  -0.000
   45       -0.000   0.000   0.000   0.000
   46       -0.000   0.000   0.000   0.000
   47       -0.000   0.000   0.000   0.000
   48       -0.000  -0.000   0.000  -0.000
   49        0.000   0.000   0.000   0.000
   50       -0.000   0.000   0.000   0.000
   51       -0.000   0.000   0.000   0.000
   52       -0.000  -0.000   0.000  -0.000
   53       -0.000  -0.000   0.000  -0.000
   54       -0.000   0.000   0.000   0.000
   55        0.000   0.000   0.000   0.000
   56       -0.000  -0.000   0.000  -0.000
   57        0.000   0.002   0.000   0.002
   58        0.000   0.000   0.000   0.000
   59       -0.000  -0.000   0.000  -0.000
--------------------------------------------------
tot         -0.000  -0.001   0.000  -0.001

 BZINTS: Fermi energy: -3.716179;280.000000 electrons
         Band energy:***********;  BLOECHL correction:  0.000000

 total amount of memory used by VASP MPI-rank0   123241. kBytes
=======================================================================

   base      :      30000. kBytes
   nonl-proj :      28336. kBytes
   fftplans  :       5346. kBytes
   grid      :      16143. kBytes
   one-center:        155. kBytes
   wavefun   :      43261. kBytes

  
  
 General timing and accounting informations for this job:
 ========================================================
  
                  Total CPU time used (sec):      479.589
                            User time (sec):      478.101
                          System time (sec):        1.487
                         Elapsed time (sec):      481.943
  
                   Maximum memory used (kb):      185152.
                   Average memory used (kb):           0.
  
                          Minor page faults:       103216
                          Major page faults:            0
                 Voluntary context switches:         1988
