  71  71   0   0
  0.4004067E+02  0.1485788E-08  0.1476159E-08  0.1500000E-08  0.3000000E-15
  1.000000000000000E-004
  CAR 
 unknown system                          
      5.68505121    -48.60693670  301     -2.04386302      1.00000000
    -48.607  0.0000E+00  0.0000E+00  0.0000E+00  0.0000E+00
    -48.426  0.0000E+00  0.0000E+00  0.0000E+00  0.0000E+00
    -48.245  0.0000E+00  0.0000E+00  0.0000E+00  0.0000E+00
    -48.064  0.0000E+00  0.0000E+00  0.0000E+00  0.0000E+00
    -47.883  0.0000E+00  0.0000E+00  0.0000E+00  0.0000E+00
    -47.702  0.0000E+00  0.0000E+00  0.0000E+00  0.0000E+00
    -47.521  0.0000E+00  0.0000E+00  0.0000E+00  0.0000E+00
    -47.340  0.0000E+00  0.0000E+00  0.0000E+00  0.0000E+00
    -47.159  0.0000E+00  0.0000E+00  0.0000E+00  0.0000E+00
    -46.978  0.0000E+00  0.0000E+00  0.0000E+00  0.0000E+00
    -46.797  0.0000E+00  0.0000E+00  0.0000E+00  0.0000E+00
    -46.616  0.1039E-12  0.0000E+00  0.1880E-13  0.0000E+00
    -46.435  0.1942E-06  0.0000E+00  0.3515E-07  0.0000E+00
    -46.254  0.7137E-03  0.0000E+00  0.1292E-03  0.0000E+00
    -46.073  0.1073E-01  0.0000E+00  0.2072E-02  0.0000E+00
    -45.892  0.1068E-01  0.0000E+00  0.4004E-02  0.0000E+00
    -45.711  0.1807E-01  0.0000E+00  0.7274E-02  0.0000E+00
    -45.530  0.1248E-02  0.0000E+00  0.7500E-02  0.0000E+00
    -45.349  0.5773E-06  0.0000E+00  0.7500E-02  0.0000E+00
    -45.168  0.5762E-12  0.0000E+00  0.7500E-02  0.0000E+00
    -44.987  0.0000E+00  0.0000E+00  0.7500E-02  0.0000E+00
    -44.806  0.0000E+00  0.0000E+00  0.7500E-02  0.0000E+00
    -44.626  0.0000E+00  0.0000E+00  0.7500E-02  0.0000E+00
    -44.445  0.0000E+00  0.3438E-13  0.7500E-02  0.6221E-14
    -44.264  0.0000E+00  0.9538E-07  0.7500E-02  0.1726E-07
    -44.083  0.0000E+00  0.5100E-03  0.7500E-02  0.9232E-04
    -43.902  0.0000E+00  0.1037E-01  0.7500E-02  0.1969E-02
    -43.721  0.0000E+00  0.1101E-01  0.7500E-02  0.3961E-02
    -43.540  0.0000E+00  0.1611E-01  0.7500E-02  0.6876E-02
    -43.359  0.0000E+00  0.3437E-02  0.7500E-02  0.7499E-02
    -43.178  0.0000E+00  0.8062E-05  0.7500E-02  0.7500E-02
    -42.997  0.0000E+00  0.4415E-10  0.7500E-02  0.7500E-02
    -42.816  0.0000E+00  0.0000E+00  0.7500E-02  0.7500E-02
    -42.635  0.0000E+00  0.0000E+00  0.7500E-02  0.7500E-02
    -42.454  0.0000E+00  0.0000E+00  0.7500E-02  0.7500E-02
    -42.273  0.0000E+00  0.0000E+00  0.7500E-02  0.7500E-02
    -42.092  0.0000E+00  0.0000E+00  0.7500E-02  0.7500E-02
    -41.911  0.0000E+00  0.0000E+00  0.7500E-02  0.7500E-02
    -41.730  0.0000E+00  0.0000E+00  0.7500E-02  0.7500E-02
    -41.549  0.0000E+00  0.0000E+00  0.7500E-02  0.7500E-02
    -41.368  0.0000E+00  0.0000E+00  0.7500E-02  0.7500E-02
    -41.187  0.0000E+00  0.0000E+00  0.7500E-02  0.7500E-02
    -41.006  0.0000E+00  0.0000E+00  0.7500E-02  0.7500E-02
    -40.825  0.0000E+00  0.0000E+00  0.7500E-02  0.7500E-02
    -40.644  0.0000E+00  0.0000E+00  0.7500E-02  0.7500E-02
    -40.463  0.0000E+00  0.0000E+00  0.7500E-02  0.7500E-02
    -40.282  0.0000E+00  0.0000E+00  0.7500E-02  0.7500E-02
    -40.101  0.0000E+00  0.0000E+00  0.7500E-02  0.7500E-02
    -39.920  0.0000E+00  0.0000E+00  0.7500E-02  0.7500E-02
    -39.739  0.0000E+00  0.0000E+00  0.7500E-02  0.7500E-02
    -39.558  0.0000E+00  0.0000E+00  0.7500E-02  0.7500E-02
    -39.377  0.0000E+00  0.0000E+00  0.7500E-02  0.7500E-02
    -39.196  0.0000E+00  0.0000E+00  0.7500E-02  0.7500E-02
    -39.015  0.0000E+00  0.0000E+00  0.7500E-02  0.7500E-02
    -38.834  0.0000E+00  0.0000E+00  0.7500E-02  0.7500E-02
    -38.653  0.0000E+00  0.0000E+00  0.7500E-02  0.7500E-02
    -38.472  0.0000E+00  0.0000E+00  0.7500E-02  0.7500E-02
    -38.291  0.0000E+00  0.0000E+00  0.7500E-02  0.7500E-02
    -38.110  0.0000E+00  0.0000E+00  0.7500E-02  0.7500E-02
    -37.930  0.0000E+00  0.0000E+00  0.7500E-02  0.7500E-02
    -37.749  0.0000E+00  0.0000E+00  0.7500E-02  0.7500E-02
    -37.568  0.0000E+00  0.0000E+00  0.7500E-02  0.7500E-02
    -37.387  0.0000E+00  0.0000E+00  0.7500E-02  0.7500E-02
    -37.206  0.0000E+00  0.0000E+00  0.7500E-02  0.7500E-02
    -37.025  0.0000E+00  0.0000E+00  0.7500E-02  0.7500E-02
    -36.844  0.0000E+00  0.0000E+00  0.7500E-02  0.7500E-02
    -36.663  0.0000E+00  0.0000E+00  0.7500E-02  0.7500E-02
    -36.482  0.0000E+00  0.0000E+00  0.7500E-02  0.7500E-02
    -36.301  0.0000E+00  0.0000E+00  0.7500E-02  0.7500E-02
    -36.120  0.0000E+00  0.0000E+00  0.7500E-02  0.7500E-02
    -35.939  0.0000E+00  0.0000E+00  0.7500E-02  0.7500E-02
    -35.758  0.0000E+00  0.0000E+00  0.7500E-02  0.7500E-02
    -35.577  0.0000E+00  0.0000E+00  0.7500E-02  0.7500E-02
    -35.396  0.0000E+00  0.0000E+00  0.7500E-02  0.7500E-02
    -35.215  0.0000E+00  0.0000E+00  0.7500E-02  0.7500E-02
    -35.034  0.0000E+00  0.0000E+00  0.7500E-02  0.7500E-02
    -34.853  0.0000E+00  0.0000E+00  0.7500E-02  0.7500E-02
    -34.672  0.0000E+00  0.0000E+00  0.7500E-02  0.7500E-02
    -34.491  0.0000E+00  0.0000E+00  0.7500E-02  0.7500E-02
    -34.310  0.0000E+00  0.0000E+00  0.7500E-02  0.7500E-02
    -34.129  0.0000E+00  0.0000E+00  0.7500E-02  0.7500E-02
    -33.948  0.0000E+00  0.0000E+00  0.7500E-02  0.7500E-02
    -33.767  0.0000E+00  0.0000E+00  0.7500E-02  0.7500E-02
    -33.586  0.0000E+00  0.0000E+00  0.7500E-02  0.7500E-02
    -33.405  0.0000E+00  0.0000E+00  0.7500E-02  0.7500E-02
    -33.224  0.0000E+00  0.0000E+00  0.7500E-02  0.7500E-02
    -33.043  0.0000E+00  0.0000E+00  0.7500E-02  0.7500E-02
    -32.862  0.0000E+00  0.0000E+00  0.7500E-02  0.7500E-02
    -32.681  0.0000E+00  0.0000E+00  0.7500E-02  0.7500E-02
    -32.500  0.0000E+00  0.0000E+00  0.7500E-02  0.7500E-02
    -32.319  0.0000E+00  0.0000E+00  0.7500E-02  0.7500E-02
    -32.138  0.0000E+00  0.0000E+00  0.7500E-02  0.7500E-02
    -31.957  0.0000E+00  0.0000E+00  0.7500E-02  0.7500E-02
    -31.776  0.0000E+00  0.0000E+00  0.7500E-02  0.7500E-02
    -31.595  0.0000E+00  0.0000E+00  0.7500E-02  0.7500E-02
    -31.414  0.0000E+00  0.0000E+00  0.7500E-02  0.7500E-02
    -31.234  0.0000E+00  0.0000E+00  0.7500E-02  0.7500E-02
    -31.053  0.0000E+00  0.0000E+00  0.7500E-02  0.7500E-02
    -30.872  0.0000E+00  0.0000E+00  0.7500E-02  0.7500E-02
    -30.691  0.0000E+00  0.0000E+00  0.7500E-02  0.7500E-02
    -30.510  0.0000E+00  0.0000E+00  0.7500E-02  0.7500E-02
    -30.329  0.0000E+00  0.0000E+00  0.7500E-02  0.7500E-02
    -30.148  0.0000E+00  0.0000E+00  0.7500E-02  0.7500E-02
    -29.967  0.0000E+00  0.0000E+00  0.7500E-02  0.7500E-02
    -29.786  0.0000E+00  0.0000E+00  0.7500E-02  0.7500E-02
    -29.605  0.0000E+00  0.0000E+00  0.7500E-02  0.7500E-02
    -29.424  0.0000E+00  0.0000E+00  0.7500E-02  0.7500E-02
    -29.243  0.0000E+00  0.0000E+00  0.7500E-02  0.7500E-02
    -29.062  0.0000E+00  0.0000E+00  0.7500E-02  0.7500E-02
    -28.881  0.0000E+00  0.0000E+00  0.7500E-02  0.7500E-02
    -28.700  0.0000E+00  0.0000E+00  0.7500E-02  0.7500E-02
    -28.519  0.0000E+00  0.0000E+00  0.7500E-02  0.7500E-02
    -28.338  0.0000E+00  0.0000E+00  0.7500E-02  0.7500E-02
    -28.157  0.0000E+00  0.0000E+00  0.7500E-02  0.7500E-02
    -27.976  0.0000E+00  0.0000E+00  0.7500E-02  0.7500E-02
    -27.795  0.0000E+00  0.0000E+00  0.7500E-02  0.7500E-02
    -27.614  0.0000E+00  0.0000E+00  0.7500E-02  0.7500E-02
    -27.433  0.0000E+00  0.0000E+00  0.7500E-02  0.7500E-02
    -27.252  0.0000E+00  0.0000E+00  0.7500E-02  0.7500E-02
    -27.071  0.0000E+00  0.0000E+00  0.7500E-02  0.7500E-02
    -26.890  0.0000E+00  0.0000E+00  0.7500E-02  0.7500E-02
    -26.709  0.0000E+00  0.0000E+00  0.7500E-02  0.7500E-02
    -26.528  0.0000E+00  0.0000E+00  0.7500E-02  0.7500E-02
    -26.347  0.0000E+00  0.0000E+00  0.7500E-02  0.7500E-02
    -26.166  0.0000E+00  0.0000E+00  0.7500E-02  0.7500E-02
    -25.985  0.0000E+00  0.0000E+00  0.7500E-02  0.7500E-02
    -25.804  0.0000E+00  0.0000E+00  0.7500E-02  0.7500E-02
    -25.623  0.0000E+00  0.0000E+00  0.7500E-02  0.7500E-02
    -25.442  0.0000E+00  0.0000E+00  0.7500E-02  0.7500E-02
    -25.261  0.0000E+00  0.0000E+00  0.7500E-02  0.7500E-02
    -25.080  0.0000E+00  0.0000E+00  0.7500E-02  0.7500E-02
    -24.899  0.0000E+00  0.0000E+00  0.7500E-02  0.7500E-02
    -24.718  0.7668E-18  0.7668E-18  0.7500E-02  0.7500E-02
    -24.537  0.4875E-10  0.5794E-10  0.7500E-02  0.7500E-02
    -24.357  0.8544E-05  0.9456E-05  0.7502E-02  0.7502E-02
    -24.176  0.3461E-02  0.3589E-02  0.8128E-02  0.8151E-02
    -23.995  0.9937E-02  0.9834E-02  0.9926E-02  0.9931E-02
    -23.814  0.4072E-03  0.3810E-03  0.1000E-01  0.1000E-01
    -23.633  0.5991E-07  0.5230E-07  0.1000E-01  0.1000E-01
    -23.452  0.1679E-13  0.1364E-13  0.1000E-01  0.1000E-01
    -23.271  0.0000E+00  0.0000E+00  0.1000E-01  0.1000E-01
    -23.090  0.0000E+00  0.0000E+00  0.1000E-01  0.1000E-01
    -22.909  0.0000E+00  0.0000E+00  0.1000E-01  0.1000E-01
    -22.728  0.0000E+00  0.0000E+00  0.1000E-01  0.1000E-01
    -22.547  0.0000E+00  0.0000E+00  0.1000E-01  0.1000E-01
    -22.366  0.0000E+00  0.0000E+00  0.1000E-01  0.1000E-01
    -22.185  0.0000E+00  0.0000E+00  0.1000E-01  0.1000E-01
    -22.004  0.5705E-14  0.6292E-14  0.1000E-01  0.1000E-01
    -21.823  0.2375E-07  0.2539E-07  0.1000E-01  0.1000E-01
    -21.642  0.2087E-03  0.2163E-03  0.1004E-01  0.1004E-01
    -21.461  0.8315E-02  0.8391E-02  0.1154E-01  0.1156E-01
    -21.280  0.1211E-01  0.1214E-01  0.1373E-01  0.1375E-01
    -21.099  0.1613E-01  0.1621E-01  0.1665E-01  0.1669E-01
    -20.918  0.1196E-01  0.1196E-01  0.1882E-01  0.1885E-01
    -20.737  0.9504E-02  0.9470E-02  0.2054E-01  0.2057E-01
    -20.556  0.1576E-01  0.1600E-01  0.2339E-01  0.2346E-01
    -20.375  0.1742E-01  0.1722E-01  0.2654E-01  0.2658E-01
    -20.194  0.8418E-02  0.8562E-02  0.2807E-01  0.2813E-01
    -20.013  0.1108E-01  0.1105E-01  0.3007E-01  0.3013E-01
    -19.832  0.1471E-01  0.1485E-01  0.3273E-01  0.3282E-01
    -19.651  0.2081E-01  0.2070E-01  0.3650E-01  0.3656E-01
    -19.470  0.9535E-02  0.9456E-02  0.3823E-01  0.3827E-01
    -19.289  0.9494E-02  0.9667E-02  0.3994E-01  0.4002E-01
    -19.108  0.1666E-01  0.1693E-01  0.4296E-01  0.4309E-01
    -18.927  0.1439E-01  0.1411E-01  0.4556E-01  0.4564E-01
    -18.746  0.1278E-01  0.1290E-01  0.4788E-01  0.4798E-01
    -18.565  0.1943E-01  0.1916E-01  0.5139E-01  0.5144E-01
    -18.384  0.7294E-02  0.7291E-02  0.5271E-01  0.5276E-01
    -18.203  0.1741E-01  0.1829E-01  0.5586E-01  0.5607E-01
    -18.022  0.1839E-01  0.1773E-01  0.5919E-01  0.5928E-01
    -17.841  0.1012E-01  0.9792E-02  0.6102E-01  0.6105E-01
    -17.661  0.5968E-02  0.6216E-02  0.6210E-01  0.6218E-01
    -17.480  0.2298E-01  0.2317E-01  0.6626E-01  0.6637E-01
    -17.299  0.1909E-01  0.1897E-01  0.6971E-01  0.6980E-01
    -17.118  0.1457E-01  0.1469E-01  0.7235E-01  0.7246E-01
    -16.937  0.1446E-01  0.1447E-01  0.7497E-01  0.7508E-01
    -16.756  0.1912E-01  0.1911E-01  0.7843E-01  0.7854E-01
    -16.575  0.9175E-02  0.8802E-02  0.8009E-01  0.8013E-01
    -16.394  0.1118E-01  0.1222E-01  0.8211E-01  0.8234E-01
    -16.213  0.1850E-01  0.1761E-01  0.8546E-01  0.8553E-01
    -16.032  0.1692E-01  0.1722E-01  0.8852E-01  0.8865E-01
    -15.851  0.1266E-01  0.1257E-01  0.9081E-01  0.9092E-01
    -15.670  0.9485E-02  0.9793E-02  0.9253E-01  0.9269E-01
    -15.489  0.9408E-02  0.9100E-02  0.9423E-01  0.9434E-01
    -15.308  0.5826E-02  0.5528E-02  0.9528E-01  0.9534E-01
    -15.127  0.1521E-01  0.1563E-01  0.9804E-01  0.9817E-01
    -14.946  0.1855E-01  0.1855E-01  0.1014E+00  0.1015E+00
    -14.765  0.1718E-01  0.1716E-01  0.1045E+00  0.1046E+00
    -14.584  0.1490E-01  0.1460E-01  0.1072E+00  0.1073E+00
    -14.403  0.1357E-01  0.1355E-01  0.1097E+00  0.1097E+00
    -14.222  0.1684E-01  0.1712E-01  0.1127E+00  0.1128E+00
    -14.041  0.1418E-01  0.1406E-01  0.1153E+00  0.1154E+00
    -13.860  0.1558E-01  0.1590E-01  0.1181E+00  0.1182E+00
    -13.679  0.1740E-01  0.1707E-01  0.1212E+00  0.1213E+00
    -13.498  0.1534E-01  0.1525E-01  0.1240E+00  0.1241E+00
    -13.317  0.1397E-01  0.1453E-01  0.1265E+00  0.1267E+00
    -13.136  0.1094E-01  0.1044E-01  0.1285E+00  0.1286E+00
    -12.955  0.8107E-02  0.7900E-02  0.1300E+00  0.1300E+00
    -12.774  0.1413E-01  0.1477E-01  0.1325E+00  0.1327E+00
    -12.593  0.2600E-01  0.2565E-01  0.1373E+00  0.1374E+00
    -12.412  0.1365E-01  0.1365E-01  0.1397E+00  0.1398E+00
    -12.231  0.9176E-02  0.9035E-02  0.1414E+00  0.1415E+00
    -12.050  0.1351E-01  0.1342E-01  0.1438E+00  0.1439E+00
    -11.869  0.1481E-01  0.1504E-01  0.1465E+00  0.1466E+00
    -11.688  0.2438E-01  0.2440E-01  0.1509E+00  0.1510E+00
    -11.507  0.2296E-01  0.2327E-01  0.1551E+00  0.1552E+00
    -11.326  0.1124E-01  0.1063E-01  0.1571E+00  0.1572E+00
    -11.145  0.1138E-01  0.1157E-01  0.1592E+00  0.1593E+00
    -10.964  0.1855E-01  0.1850E-01  0.1625E+00  0.1626E+00
    -10.784  0.1633E-01  0.1650E-01  0.1655E+00  0.1656E+00
    -10.603  0.1377E-01  0.1338E-01  0.1680E+00  0.1680E+00
    -10.422  0.2673E-01  0.2750E-01  0.1728E+00  0.1730E+00
    -10.241  0.3327E-01  0.3251E-01  0.1788E+00  0.1789E+00
    -10.060  0.1546E-01  0.1601E-01  0.1816E+00  0.1818E+00
     -9.879  0.2317E-01  0.2284E-01  0.1858E+00  0.1859E+00
     -9.698  0.2124E-01  0.2124E-01  0.1897E+00  0.1897E+00
     -9.517  0.2613E-01  0.2599E-01  0.1944E+00  0.1945E+00
     -9.336  0.3309E-01  0.3321E-01  0.2004E+00  0.2005E+00
     -9.155  0.3094E-01  0.3096E-01  0.2060E+00  0.2061E+00
     -8.974  0.3320E-01  0.3309E-01  0.2120E+00  0.2121E+00
     -8.793  0.3225E-01  0.3229E-01  0.2178E+00  0.2179E+00
     -8.612  0.4219E-01  0.4283E-01  0.2255E+00  0.2256E+00
     -8.431  0.5517E-01  0.5482E-01  0.2354E+00  0.2356E+00
     -8.250  0.4344E-01  0.4301E-01  0.2433E+00  0.2434E+00
     -8.069  0.2076E-01  0.2146E-01  0.2471E+00  0.2472E+00
     -7.888  0.3414E-01  0.3356E-01  0.2532E+00  0.2533E+00
     -7.707  0.2296E-01  0.2277E-01  0.2574E+00  0.2574E+00
     -7.526  0.3656E-01  0.3664E-01  0.2640E+00  0.2641E+00
     -7.345  0.3542E-01  0.3566E-01  0.2704E+00  0.2705E+00
     -7.164  0.2840E-01  0.2797E-01  0.2756E+00  0.2756E+00
     -6.983  0.3425E-01  0.3407E-01  0.2818E+00  0.2817E+00
     -6.802  0.2793E-01  0.2821E-01  0.2868E+00  0.2868E+00
     -6.621  0.1971E-01  0.1946E-01  0.2904E+00  0.2904E+00
     -6.440  0.1824E-01  0.1747E-01  0.2937E+00  0.2935E+00
     -6.259  0.2961E-01  0.2913E-01  0.2990E+00  0.2988E+00
     -6.078  0.3445E-01  0.3483E-01  0.3053E+00  0.3051E+00
     -5.897  0.2714E-01  0.2818E-01  0.3102E+00  0.3102E+00
     -5.716  0.2720E-01  0.2525E-01  0.3151E+00  0.3148E+00
     -5.535  0.1824E-01  0.1909E-01  0.3184E+00  0.3182E+00
     -5.354  0.1397E-01  0.1324E-01  0.3209E+00  0.3206E+00
     -5.173  0.1874E-01  0.1741E-01  0.3243E+00  0.3238E+00
     -4.992  0.2954E-01  0.2553E-01  0.3297E+00  0.3284E+00
     -4.811  0.3181E-01  0.2755E-01  0.3354E+00  0.3334E+00
     -4.630  0.3304E-01  0.3845E-01  0.3414E+00  0.3403E+00
     -4.449  0.1594E-01  0.2106E-01  0.3443E+00  0.3442E+00
     -4.268  0.4067E-02  0.3866E-02  0.3450E+00  0.3449E+00
     -4.088  0.1016E-01  0.7795E-02  0.3469E+00  0.3463E+00
     -3.907  0.2981E-01  0.1751E-01  0.3523E+00  0.3494E+00
     -3.726  0.1608E-01  0.1601E-01  0.3552E+00  0.3523E+00
     -3.545  0.6816E-02  0.1409E-01  0.3564E+00  0.3549E+00
     -3.364  0.1483E-01  0.1838E-01  0.3591E+00  0.3582E+00
     -3.183  0.1841E-01  0.8721E-02  0.3624E+00  0.3598E+00
     -3.002  0.7215E-02  0.7627E-02  0.3637E+00  0.3612E+00
     -2.821  0.7031E-02  0.3060E-02  0.3650E+00  0.3617E+00
     -2.640  0.7482E-02  0.8514E-03  0.3664E+00  0.3619E+00
     -2.459  0.2862E-02  0.2028E-03  0.3669E+00  0.3619E+00
     -2.278  0.2900E-02  0.2825E-02  0.3674E+00  0.3624E+00
     -2.097  0.4855E-02  0.5608E-02  0.3683E+00  0.3634E+00
     -1.916  0.2617E-02  0.9769E-02  0.3688E+00  0.3652E+00
     -1.735  0.4821E-02  0.2309E-02  0.3696E+00  0.3656E+00
     -1.554  0.1722E-01  0.1096E-02  0.3727E+00  0.3658E+00
     -1.373  0.1619E-01  0.1065E-01  0.3757E+00  0.3677E+00
     -1.192  0.1020E-01  0.2081E-02  0.3775E+00  0.3681E+00
     -1.011  0.3994E-02  0.4124E-02  0.3782E+00  0.3689E+00
     -0.830  0.1418E-01  0.2613E-01  0.3808E+00  0.3736E+00
     -0.649  0.1938E-01  0.2786E-01  0.3843E+00  0.3786E+00
     -0.468  0.1369E-01  0.2696E-01  0.3868E+00  0.3835E+00
     -0.287  0.2163E-01  0.2647E-01  0.3907E+00  0.3883E+00
     -0.106  0.9795E-02  0.1689E-01  0.3925E+00  0.3914E+00
      0.075  0.8307E-02  0.7860E-02  0.3940E+00  0.3928E+00
      0.256  0.2483E-01  0.2298E-01  0.3985E+00  0.3970E+00
      0.437  0.1659E-01  0.2313E-01  0.4015E+00  0.4011E+00
      0.618  0.1416E-01  0.1707E-01  0.4040E+00  0.4042E+00
      0.799  0.1216E-01  0.5965E-02  0.4062E+00  0.4053E+00
      0.980  0.1977E-01  0.1396E-01  0.4098E+00  0.4078E+00
      1.161  0.1304E-01  0.2144E-01  0.4122E+00  0.4117E+00
      1.342  0.1674E-01  0.1348E-01  0.4152E+00  0.4142E+00
      1.523  0.1709E-01  0.1774E-01  0.4183E+00  0.4174E+00
      1.704  0.2435E-01  0.2453E-01  0.4227E+00  0.4218E+00
      1.885  0.2998E-01  0.2857E-01  0.4281E+00  0.4270E+00
      2.066  0.3087E-01  0.3049E-01  0.4337E+00  0.4325E+00
      2.247  0.2656E-01  0.2381E-01  0.4385E+00  0.4368E+00
      2.428  0.2275E-01  0.2143E-01  0.4426E+00  0.4407E+00
      2.609  0.3420E-01  0.3871E-01  0.4488E+00  0.4477E+00
      2.789  0.3288E-01  0.3368E-01  0.4548E+00  0.4538E+00
      2.970  0.1708E-01  0.1804E-01  0.4579E+00  0.4570E+00
      3.151  0.9313E-02  0.9419E-02  0.4596E+00  0.4587E+00
      3.332  0.2441E-02  0.6640E-02  0.4600E+00  0.4599E+00
      3.513  0.1466E-04  0.2845E-03  0.4600E+00  0.4600E+00
      3.694  0.3313E-09  0.6213E-07  0.4600E+00  0.4600E+00
      3.875  0.1380E-16  0.2953E-13  0.4600E+00  0.4600E+00
      4.056  0.0000E+00  0.0000E+00  0.4600E+00  0.4600E+00
      4.237  0.0000E+00  0.0000E+00  0.4600E+00  0.4600E+00
      4.418  0.0000E+00  0.0000E+00  0.4600E+00  0.4600E+00
      4.599  0.0000E+00  0.0000E+00  0.4600E+00  0.4600E+00
      4.780  0.0000E+00  0.0000E+00  0.4600E+00  0.4600E+00
      4.961  0.0000E+00  0.0000E+00  0.4600E+00  0.4600E+00
      5.142  0.0000E+00  0.0000E+00  0.4600E+00  0.4600E+00
      5.323  0.0000E+00  0.0000E+00  0.4600E+00  0.4600E+00
      5.504  0.0000E+00  0.0000E+00  0.4600E+00  0.4600E+00
      5.685  0.0000E+00  0.0000E+00  0.4600E+00  0.4600E+00
