 running on   48 total cores
 distrk:  each k-point on   48 cores,    1 groups
 distr:  one band on   12 cores,    4 groups
 using from now: INCAR     
 vasp.5.4.4.18Apr17-6-g9f103f2a35 (build Jan 14 2022 15:04:31) complex          
  
 POSCAR found type information on POSCAR  C  N  C  Cr
 POSCAR found :  4 types and      71 ions
 scaLAPACK will be used
 LDA part: xc-table for Pade appr. of Perdew
 POSCAR found type information on POSCAR  C  N  C  Cr
 POSCAR found :  4 types and      71 ions
 POSCAR, INCAR and KPOINTS ok, starting setup
 FFT: planning ...
 WAVECAR not read
 entering main loop
       N       E                     dE             d eps       ncg     rms          rms(c)
DAV:   1     0.245168802437E+04    0.24517E+04   -0.10791E+05  3376   0.107E+03
DAV:   2    -0.233649770845E+03   -0.26853E+04   -0.25662E+04  4232   0.279E+02
DAV:   3    -0.687439738405E+03   -0.45379E+03   -0.45102E+03  3552   0.121E+02
DAV:   4    -0.703989847052E+03   -0.16550E+02   -0.16406E+02  3568   0.284E+01
DAV:   5    -0.704531663457E+03   -0.54182E+00   -0.53986E+00  4016   0.434E+00    0.469E+01
RMM:   6    -0.730579040812E+03   -0.26047E+02   -0.51944E+02  4090   0.390E+01    0.836E+01
RMM:   7    -0.662993598581E+03    0.67585E+02   -0.64581E+01  3058   0.137E+01    0.325E+01
RMM:   8    -0.662559556514E+03    0.43404E+00   -0.23435E+01  3087   0.716E+00    0.285E+01
RMM:   9    -0.647339555823E+03    0.15220E+02   -0.20233E+01  2972   0.844E+00    0.119E+01
RMM:  10    -0.647746945075E+03   -0.40739E+00   -0.34230E+00  3003   0.319E+00    0.147E+01
RMM:  11    -0.646680912615E+03    0.10660E+01   -0.42128E-01  3126   0.107E+00    0.776E+00
RMM:  12    -0.646579040871E+03    0.10187E+00   -0.16292E-01  2944   0.947E-01    0.684E+00
RMM:  13    -0.646682684980E+03   -0.10364E+00   -0.32474E-02  2983   0.380E-01    0.732E+00
RMM:  14    -0.646428993109E+03    0.25369E+00   -0.38896E-02  2968   0.454E-01    0.695E+00
RMM:  15    -0.646483286953E+03   -0.54294E-01   -0.38656E-03  3052   0.132E-01    0.663E+00
RMM:  16    -0.646683992276E+03   -0.20071E+00   -0.49316E-02  2966   0.346E-01    0.758E+00
RMM:  17    -0.646824607573E+03   -0.14062E+00   -0.23216E-01  2967   0.677E-01    0.589E+00
RMM:  18    -0.646835233180E+03   -0.10626E-01   -0.24272E-01  2973   0.696E-01    0.447E+00
RMM:  19    -0.646885099713E+03   -0.49867E-01   -0.62236E-02  3115   0.315E-01    0.396E+00
RMM:  20    -0.646937067054E+03   -0.51967E-01   -0.40697E-02  2948   0.338E-01    0.288E+00
RMM:  21    -0.646992692342E+03   -0.55625E-01   -0.36436E-02  2976   0.352E-01    0.214E+00
RMM:  22    -0.647070009059E+03   -0.77317E-01   -0.83081E-02  2950   0.398E-01    0.206E+00
RMM:  23    -0.647095644861E+03   -0.25636E-01   -0.54933E-02  2955   0.376E-01    0.128E+00
RMM:  24    -0.647024944392E+03    0.70700E-01   -0.67580E-02  2966   0.355E-01    0.102E+00
RMM:  25    -0.647016180111E+03    0.87643E-02   -0.10546E-02  3038   0.140E-01    0.103E+00
RMM:  26    -0.647069070146E+03   -0.52890E-01   -0.19264E-02  3012   0.190E-01    0.700E-01
RMM:  27    -0.647082752812E+03   -0.13683E-01   -0.42132E-02  2979   0.261E-01    0.543E-01
RMM:  28    -0.647081182385E+03    0.15704E-02   -0.59127E-03  3021   0.103E-01    0.551E-01
RMM:  29    -0.647095807841E+03   -0.14625E-01   -0.32053E-03  3053   0.734E-02    0.351E-01
RMM:  30    -0.647102520119E+03   -0.67123E-02   -0.26458E-03  2937   0.847E-02    0.193E-01
RMM:  31    -0.647108767490E+03   -0.62474E-02   -0.71945E-04  2559   0.336E-02    0.127E-01
RMM:  32    -0.647110904106E+03   -0.21366E-02   -0.19801E-04  2297   0.182E-02    0.946E-02
RMM:  33    -0.647112769972E+03   -0.18659E-02   -0.33118E-04  2338   0.248E-02    0.557E-02
RMM:  34    -0.647113131014E+03   -0.36104E-03   -0.66954E-05  2102   0.145E-02    0.472E-02
RMM:  35    -0.647113539028E+03   -0.40801E-03   -0.44794E-05  2105   0.981E-03    0.480E-02
RMM:  36    -0.647113809331E+03   -0.27030E-03   -0.21842E-05  1828   0.693E-03    0.336E-02
RMM:  37    -0.647114061358E+03   -0.25203E-03   -0.24854E-05  1960   0.657E-03    0.194E-02
RMM:  38    -0.647114147844E+03   -0.86486E-04   -0.98490E-06  1429   0.408E-03    0.136E-02
RMM:  39    -0.647114163172E+03   -0.15327E-04   -0.31416E-06  1302   0.272E-03    0.110E-02
RMM:  40    -0.647114176666E+03   -0.13494E-04   -0.19812E-06  1305   0.239E-03    0.925E-03
RMM:  41    -0.647114183121E+03   -0.64552E-05   -0.11488E-06   938   0.190E-03
   1 F= -.65351404E+03 E0= -.65350003E+03  d E =-.653514E+03  mag=     1.8474
 curvature:   0.00 expect dE= 0.000E+00 dE for cont linesearch  0.000E+00
 trial: gam= 0.00000 g(F)=  0.517E-03 g(S)=  0.000E+00 ort = 0.000E+00 (trialstep = 0.100E+01)
 search vector abs. value=  0.517E-03
 reached required accuracy - stopping structural energy minimisation
