       N       E                     dE             d eps       ncg     rms          rms(c)
DAV:   1     0.279387914458E+04    0.27939E+04   -0.11165E+05  3960   0.121E+03
DAV:   2    -0.204231655327E+02   -0.28143E+04   -0.27179E+04  4648   0.322E+02
DAV:   3    -0.507828731697E+03   -0.48741E+03   -0.48390E+03  4092   0.152E+02
DAV:   4    -0.525617377547E+03   -0.17789E+02   -0.17336E+02  4192   0.408E+01
DAV:   5    -0.526343623396E+03   -0.72625E+00   -0.71886E+00  4760   0.646E+00    0.487E+01
DAV:   6    -0.490022774172E+03    0.36321E+02   -0.53844E+01  4376   0.325E+01    0.316E+01
DAV:   7    -0.478881254082E+03    0.11142E+02   -0.65995E+01  4072   0.225E+01    0.186E+01
DAV:   8    -0.476793322952E+03    0.20879E+01   -0.16304E+01  4072   0.134E+01    0.131E+01
DAV:   9    -0.477001428464E+03   -0.20811E+00   -0.13732E+01  5280   0.150E+01    0.679E+00
DAV:  10    -0.476330805698E+03    0.67062E+00   -0.72368E+00  5032   0.106E+01    0.342E+00
DAV:  11    -0.476247329799E+03    0.83476E-01   -0.18233E+00  4792   0.453E+00    0.190E+00
DAV:  12    -0.476200715471E+03    0.46614E-01   -0.83772E-01  4528   0.256E+00    0.125E+00
DAV:  13    -0.476170639662E+03    0.30076E-01   -0.28691E-01  4080   0.152E+00    0.505E-01
DAV:  14    -0.476171339060E+03   -0.69940E-03   -0.48920E-02  3960   0.667E-01    0.303E-01
DAV:  15    -0.476170722384E+03    0.61668E-03   -0.64666E-03  4744   0.288E-01    0.208E-01
DAV:  16    -0.476170699243E+03    0.23141E-04   -0.15358E-03  4368   0.124E-01    0.117E-01
DAV:  17    -0.476170710019E+03   -0.10776E-04   -0.23398E-04  2512   0.634E-02
   1 F= -.48031875E+03 E0= -.48031875E+03  d E =0.000000E+00  mag=    -0.0000
