 vasp.5.4.4.18Apr17-6-g9f103f2a35 (build Nov  8 2022 18:58:45) complex           
 executed on             LinuxGNU date 2023.04.13  15:54:36
 running on   48 total cores
 distrk:  each k-point on   48 cores,    1 groups
 distr:  one band on NCORES_PER_BAND=  12 cores,    4 groups


--------------------------------------------------------------------------------------------------------


 INCAR:
 POTCAR:    PAW_PBE C 08Apr2002                   
 POTCAR:    PAW_PBE N 08Apr2002                   
 POTCAR:    PAW_PBE Ge_d 03Jul2007                
 POTCAR:    PAW_PBE C 08Apr2002                   
 POTCAR:    PAW_PBE O 08Apr2002                   
 POTCAR:    PAW_PBE C 08Apr2002                   
   SHA256 =  253f7b50bb8d59471dbedb8285d89021f4a42ed1a2c5d38a03a736e69125dd95 C/
   COPYR  = (c) Copyright 08Apr2002 Georg Kresse                                
   COPYR  = This file is part of the software VASP. Any use, copying, and all ot
   COPYR  = If you do not have a valid VASP license, you may not use, copy or di
   VRHFIN =C: s2p2                                                              
   LEXCH  = PE                                                                  
   EATOM  =   147.1560 eV,   10.8157 Ry                                         
                                                                                
   TITEL  = PAW_PBE C 08Apr2002                                                 
   LULTRA =        F    use ultrasoft PP ?                                      
   IUNSCR =        1    unscreen: 0-lin 1-nonlin 2-no                           
   RPACOR =    1.200    partial core radius                                     
   POMASS =   12.011; ZVAL   =    4.000    mass and valenz                      
   RCORE  =    1.500    outmost cutoff radius                                   
   RWIGS  =    1.630; RWIGS  =    0.863    wigner-seitz radius (au A)           
   ENMAX  =  400.000; ENMIN  =  300.000 eV                                      
   ICORE  =        2    local potential                                         
   LCOR   =        T    correct aug charges                                     
   LPAW   =        T    paw PP                                                  
   EAUG   =  644.873                                                            
   DEXC   =    0.000                                                            
   RMAX   =    1.529    core radius for proj-oper                               
   RAUG   =    1.300    factor for augmentation sphere                          
   RDEP   =    1.501    radius for radial grids                                 
   RDEPT  =    1.300    core radius for aug-charge                              
                                                                                
   Atomic configuration                                                         
    4 entries                                                                   
     n  l   j            E        occ.                                          
     1  0  0.50      -273.3789   2.0000                                         
     2  0  0.50       -13.7508   2.0000                                         
     2  1  0.50        -5.2854   2.0000                                         
     3  2  1.50        -5.4423   0.0000                                         
   Description                                                                  
     l       E           TYP  RCUT    TYP  RCUT                                 
     0    -13.7508458     23  1.200                                             
     0     -8.2022199     23  1.200                                             
     1     -5.2854383     23  1.500                                             
     1     34.0145650     23  1.500                                             
     2     -5.4423304      7  1.500                                             
  local pseudopotential read in
  partial core-charges read in
  partial kinetic energy density read in
  atomic valenz-charges read in
  non local Contribution for L=           0  read in
    real space projection operators read in
  non local Contribution for L=           0  read in
    real space projection operators read in
  non local Contribution for L=           1  read in
    real space projection operators read in
  non local Contribution for L=           1  read in
    real space projection operators read in
    PAW grid and wavefunctions read in

   number of l-projection  operators is LMAX  =           4
   number of lm-projection operators is LMMAX =           8

 POTCAR:    PAW_PBE N 08Apr2002                   
   SHA256 =  e053789ff3a61a86a1b75d8a110fcc91f86041011e7b0817c7c99e4e8a6349d7 N/
   COPYR  = (c) Copyright 08Apr2002 Georg Kresse                                
   COPYR  = This file is part of the software VASP. Any use, copying, and all ot
   COPYR  = If you do not have a valid VASP license, you may not use, copy or di
   VRHFIN =N: s2p3                                                              
   LEXCH  = PE                                                                  
   EATOM  =   264.5486 eV,   19.4438 Ry                                         
                                                                                
   TITEL  = PAW_PBE N 08Apr2002                                                 
   LULTRA =        F    use ultrasoft PP ?                                      
   IUNSCR =        1    unscreen: 0-lin 1-nonlin 2-no                           
   RPACOR =    1.200    partial core radius                                     
   POMASS =   14.001; ZVAL   =    5.000    mass and valenz                      
   RCORE  =    1.500    outmost cutoff radius                                   
   RWIGS  =    1.400; RWIGS  =    0.741    wigner-seitz radius (au A)           
   ENMAX  =  400.000; ENMIN  =  300.000 eV                                      
   ICORE  =        2    local potential                                         
   LCOR   =        T    correct aug charges                                     
   LPAW   =        T    paw PP                                                  
   EAUG   =  627.112                                                            
   DEXC   =    0.000                                                            
   RMAX   =    1.529    core radius for proj-oper                               
   RAUG   =    1.300    factor for augmentation sphere                          
   RDEP   =    1.514    radius for radial grids                                 
   RDEPT  =    1.338    core radius for aug-charge                              
                                                                                
   Atomic configuration                                                         
    4 entries                                                                   
     n  l   j            E        occ.                                          
     1  0  0.50      -384.7179   2.0000                                         
     2  0  0.50       -18.5828   2.0000                                         
     2  1  0.50        -7.0898   3.0000                                         
     3  2  1.50        -6.8029   0.0000                                         
   Description                                                                  
     l       E           TYP  RCUT    TYP  RCUT                                 
     0    -18.5828119     23  1.200                                             
     0    -13.5018863     23  1.200                                             
     1     -7.0897853     23  1.500                                             
     1      9.5240782     23  1.500                                             
     2     -6.8029130      7  1.500                                             
  local pseudopotential read in
  partial core-charges read in
  partial kinetic energy density read in
  atomic valenz-charges read in
  non local Contribution for L=           0  read in
    real space projection operators read in
  non local Contribution for L=           0  read in
    real space projection operators read in
  non local Contribution for L=           1  read in
    real space projection operators read in
  non local Contribution for L=           1  read in
    real space projection operators read in
    PAW grid and wavefunctions read in

   number of l-projection  operators is LMAX  =           4
   number of lm-projection operators is LMMAX =           8

 POTCAR:    PAW_PBE Ge_d 03Jul2007                
   SHA256 =  944b26c40d2d7c4f4eb1ff3a2e8dbfdd7129146276cd341854bfd5c0e57780ed Ge
   COPYR  = (c) Copyright 03Jul2007 Georg Kresse                                
   COPYR  = This file is part of the software VASP. Any use, copying, and all ot
   COPYR  = If you do not have a valid VASP license, you may not use, copy or di
   VRHFIN =Ge: 3d4s4p                                                           
   LEXCH  = PE                                                                  
   EATOM  =  2596.2402 eV,  190.8183 Ry                                         
                                                                                
   TITEL  = PAW_PBE Ge_d 03Jul2007                                              
   LULTRA =        F    use ultrasoft PP ?                                      
   IUNSCR =        1    unscreen: 0-lin 1-nonlin 2-no                           
   RPACOR =    2.000    partial core radius                                     
   POMASS =   72.610; ZVAL   =   14.000    mass and valenz                      
   RCORE  =    2.300    outmost cutoff radius                                   
   RWIGS  =    2.300; RWIGS  =    1.217    wigner-seitz radius (au A)           
   ENMAX  =  310.294; ENMIN  =  232.720 eV                                      
   ICORE  =        3    local potential                                         
   LCOR   =        T    correct aug charges                                     
   LPAW   =        T    paw PP                                                  
   EAUG   =  531.356                                                            
   DEXC   =    0.000                                                            
   RMAX   =    2.342    core radius for proj-oper                               
   RAUG   =    1.300    factor for augmentation sphere                          
   RDEP   =    2.318    radius for radial grids                                 
   RDEPT  =    1.783    core radius for aug-charge                              
                                                                                
   Atomic configuration                                                         
    9 entries                                                                   
     n  l   j            E        occ.                                          
     1  0  0.50    -10959.8463   2.0000                                         
     2  0  0.50     -1371.6056   2.0000                                         
     2  1  1.50     -1198.4791   6.0000                                         
     3  0  0.50      -168.4733   2.0000                                         
     3  1  1.50      -115.6019   6.0000                                         
     3  2  2.50       -29.3106  10.0000                                         
     4  0  0.50       -11.7309   2.0000                                         
     4  1  0.50        -3.8952   2.0000                                         
     4  3  2.50        -4.0817   0.0000                                         
   Description                                                                  
     l       E           TYP  RCUT    TYP  RCUT                                 
     2    -29.3105938     23  2.200                                             
     2    -13.6058260     23  2.200                                             
     0    -11.7309493     23  2.300                                             
     0     -7.4578696     23  2.300                                             
     1     -3.8952261     23  2.300                                             
     1      6.1178114     23  2.300                                             
     3     -1.3605826     23  2.300                                             
  local pseudopotential read in
  partial core-charges read in
  partial kinetic energy density read in
  atomic valenz-charges read in
  non local Contribution for L=           2  read in
    real space projection operators read in
  non local Contribution for L=           2  read in
    real space projection operators read in
  non local Contribution for L=           0  read in
    real space projection operators read in
  non local Contribution for L=           0  read in
    real space projection operators read in
  non local Contribution for L=           1  read in
    real space projection operators read in
  non local Contribution for L=           1  read in
    real space projection operators read in
    PAW grid and wavefunctions read in

   number of l-projection  operators is LMAX  =           6
   number of lm-projection operators is LMMAX =          18

 POTCAR:    PAW_PBE C 08Apr2002                   
   SHA256 =  253f7b50bb8d59471dbedb8285d89021f4a42ed1a2c5d38a03a736e69125dd95 C/
   COPYR  = (c) Copyright 08Apr2002 Georg Kresse                                
   COPYR  = This file is part of the software VASP. Any use, copying, and all ot
   COPYR  = If you do not have a valid VASP license, you may not use, copy or di
   VRHFIN =C: s2p2                                                              
   LEXCH  = PE                                                                  
   EATOM  =   147.1560 eV,   10.8157 Ry                                         
                                                                                
   TITEL  = PAW_PBE C 08Apr2002                                                 
   LULTRA =        F    use ultrasoft PP ?                                      
   IUNSCR =        1    unscreen: 0-lin 1-nonlin 2-no                           
   RPACOR =    1.200    partial core radius                                     
   POMASS =   12.011; ZVAL   =    4.000    mass and valenz                      
   RCORE  =    1.500    outmost cutoff radius                                   
   RWIGS  =    1.630; RWIGS  =    0.863    wigner-seitz radius (au A)           
   ENMAX  =  400.000; ENMIN  =  300.000 eV                                      
   ICORE  =        2    local potential                                         
   LCOR   =        T    correct aug charges                                     
   LPAW   =        T    paw PP                                                  
   EAUG   =  644.873                                                            
   DEXC   =    0.000                                                            
   RMAX   =    1.529    core radius for proj-oper                               
   RAUG   =    1.300    factor for augmentation sphere                          
   RDEP   =    1.501    radius for radial grids                                 
   RDEPT  =    1.300    core radius for aug-charge                              
                                                                                
   Atomic configuration                                                         
    4 entries                                                                   
     n  l   j            E        occ.                                          
     1  0  0.50      -273.3789   2.0000                                         
     2  0  0.50       -13.7508   2.0000                                         
     2  1  0.50        -5.2854   2.0000                                         
     3  2  1.50        -5.4423   0.0000                                         
   Description                                                                  
     l       E           TYP  RCUT    TYP  RCUT                                 
     0    -13.7508458     23  1.200                                             
     0     -8.2022199     23  1.200                                             
     1     -5.2854383     23  1.500                                             
     1     34.0145650     23  1.500                                             
     2     -5.4423304      7  1.500                                             
  local pseudopotential read in
  partial core-charges read in
  partial kinetic energy density read in
  atomic valenz-charges read in
  non local Contribution for L=           0  read in
    real space projection operators read in
  non local Contribution for L=           0  read in
    real space projection operators read in
  non local Contribution for L=           1  read in
    real space projection operators read in
  non local Contribution for L=           1  read in
    real space projection operators read in
    PAW grid and wavefunctions read in

   number of l-projection  operators is LMAX  =           4
   number of lm-projection operators is LMMAX =           8

 POTCAR:    PAW_PBE O 08Apr2002                   
   SHA256 =  818f92134a0a090dccd8ba1447fa70422a3b330e708bb4f08108d8ae51209ddf O/
   COPYR  = (c) Copyright 08Apr2002 Georg Kresse                                
   COPYR  = This file is part of the software VASP. Any use, copying, and all ot
   COPYR  = If you do not have a valid VASP license, you may not use, copy or di
   VRHFIN =O: s2p4                                                              
   LEXCH  = PE                                                                  
   EATOM  =   432.3788 eV,   31.7789 Ry                                         
                                                                                
   TITEL  = PAW_PBE O 08Apr2002                                                 
   LULTRA =        F    use ultrasoft PP ?                                      
   IUNSCR =        1    unscreen: 0-lin 1-nonlin 2-no                           
   RPACOR =    1.200    partial core radius                                     
   POMASS =   16.000; ZVAL   =    6.000    mass and valenz                      
   RCORE  =    1.520    outmost cutoff radius                                   
   RWIGS  =    1.550; RWIGS  =    0.820    wigner-seitz radius (au A)           
   ENMAX  =  400.000; ENMIN  =  300.000 eV                                      
   ICORE  =        2    local potential                                         
   LCOR   =        T    correct aug charges                                     
   LPAW   =        T    paw PP                                                  
   EAUG   =  605.392                                                            
   DEXC   =    0.000                                                            
   RMAX   =    1.553    core radius for proj-oper                               
   RAUG   =    1.300    factor for augmentation sphere                          
   RDEP   =    1.550    radius for radial grids                                 
   RDEPT  =    1.329    core radius for aug-charge                              
                                                                                
   Atomic configuration                                                         
    4 entries                                                                   
     n  l   j            E        occ.                                          
     1  0  0.50      -514.6923   2.0000                                         
     2  0  0.50       -23.9615   2.0000                                         
     2  1  0.50        -9.0305   4.0000                                         
     3  2  1.50        -9.5241   0.0000                                         
   Description                                                                  
     l       E           TYP  RCUT    TYP  RCUT                                 
     0    -23.9615318     23  1.200                                             
     0     -9.5240782     23  1.200                                             
     1     -9.0304911     23  1.520                                             
     1      8.1634956     23  1.520                                             
     2     -9.5240782      7  1.500                                             
  local pseudopotential read in
  partial core-charges read in
  partial kinetic energy density read in
  kinetic energy density of atom read in
  atomic valenz-charges read in
  non local Contribution for L=           0  read in
    real space projection operators read in
  non local Contribution for L=           0  read in
    real space projection operators read in
  non local Contribution for L=           1  read in
    real space projection operators read in
  non local Contribution for L=           1  read in
    real space projection operators read in
    PAW grid and wavefunctions read in

   number of l-projection  operators is LMAX  =           4
   number of lm-projection operators is LMMAX =           8


 ----------------------------------------------------------------------------- 
|                                                                             |
|  ADVICE TO THIS USER RUNNING 'VASP/VAMP'   (HEAR YOUR MASTER'S VOICE ...):  |
|                                                                             |
|      You have a (more or less) 'large supercell' and for larger cells       |
|      it might be more efficient to use real space projection opertators     |
|      So try LREAL= Auto  in the INCAR   file.                               |
|      Mind:          For very  accurate calculation you might also keep the  |
|      reciprocal projection scheme          (i.e. LREAL=.FALSE.)             |
|                                                                             |
 ----------------------------------------------------------------------------- 

  PAW_PBE C 08Apr2002                   :
 energy of atom  1       EATOM= -147.1560
 kinetic energy error for atom=    0.0132 (will be added to EATOM!!)
  PAW_PBE N 08Apr2002                   :
 energy of atom  2       EATOM= -264.5486
 kinetic energy error for atom=    0.0298 (will be added to EATOM!!)
  PAW_PBE Ge_d 03Jul2007                :
 energy of atom  3       EATOM=-2596.2402
 kinetic energy error for atom=    0.0090 (will be added to EATOM!!)
  PAW_PBE C 08Apr2002                   :
 energy of atom  4       EATOM= -147.1560
 kinetic energy error for atom=    0.0132 (will be added to EATOM!!)
  PAW_PBE O 08Apr2002                   :
 energy of atom  5       EATOM= -432.3788
 kinetic energy error for atom=    0.0458 (will be added to EATOM!!)


 POSCAR: POSCAR-c3n4                             
  positions in cartesian coordinates
  No initial velocities read in
 exchange correlation table for  LEXCH =        8
   RHO(1)=    0.500       N(1)  =     2000
   RHO(2)=  100.500       N(2)  =     4000



--------------------------------------------------------------------------------------------------------


 ion  position               nearest neighbor table
   1  0.106  0.214  0.436-  26 1.26  46 1.26  25 1.33
   2  0.288  0.399  0.443-  29 1.24  35 1.30  25 1.35
   3  0.104  0.392  0.437-  44 1.24  39 1.30  25 1.34
   4  0.447  0.064  0.516-  30 1.24  27 1.26  48 1.32
   5  0.453  0.401  0.422-  28 1.25  29 1.26  56 1.34
   6  0.112  0.053  0.459-  26 1.24  31 1.25  32 1.32
   7  0.096  0.712  0.494-  54 1.25  34 1.28  33 1.32
   8  0.284  0.890  0.511-  27 1.26  37 1.27  33 1.33
   9  0.109  0.895  0.508-  31 1.25  52 1.26  33 1.35
  10  0.448  0.548  0.512-  38 1.24  56 1.27  35 1.28
  11  0.445  0.885  0.499-  37 1.26  36 1.26  48 1.30
  12  0.087  0.542  0.491-  34 1.24  40 1.27  39 1.28
  13  0.616  0.223  0.483-  42 1.27  30 1.27  41 1.32
  14  0.780  0.390  0.410-  45 1.27  51 1.28  41 1.32
  15  0.610  0.394  0.445-  28 1.26  55 1.26  41 1.36
  16  0.940  0.052  0.471-  46 1.24  43 1.25  32 1.31
  17  0.941  0.387  0.404-  45 1.24  44 1.26  40 1.34
  18  0.623  0.066  0.522-  42 1.25  47 1.26  48 1.32
  19  0.613  0.711  0.541-  50 1.25  38 1.28  49 1.32
  20  0.790  0.897  0.533-  43 1.25  53 1.26  49 1.36
  21  0.609  0.892  0.531-  47 1.26  36 1.27  49 1.35
  22  0.938  0.563  0.430-  51 1.23  54 1.27  40 1.34
  23  0.954  0.902  0.545-  52 1.26  53 1.26  32 1.31
  24  0.621  0.555  0.500-  55 1.24  50 1.25  56 1.33
  25  0.167  0.335  0.435-   1 1.33   3 1.34   2 1.35
  26  0.165  0.161  0.431-   6 1.24   1 1.26
  27  0.336  0.002  0.532-   8 1.26   4 1.26
  28  0.512  0.352  0.402-   5 1.25  15 1.26
  29  0.345  0.361  0.400-   2 1.24   5 1.26
  30  0.506  0.177  0.503-   4 1.24  13 1.27
  31  0.159  0.988  0.457-   9 1.25   6 1.25
  32  0.002  0.002  0.493-  16 1.31  23 1.31   6 1.32
  33  0.165  0.831  0.510-   7 1.32   8 1.33   9 1.35
  34  0.134  0.645  0.528-  12 1.24   7 1.28
  35  0.334  0.491  0.501-  10 1.28   2 1.30  57 1.94
  36  0.503  0.831  0.500-  11 1.26  21 1.27
  37  0.333  0.829  0.489-  11 1.26   8 1.27
  38  0.499  0.648  0.555-  10 1.24  19 1.28
  39  0.142  0.484  0.495-  12 1.28   3 1.30  57 1.95
  40  0.988  0.496  0.446-  12 1.27  22 1.34  17 1.34
  41  0.667  0.330  0.439-  13 1.32  14 1.32  15 1.36
  42  0.680  0.178  0.505-  18 1.25  13 1.27
  43  0.827  0.986  0.478-  20 1.25  16 1.25
  44  0.011  0.348  0.389-   3 1.24  17 1.26
  45  0.830  0.330  0.389-  17 1.24  14 1.27
  46  0.993  0.161  0.445-  16 1.24   1 1.26
  47  0.669  0.005  0.549-  21 1.26  18 1.26
  48  0.505  0.004  0.508-  11 1.30  18 1.32   4 1.32
  49  0.668  0.832  0.544-  19 1.32  21 1.35  20 1.36
  50  0.675  0.666  0.522-  19 1.25  24 1.25
  51  0.832  0.507  0.406-  22 1.23  14 1.28
  52  0.016  0.853  0.559-  23 1.26   9 1.26
  53  0.849  0.860  0.576-  20 1.26  23 1.26
  54  0.004  0.677  0.444-   7 1.25  22 1.27
  55  0.668  0.491  0.494-  24 1.24  15 1.26
  56  0.506  0.502  0.477-  10 1.27  24 1.33   5 1.34
  57  0.287  0.593  0.568-  35 1.94  39 1.95
  58  0.287  0.593  0.966-  59 1.09
  59  0.232  0.530  0.023-  58 1.09


IMPORTANT INFORMATION: All symmetrisations will be switched off!
NOSYMM: (Re-)initialisation of all symmetry stuff for point group C_1.



 KPOINTS: K-Points                                

Automatic generation of k-mesh.
Space group operators:
 irot       det(A)        alpha          n_x          n_y          n_z        tau_x        tau_y        tau_z
    1     1.000000     0.000000     1.000000     0.000000     0.000000     0.000000     0.000000     0.000000
 
 Subroutine IBZKPT returns following result:
 ===========================================
 
 Found      5 irreducible k-points:
 
 Following reciprocal coordinates:
            Coordinates               Weight
  0.000000  0.000000  0.000000      1.000000
  0.333333  0.000000  0.000000      2.000000
  0.000000  0.333333  0.000000      2.000000
  0.333333  0.333333  0.000000      2.000000
 -0.333333  0.333333  0.000000      2.000000
 
 Following cartesian coordinates:
            Coordinates               Weight
  0.000000  0.000000  0.000000      1.000000
  0.024277  0.014368  0.000000      2.000000
  0.000396  0.028736  0.000000      2.000000
  0.024673  0.043104  0.000000      2.000000
 -0.023881  0.014368  0.000000      2.000000
 
 TETIRR: Found     24 inequivalent tetrahedra from       54


--------------------------------------------------------------------------------------------------------




 Dimension of arrays:
   k-points           NKPTS =      5   k-points in BZ     NKDIM =      5   number of bands    NBANDS=    172
   number of dos      NEDOS =   4000   number of ions     NIONS =     59
   non local maximal  LDIM  =      6   non local SUM 2l+1 LMDIM =     18
   total plane-waves  NPLWV = 352800
   max r-space proj   IRMAX =      1   max aug-charges    IRDMAX=   6129
   dimension x,y,z NGX =    70 NGY =   70 NGZ =   72
   dimension x,y,z NGXF=   140 NGYF=  140 NGZF=  144
   support grid    NGXF=   140 NGYF=  140 NGZF=  144
   ions per type =              24  32   1   1   1
   NGX,Y,Z   is equivalent  to a cutoff of   8.94,  9.11,  8.49 a.u.
   NGXF,Y,Z  is equivalent  to a cutoff of  17.88, 18.22, 16.98 a.u.

 SYSTEM =  unknown system                          
 POSCAR =  POSCAR-c3n4                             

 Startparameter for this run:
   NWRITE =      2    write-flag & timer
   PREC   = normal    normal or accurate (medium, high low for compatibility)
   ISTART =      0    job   : 0-new  1-cont  2-samecut
   ICHARG =      2    charge: 1-file 2-atom 10-const
   ISPIN  =      2    spin polarized calculation?
   LNONCOLLINEAR =      F non collinear calculations
   LSORBIT =      F    spin-orbit coupling
   INIWAV =      1    electr: 0-lowe 1-rand  2-diag
   LASPH  =      F    aspherical Exc in radial PAW
   METAGGA=      F    non-selfconsistent MetaGGA calc.

 Electronic Relaxation 1
   ENCUT  =  440.0 eV  32.34 Ry    5.69 a.u.  22.26 21.85 24.12*2*pi/ulx,y,z
   ENINI  =  440.0     initial cutoff
   ENAUG  =  644.9 eV  augmentation charge cutoff
   NELM   =    100;   NELMIN=  2; NELMDL= -5     # of ELM steps 
   EDIFF  = 0.1E-03   stopping-criterion for ELM
   LREAL  =      F    real-space projection
   NLSPLINE    = F    spline interpolate recip. space projectors
   LCOMPAT=      F    compatible to vasp.4.4
   GGA_COMPAT  = T    GGA compatible to vasp.4.4-vasp.4.6
   LMAXPAW     = -100 max onsite density
   LMAXMIX     =    2 max onsite mixed and CHGCAR
   VOSKOWN=      0    Vosko Wilk Nusair interpolation
   ROPT   =    0.00000   0.00000   0.00000   0.00000
   ROPT   =    0.00000
 Ionic relaxation
   EDIFFG = -.1E-01   stopping-criterion for IOM
   NSW    =      0    number of steps for IOM
   NBLOCK =      1;   KBLOCK =      1    inner block; outer block 
   IBRION =     -1    ionic relax: 0-MD 1-quasi-New 2-CG
   NFREE  =      0    steps in history (QN), initial steepest desc. (CG)
   ISIF   =      2    stress and relaxation
   IWAVPR =     10    prediction:  0-non 1-charg 2-wave 3-comb
   ISYM   =      0    0-nonsym 1-usesym 2-fastsym
   LCORR  =      T    Harris-Foulkes like correction to forces

   POTIM  = 0.5000    time-step for ionic-motion
   TEIN   =    0.0    initial temperature
   TEBEG  =    0.0;   TEEND  =   0.0 temperature during run
   SMASS  =  -3.00    Nose mass-parameter (am)
   estimated Nose-frequenzy (Omega)   =  0.10E-29 period in steps =****** mass=  -0.387E-26a.u.
   SCALEE = 1.0000    scale energy and forces
   NPACO  =    256;   APACO  = 16.0  distance and # of slots for P.C.
   PSTRESS=    0.0 pullay stress

  Mass of Ions in am
   POMASS =  12.01 14.00 72.61 12.01 16.00
  Ionic Valenz
   ZVAL   =   4.00  5.00 14.00  4.00  6.00
  Atomic Wigner-Seitz radii
   RWIGS  =  -1.00 -1.00 -1.00 -1.00 -1.00
  virtual crystal weights 
   VCA    =   1.00  1.00  1.00  1.00  1.00
   NELECT =     280.0000    total number of electrons
   NUPDOWN=      -1.0000    fix difference up-down

 DOS related values:
   EMIN   = -14.00;   EMAX   =  6.00  energy-range for DOS
   EFERMI =   0.00
   ISMEAR =    -5;   SIGMA  =   0.20  broadening in eV -4-tet -1-fermi 0-gaus

 Electronic relaxation 2 (details)
   IALGO  =     38    algorithm
   LDIAG  =      T    sub-space diagonalisation (order eigenvalues)
   LSUBROT=      F    optimize rotation matrix (better conditioning)
   TURBO    =      0    0=normal 1=particle mesh
   IRESTART =      0    0=no restart 2=restart with 2 vectors
   NREBOOT  =      0    no. of reboots
   NMIN     =      0    reboot dimension
   EREF     =   0.00    reference energy to select bands
   IMIX   =      4    mixing-type and parameters
     AMIX     =   0.25;   BMIX     =  0.00
     AMIX_MAG =   1.00;   BMIX_MAG =  0.00
     AMIN     =   0.10
     WC   =   100.;   INIMIX=   1;  MIXPRE=   1;  MAXMIX= -45

 Intra band minimization:
   WEIMIN = 0.0000     energy-eigenvalue tresh-hold
   EBREAK =  0.15E-06  absolut break condition
   DEPER  =   0.30     relativ break condition  

   TIME   =   0.40     timestep for ELM

  volume/ion in A,a.u.               =      33.91       228.83
  Fermi-wavevector in a.u.,A,eV,Ry     =   0.849971  1.606213  9.829547  0.722451
  Thomas-Fermi vector in A             =   1.965876

 Write flags
   LWAVE        =      F    write WAVECAR
   LDOWNSAMPLE  =      F    k-point downsampling of WAVECAR
   LCHARG       =      F    write CHGCAR
   LVTOT        =      F    write LOCPOT, total local potential
   LVHAR        =      F    write LOCPOT, Hartree potential only
   LELF         =      F    write electronic localiz. function (ELF)
   LORBIT       =     11    0 simple, 1 ext, 2 COOP (PROOUT), +10 PAW based schemes


 Dipole corrections
   LMONO  =      F    monopole corrections only (constant potential shift)
   LDIPOL =      F    correct potential (dipole corrections)
   IDIPOL =      0    1-x, 2-y, 3-z, 4-all directions 
   EPSILON=  1.0000000 bulk dielectric constant

 Exchange correlation treatment:
   GGA     =    --    GGA type
   LEXCH   =     8    internal setting for exchange type
   VOSKOWN=      0    Vosko Wilk Nusair interpolation
   LHFCALC =     F    Hartree Fock is set to
   LHFONE  =     F    Hartree Fock one center treatment
   AEXX    =    0.0000 exact exchange contribution

 Linear response parameters
   LEPSILON=     F    determine dielectric tensor
   LRPA    =     F    only Hartree local field effects (RPA)
   LNABLA  =     F    use nabla operator in PAW spheres
   LVEL    =     F    velocity operator in full k-point grid
   LINTERFAST=   F  fast interpolation
   KINTER  =     0    interpolate to denser k-point grid
   CSHIFT  =0.1000    complex shift for real part using Kramers Kronig
   OMEGAMAX=  -1.0    maximum frequency
   DEG_THRESHOLD= 0.2000000E-02 threshold for treating states as degnerate
   RTIME   =   -0.100 relaxation time in fs
  (WPLASMAI=    0.000 imaginary part of plasma frequency in eV, 0.658/RTIME)
   DFIELD  = 0.0000000 0.0000000 0.0000000 field for delta impulse in time

 Orbital magnetization related:
   ORBITALMAG=     F  switch on orbital magnetization
   LCHIMAG   =     F  perturbation theory with respect to B field
   DQ        =  0.001000  dq finite difference perturbation B field
   LLRAUG    =     F  two centre corrections for induced B field



--------------------------------------------------------------------------------------------------------


 Static calculation
 charge density and potential will be updated during run
 spin polarized calculation
 Variant of blocked Davidson
 Davidson routine will perform the subspace rotation
 perform sub-space diagonalisation
    after iterative eigenvector-optimisation
 modified Broyden-mixing scheme, WC =      100.0
 initial mixing is a Kerker type mixing with AMIX =  0.2500 and BMIX =      0.0001
 Hartree-type preconditioning will be used
 using additional bands           32
 reciprocal scheme for non local part
 use partial core corrections
 calculate Harris-corrections to forces   (improved forces if not selfconsistent)
 use gradient corrections 
 use of overlap-Matrix (Vanderbilt PP)
 Fermi weights with tetrahedron method with Bloechl corrections


--------------------------------------------------------------------------------------------------------


  energy-cutoff  :      440.00
  volume of cell :     2000.64
      direct lattice vectors                 reciprocal lattice vectors
    13.012818781 -0.179296046  0.000000000     0.077479116  0.045855441 -0.000000000
    -6.506409390 10.993479534  0.000000000     0.001263631  0.091710882 -0.000000000
     0.000000000  0.000000000 14.100000000    -0.000000000 -0.000000000  0.070921986

  length of vectors
    13.014053930 12.774582397 14.100000000     0.090031855  0.091719587  0.070921986



 k-points in units of 2pi/SCALE and weight: K-Points                                
   0.00000000  0.00000000  0.00000000       0.111
   0.02427679  0.01436804  0.00000000       0.222
   0.00039594  0.02873608  0.00000000       0.222
   0.02467273  0.04310411  0.00000000       0.222
  -0.02388085  0.01436804  0.00000000       0.222

 k-points in reciprocal lattice and weights: K-Points                                
   0.00000000  0.00000000  0.00000000       0.111
   0.33333333  0.00000000  0.00000000       0.222
   0.00000000  0.33333333  0.00000000       0.222
   0.33333333  0.33333333  0.00000000       0.222
  -0.33333333  0.33333333  0.00000000       0.222

 position of ions in fractional coordinates (direct lattice) 
   0.10567936  0.21351909  0.43638452
   0.28750403  0.39866334  0.44307848
   0.10379301  0.39177313  0.43720774
   0.44732828  0.06383887  0.51561413
   0.45258916  0.40124889  0.42244582
   0.11203481  0.05273921  0.45860169
   0.09638015  0.71191070  0.49382164
   0.28433946  0.89006364  0.51112159
   0.10941441  0.89537413  0.50804572
   0.44792521  0.54827090  0.51182417
   0.44544784  0.88520183  0.49889037
   0.08690842  0.54210436  0.49059155
   0.61614813  0.22292684  0.48262487
   0.78023735  0.38968276  0.40980308
   0.61037743  0.39432339  0.44538198
   0.93951642  0.05229783  0.47062057
   0.94071854  0.38652888  0.40380040
   0.62278394  0.06558106  0.52195204
   0.61322902  0.71118454  0.54116914
   0.78984871  0.89727295  0.53280047
   0.60944297  0.89248269  0.53124739
   0.93832005  0.56283419  0.43042990
   0.95436023  0.90171878  0.54458488
   0.62130548  0.55465507  0.49978063
   0.16668926  0.33545237  0.43494871
   0.16473950  0.16097029  0.43087242
   0.33626584  0.00180669  0.53207802
   0.51175722  0.35246859  0.40230650
   0.34471728  0.36074551  0.39967324
   0.50565751  0.17673507  0.50307206
   0.15873210  0.98821904  0.45657691
   0.00214731  0.00186372  0.49276218
   0.16462634  0.83083069  0.51017993
   0.13400723  0.64526801  0.52770834
   0.33371346  0.49116238  0.50147098
   0.50288345  0.83078126  0.49964378
   0.33307237  0.82932770  0.48929409
   0.49902190  0.64803204  0.55475412
   0.14173676  0.48364631  0.49503647
   0.98839512  0.49595573  0.44590834
   0.66736443  0.33015381  0.43923807
   0.67970142  0.17802103  0.50515807
   0.82720183  0.98622484  0.47776955
   0.01097216  0.34809993  0.38872280
   0.83047981  0.33016544  0.38944898
   0.99296173  0.16101876  0.44505124
   0.66886761  0.00524437  0.54940128
   0.50484899  0.00388347  0.50822952
   0.66830364  0.83227641  0.54411956
   0.67536455  0.66551462  0.52238502
   0.83211404  0.50666912  0.40566699
   0.01584380  0.85299492  0.55859758
   0.84924332  0.85956436  0.57597004
   0.00424175  0.67726383  0.44447513
   0.66753141  0.49127771  0.49374111
   0.50565566  0.50179634  0.47708161
   0.28676550  0.59288202  0.56771515
   0.28676550  0.59288202  0.96638181
   0.23209909  0.52992702  0.02273763

 position of ions in cartesian coordinates  (Angst):
  -0.01405620  2.32836981  6.15302168
   1.14737090  4.33114892  6.24740653
  -1.19839681  4.28834022  6.16462907
   5.40564004  0.62160709  7.27015924
   3.27877110  4.32997405  5.95648613
   1.11474580  0.55970006  6.46628377
  -3.37780506  7.80909515  6.96288507
  -2.09106059  9.73391545  7.20681438
  -4.40188083  9.82365962  7.16344469
   2.26149470  5.94709371  7.21672083
   0.03704655  9.65158118  7.03435421
  -2.39622945  5.94403090  6.91734087
   6.56737067  2.34026874  6.80501069
   7.61765163  4.14407601  5.77822348
   5.37710142  4.22554790  6.27988588
  11.88548588  0.40648351  6.63574999
   9.72648478  4.08063025  5.69358559
   7.67747733  0.60930129  7.35952379
   3.35258039  7.70844317  7.63048490
   4.44013295  9.72253510  7.51248662
   2.12371314  9.70221943  7.49058815
   8.54815909  6.01926911  6.06906166
   6.55196513  9.74191396  7.67864678
   4.47612270  5.98619158  7.04690689
  -0.01349331  3.65790206  6.13277685
   1.09638670  1.74008641  6.07530117
   4.36401133 -0.04042935  7.50230010
   4.36609908  3.78310015  5.67252164
   2.13858549  3.90404195  5.63539265
   5.43011877  1.85227104  7.09331608
  -4.36420566 10.83550577  6.43773439
   0.01581645  0.02010376  6.94794670
  -3.26347179  9.10420330  7.19353697
  -2.45456604  7.06971367  7.44068761
   1.14684932  5.33975003  7.07074087
   1.13852824  9.04301171  7.04497729
  -1.06173516  9.05747852  6.89904663
   2.27731981  7.03465432  7.82203304
  -1.30240613  5.29154292  6.98001418
   9.63491559  5.27506386  6.28730761
   6.53617654  3.50988338  6.19325673
   7.68655375  1.83520276  7.12272884
   4.34744500 10.69372856  6.73655068
  -2.12210193  3.82486214  5.48099154
   8.65869172  3.48076526  5.49123055
  11.87357702  1.59212232  6.27522248
   8.66973107 -0.06227149  7.74655806
   6.54424100 -0.04782458  7.16603629
   3.28138318  9.02978946  7.67208577
   4.45828589  7.19523118  7.36562882
   7.53155243  5.42086187  5.71990462
  -5.34376171  9.37454149  7.87622583
   5.45837179  9.29733728  8.12117762
  -4.35135867  7.44472556  6.26709940
   5.49001130  5.28116572  6.96174967
   3.31511302  5.42582578  6.72685072
  -0.12590569  6.46642048  8.00478358
  -0.12590569  6.46642048 13.62598358
  -0.42765879  5.78412741  0.32060053



--------------------------------------------------------------------------------------------------------


 k-point  1 :   0.0000 0.0000 0.0000  plane waves:   41921
 k-point  2 :   0.3333 0.0000 0.0000  plane waves:   41903
 k-point  3 :   0.0000 0.3333 0.0000  plane waves:   41888
 k-point  4 :   0.3333 0.3333 0.0000  plane waves:   41918
 k-point  5 :  -0.3333 0.3333 0.0000  plane waves:   41954

 maximum and minimum number of plane-waves per node :      3513     3455

 maximum number of plane-waves:     41954
 maximum index in each direction: 
   IXMAX=   22   IYMAX=   21   IZMAX=   24
   IXMIN=  -22   IYMIN=  -22   IZMIN=  -24


 parallel 3D FFT for wavefunctions:
    minimum data exchange during FFTs selected (reduces bandwidth)
 parallel 3D FFT for charge:
    minimum data exchange during FFTs selected (reduces bandwidth)


 total amount of memory used by VASP MPI-rank0    82289. kBytes
=======================================================================

   base      :      30000. kBytes
   nonl-proj :      15904. kBytes
   fftplans  :       2997. kBytes
   grid      :       8796. kBytes
   one-center:        155. kBytes
   wavefun   :      24437. kBytes

     INWAV:  cpu time    0.0001: real time    0.0001
 Broyden mixing: mesh for mixing (old mesh)
   NGX = 45   NGY = 43   NGZ = 49
  (NGX  =140   NGY  =140   NGZ  =144)
  gives a total of  94815 points

 initial charge density was supplied:
 charge density of overlapping atoms calculated
 number of electron     280.0000000 magnetization       2.0000000
 keeping initial charge density in first step


--------------------------------------------------------------------------------------------------------


 Maximum index for augmentation-charges          210 (set IRDMAX)


--------------------------------------------------------------------------------------------------------


 First call to EWALD:  gamma=   0.141
 Maximum number of real-space cells 3x 3x 3
 Maximum number of reciprocal cells 3x 3x 3

    FEWALD:  cpu time    0.0027: real time    0.0027


--------------------------------------- Iteration      1(   1)  ---------------------------------------


    POTLOK:  cpu time    0.1024: real time    0.1171
    SETDIJ:  cpu time    0.0089: real time    0.0090
     EDDAV:  cpu time    9.7256: real time    9.7413
 BZINTS: Fermi energy: 10.279054;280.000000 electrons
         Band energy:***********;  BLOECHL correction: -0.018620
       DOS:  cpu time    0.2318: real time    0.2318
    --------------------------------------------
      LOOP:  cpu time   10.0687: real time   10.0992

 eigenvalue-minimisations  :  3960
 total energy-change (2. order) : 0.2793879E+04  (-0.1116461E+05)
 number of electron     280.0000000 magnetization       2.0000000
 augmentation part      280.0000000 magnetization       2.0000000

 Free energy of the ion-electron system (eV)
  ---------------------------------------------------
  alpha Z        PSCENC =       186.25018696
  Ewald energy   TEWEN  =     27389.40590339
  -Hartree energ DENC   =    -39065.47809371
  -exchange      EXHF   =         0.00000000
  -V(xc)+E(xc)   XCENC  =      1092.96966397
  PAW double counting   =     11453.83848114   -11942.90478952
  entropy T*S    EENTRO =         0.00000000
  eigenvalues    EBANDS =     -1491.93835984
  atomic energy  EATOM  =     15171.73615219
  Solvation  Ediel_sol  =         0.00000000
  ---------------------------------------------------
  free energy    TOTEN  =      2793.87914458 eV

  energy without entropy =     2793.87914458  energy(sigma->0) =     2793.87914458


--------------------------------------------------------------------------------------------------------




--------------------------------------- Iteration      1(   2)  ---------------------------------------


     EDDAV:  cpu time   10.9682: real time   10.9835
 BZINTS: Fermi energy:  0.008815;280.000000 electrons
         Band energy:***********;  BLOECHL correction:  0.000000
       DOS:  cpu time    0.0153: real time    0.0153
    --------------------------------------------
      LOOP:  cpu time   10.9835: real time   10.9988

 eigenvalue-minimisations  :  4648
 total energy-change (2. order) :-0.2814302E+04  (-0.2717903E+04)
 number of electron     280.0000000 magnetization       2.0000000
 augmentation part      280.0000000 magnetization       2.0000000

 Free energy of the ion-electron system (eV)
  ---------------------------------------------------
  alpha Z        PSCENC =       186.25018696
  Ewald energy   TEWEN  =     27389.40590339
  -Hartree energ DENC   =    -39065.47809371
  -exchange      EXHF   =         0.00000000
  -V(xc)+E(xc)   XCENC  =      1092.96966397
  PAW double counting   =     11453.83848114   -11942.90478952
  entropy T*S    EENTRO =         0.00000000
  eigenvalues    EBANDS =     -4306.24066995
  atomic energy  EATOM  =     15171.73615219
  Solvation  Ediel_sol  =         0.00000000
  ---------------------------------------------------
  free energy    TOTEN  =       -20.42316553 eV

  energy without entropy =      -20.42316553  energy(sigma->0) =      -20.42316553


--------------------------------------------------------------------------------------------------------




--------------------------------------- Iteration      1(   3)  ---------------------------------------


     EDDAV:  cpu time    9.9415: real time    9.9683
 BZINTS: Fermi energy: -3.411103;280.000000 electrons
         Band energy:***********;  BLOECHL correction:  0.000000
       DOS:  cpu time    0.0155: real time    0.0155
    --------------------------------------------
      LOOP:  cpu time    9.9570: real time    9.9838

 eigenvalue-minimisations  :  4092
 total energy-change (2. order) :-0.4874056E+03  (-0.4839049E+03)
 number of electron     280.0000000 magnetization       2.0000000
 augmentation part      280.0000000 magnetization       2.0000000

 Free energy of the ion-electron system (eV)
  ---------------------------------------------------
  alpha Z        PSCENC =       186.25018696
  Ewald energy   TEWEN  =     27389.40590339
  -Hartree energ DENC   =    -39065.47809371
  -exchange      EXHF   =         0.00000000
  -V(xc)+E(xc)   XCENC  =      1092.96966397
  PAW double counting   =     11453.83848114   -11942.90478952
  entropy T*S    EENTRO =         0.00000000
  eigenvalues    EBANDS =     -4793.64623612
  atomic energy  EATOM  =     15171.73615219
  Solvation  Ediel_sol  =         0.00000000
  ---------------------------------------------------
  free energy    TOTEN  =      -507.82873170 eV

  energy without entropy =     -507.82873170  energy(sigma->0) =     -507.82873170


--------------------------------------------------------------------------------------------------------




--------------------------------------- Iteration      1(   4)  ---------------------------------------


     EDDAV:  cpu time   10.1371: real time   10.1663
 BZINTS: Fermi energy: -3.831833;280.000000 electrons
         Band energy:***********;  BLOECHL correction:  0.000000
       DOS:  cpu time    0.0164: real time    0.0164
    --------------------------------------------
      LOOP:  cpu time   10.1535: real time   10.1827

 eigenvalue-minimisations  :  4192
 total energy-change (2. order) :-0.1778865E+02  (-0.1733603E+02)
 number of electron     280.0000000 magnetization       2.0000000
 augmentation part      280.0000000 magnetization       2.0000000

 Free energy of the ion-electron system (eV)
  ---------------------------------------------------
  alpha Z        PSCENC =       186.25018696
  Ewald energy   TEWEN  =     27389.40590339
  -Hartree energ DENC   =    -39065.47809371
  -exchange      EXHF   =         0.00000000
  -V(xc)+E(xc)   XCENC  =      1092.96966397
  PAW double counting   =     11453.83848114   -11942.90478952
  entropy T*S    EENTRO =         0.00000000
  eigenvalues    EBANDS =     -4811.43488197
  atomic energy  EATOM  =     15171.73615219
  Solvation  Ediel_sol  =         0.00000000
  ---------------------------------------------------
  free energy    TOTEN  =      -525.61737755 eV

  energy without entropy =     -525.61737755  energy(sigma->0) =     -525.61737755


--------------------------------------------------------------------------------------------------------




--------------------------------------- Iteration      1(   5)  ---------------------------------------


     EDDAV:  cpu time   11.1829: real time   11.2037
 BZINTS: Fermi energy: -3.871218;280.000000 electrons
         Band energy:***********;  BLOECHL correction:  0.000000
       DOS:  cpu time    0.0162: real time    0.0162
    CHARGE:  cpu time    0.1848: real time    0.1849
    MIXING:  cpu time    0.0025: real time    0.0025
    --------------------------------------------
      LOOP:  cpu time   11.3865: real time   11.4074

 eigenvalue-minimisations  :  4760
 total energy-change (2. order) :-0.7262458E+00  (-0.7188599E+00)
 number of electron     280.0000063 magnetization       0.0000001
 augmentation part       21.7334511 magnetization       0.0256998

 Broyden mixing:
  rms(total) = 0.48656E+01    rms(broyden)= 0.48630E+01
  rms(prec ) = 0.53945E+01
  weight for this iteration     100.00

 Free energy of the ion-electron system (eV)
  ---------------------------------------------------
  alpha Z        PSCENC =       186.25018696
  Ewald energy   TEWEN  =     27389.40590339
  -Hartree energ DENC   =    -39065.47809371
  -exchange      EXHF   =         0.00000000
  -V(xc)+E(xc)   XCENC  =      1092.96966397
  PAW double counting   =     11453.83848114   -11942.90478952
  entropy T*S    EENTRO =         0.00000000
  eigenvalues    EBANDS =     -4812.16112782
  atomic energy  EATOM  =     15171.73615219
  Solvation  Ediel_sol  =         0.00000000
  ---------------------------------------------------
  free energy    TOTEN  =      -526.34362340 eV

  energy without entropy =     -526.34362340  energy(sigma->0) =     -526.34362340


--------------------------------------------------------------------------------------------------------




--------------------------------------- Iteration      1(   6)  ---------------------------------------


    POTLOK:  cpu time    0.0965: real time    0.0971
    SETDIJ:  cpu time    0.0085: real time    0.0085
     EDDAV:  cpu time   10.4963: real time   10.5168
 BZINTS: Fermi energy: -3.036009;280.000000 electrons
         Band energy:***********;  BLOECHL correction:  0.000000
       DOS:  cpu time    0.0153: real time    0.0153
    CHARGE:  cpu time    0.1796: real time    0.1812
    MIXING:  cpu time    0.0027: real time    0.0073
    --------------------------------------------
      LOOP:  cpu time   10.7989: real time   10.8262

 eigenvalue-minimisations  :  4376
 total energy-change (2. order) : 0.3632085E+02  (-0.5384389E+01)
 number of electron     280.0000053 magnetization      -0.0000000
 augmentation part       20.6494022 magnetization       0.0190575

 Broyden mixing:
  rms(total) = 0.31588E+01    rms(broyden)= 0.31586E+01
  rms(prec ) = 0.34081E+01
  weight for this iteration     100.00

 eigenvalues of (default mixing * dielectric matrix)
  average eigenvalue GAMMA=   1.6299
  1.6299

 Free energy of the ion-electron system (eV)
  ---------------------------------------------------
  alpha Z        PSCENC =       186.25018696
  Ewald energy   TEWEN  =     27389.40590339
  -Hartree energ DENC   =    -39483.03364565
  -exchange      EXHF   =         0.00000000
  -V(xc)+E(xc)   XCENC  =      1110.84221754
  PAW double counting   =     16041.23673172   -16534.20029264
  entropy T*S    EENTRO =         0.00000000
  eigenvalues    EBANDS =     -4372.26002768
  atomic energy  EATOM  =     15171.73615219
  Solvation  Ediel_sol  =         0.00000000
  ---------------------------------------------------
  free energy    TOTEN  =      -490.02277417 eV

  energy without entropy =     -490.02277417  energy(sigma->0) =     -490.02277417


--------------------------------------------------------------------------------------------------------




--------------------------------------- Iteration      1(   7)  ---------------------------------------


    POTLOK:  cpu time    0.0907: real time    0.0955
    SETDIJ:  cpu time    0.0086: real time    0.0086
     EDDAV:  cpu time    9.9133: real time    9.9240
 BZINTS: Fermi energy: -2.105776;280.000000 electrons
         Band energy:***********;  BLOECHL correction:  0.000000
       DOS:  cpu time    0.0148: real time    0.0148
    CHARGE:  cpu time    0.1853: real time    0.1868
    MIXING:  cpu time    0.0020: real time    0.0025
    --------------------------------------------
      LOOP:  cpu time   10.2148: real time   10.2321

 eigenvalue-minimisations  :  4072
 total energy-change (2. order) : 0.1114152E+02  (-0.6599528E+01)
 number of electron     280.0000049 magnetization      -0.0000000
 augmentation part       19.9452736 magnetization      -0.0019872

 Broyden mixing:
  rms(total) = 0.18562E+01    rms(broyden)= 0.18557E+01
  rms(prec ) = 0.19891E+01
  weight for this iteration     100.00

 eigenvalues of (default mixing * dielectric matrix)
  average eigenvalue GAMMA=   1.6679
  0.9758  2.3601

 Free energy of the ion-electron system (eV)
  ---------------------------------------------------
  alpha Z        PSCENC =       186.25018696
  Ewald energy   TEWEN  =     27389.40590339
  -Hartree energ DENC   =    -39933.82549470
  -exchange      EXHF   =         0.00000000
  -V(xc)+E(xc)   XCENC  =      1128.84472927
  PAW double counting   =     23901.96143859   -24401.09330354
  entropy T*S    EENTRO =         0.00000000
  eigenvalues    EBANDS =     -3922.16086624
  atomic energy  EATOM  =     15171.73615219
  Solvation  Ediel_sol  =         0.00000000
  ---------------------------------------------------
  free energy    TOTEN  =      -478.88125408 eV

  energy without entropy =     -478.88125408  energy(sigma->0) =     -478.88125408


--------------------------------------------------------------------------------------------------------




--------------------------------------- Iteration      1(   8)  ---------------------------------------


    POTLOK:  cpu time    0.0955: real time    0.0974
    SETDIJ:  cpu time    0.0086: real time    0.0086
     EDDAV:  cpu time    9.9377: real time    9.9599
 BZINTS: Fermi energy: -1.504376;280.000000 electrons
         Band energy:***********;  BLOECHL correction:  0.000000
       DOS:  cpu time    0.0147: real time    0.0147
    CHARGE:  cpu time    0.1807: real time    0.1813
    MIXING:  cpu time    0.0020: real time    0.0020
    --------------------------------------------
      LOOP:  cpu time   10.2391: real time   10.2640

 eigenvalue-minimisations  :  4072
 total energy-change (2. order) : 0.2087931E+01  (-0.1630420E+01)
 number of electron     280.0000046 magnetization       0.0000000
 augmentation part       19.7205459 magnetization      -0.0012260

 Broyden mixing:
  rms(total) = 0.13079E+01    rms(broyden)= 0.13077E+01
  rms(prec ) = 0.13688E+01
  weight for this iteration     100.00

 eigenvalues of (default mixing * dielectric matrix)
  average eigenvalue GAMMA=   1.7612
  3.2021  1.3352  0.7463

 Free energy of the ion-electron system (eV)
  ---------------------------------------------------
  alpha Z        PSCENC =       186.25018696
  Ewald energy   TEWEN  =     27389.40590339
  -Hartree energ DENC   =    -40054.69190635
  -exchange      EXHF   =         0.00000000
  -V(xc)+E(xc)   XCENC  =      1133.87465185
  PAW double counting   =     28468.71441517   -28970.87513237
  entropy T*S    EENTRO =         0.00000000
  eigenvalues    EBANDS =     -3801.20759379
  atomic energy  EATOM  =     15171.73615219
  Solvation  Ediel_sol  =         0.00000000
  ---------------------------------------------------
  free energy    TOTEN  =      -476.79332295 eV

  energy without entropy =     -476.79332295  energy(sigma->0) =     -476.79332295


--------------------------------------------------------------------------------------------------------




--------------------------------------- Iteration      1(   9)  ---------------------------------------


    POTLOK:  cpu time    0.0958: real time    0.0964
    SETDIJ:  cpu time    0.0086: real time    0.0086
     EDDAV:  cpu time   12.1984: real time   12.2091
 BZINTS: Fermi energy: -1.385596;280.000000 electrons
         Band energy:***********;  BLOECHL correction:  0.000000
       DOS:  cpu time    0.0149: real time    0.0149
    CHARGE:  cpu time    0.1864: real time    0.1864
    MIXING:  cpu time    0.0021: real time    0.0021
    --------------------------------------------
      LOOP:  cpu time   12.5061: real time   12.5174

 eigenvalue-minimisations  :  5280
 total energy-change (2. order) :-0.2081055E+00  (-0.1373185E+01)
 number of electron     280.0000047 magnetization       0.0000000
 augmentation part       19.8108269 magnetization       0.0007797

 Broyden mixing:
  rms(total) = 0.67865E+00    rms(broyden)= 0.67836E+00
  rms(prec ) = 0.84921E+00
  weight for this iteration     100.00

 eigenvalues of (default mixing * dielectric matrix)
  average eigenvalue GAMMA=   1.6940
  3.6961  1.5049  0.7875  0.7875

 Free energy of the ion-electron system (eV)
  ---------------------------------------------------
  alpha Z        PSCENC =       186.25018696
  Ewald energy   TEWEN  =     27389.40590339
  -Hartree energ DENC   =    -40101.56134516
  -exchange      EXHF   =         0.00000000
  -V(xc)+E(xc)   XCENC  =      1135.84436664
  PAW double counting   =     34161.85944195   -34668.95557450
  entropy T*S    EENTRO =         0.00000000
  eigenvalues    EBANDS =     -3751.58055994
  atomic energy  EATOM  =     15171.73615219
  Solvation  Ediel_sol  =         0.00000000
  ---------------------------------------------------
  free energy    TOTEN  =      -477.00142846 eV

  energy without entropy =     -477.00142846  energy(sigma->0) =     -477.00142846


--------------------------------------------------------------------------------------------------------




--------------------------------------- Iteration      1(  10)  ---------------------------------------


    POTLOK:  cpu time    0.0964: real time    0.0971
    SETDIJ:  cpu time    0.0086: real time    0.0086
     EDDAV:  cpu time   11.7056: real time   11.7170
 BZINTS: Fermi energy: -1.099275;280.000000 electrons
         Band energy:***********;  BLOECHL correction:  0.000000
       DOS:  cpu time    0.0142: real time    0.0142
    CHARGE:  cpu time    0.1837: real time    0.1845
    MIXING:  cpu time    0.0022: real time    0.0022
    --------------------------------------------
      LOOP:  cpu time   12.0107: real time   12.0235

 eigenvalue-minimisations  :  5032
 total energy-change (2. order) : 0.6706228E+00  (-0.7236824E+00)
 number of electron     280.0000048 magnetization       0.0000000
 augmentation part       19.7930288 magnetization       0.0005709

 Broyden mixing:
  rms(total) = 0.34212E+00    rms(broyden)= 0.34162E+00
  rms(prec ) = 0.39889E+00
  weight for this iteration     100.00

 eigenvalues of (default mixing * dielectric matrix)
  average eigenvalue GAMMA=   1.5899
  3.9329  1.7374  1.0402  0.6194  0.6194

 Free energy of the ion-electron system (eV)
  ---------------------------------------------------
  alpha Z        PSCENC =       186.25018696
  Ewald energy   TEWEN  =     27389.40590339
  -Hartree energ DENC   =    -40107.35221777
  -exchange      EXHF   =         0.00000000
  -V(xc)+E(xc)   XCENC  =      1136.53272062
  PAW double counting   =     36486.38712361   -36993.37908122
  entropy T*S    EENTRO =         0.00000000
  eigenvalues    EBANDS =     -3745.91159348
  atomic energy  EATOM  =     15171.73615219
  Solvation  Ediel_sol  =         0.00000000
  ---------------------------------------------------
  free energy    TOTEN  =      -476.33080570 eV

  energy without entropy =     -476.33080570  energy(sigma->0) =     -476.33080570


--------------------------------------------------------------------------------------------------------




--------------------------------------- Iteration      1(  11)  ---------------------------------------


    POTLOK:  cpu time    0.0929: real time    0.0955
    SETDIJ:  cpu time    0.0085: real time    0.0085
     EDDAV:  cpu time   11.2505: real time   11.2643
 BZINTS: Fermi energy: -1.210553;280.000000 electrons
         Band energy:***********;  BLOECHL correction:  0.000000
       DOS:  cpu time    0.0149: real time    0.0149
    CHARGE:  cpu time    0.1902: real time    0.1902
    MIXING:  cpu time    0.0022: real time    0.0022
    --------------------------------------------
      LOOP:  cpu time   11.5591: real time   11.5756

 eigenvalue-minimisations  :  4792
 total energy-change (2. order) : 0.8347590E-01  (-0.1823273E+00)
 number of electron     280.0000047 magnetization      -0.0000000
 augmentation part       19.7884842 magnetization       0.0003899

 Broyden mixing:
  rms(total) = 0.18987E+00    rms(broyden)= 0.18973E+00
  rms(prec ) = 0.23273E+00
  weight for this iteration     100.00

 eigenvalues of (default mixing * dielectric matrix)
  average eigenvalue GAMMA=   1.5219
  3.9193  1.8380  1.2386  0.9568  0.5893  0.5893

 Free energy of the ion-electron system (eV)
  ---------------------------------------------------
  alpha Z        PSCENC =       186.25018696
  Ewald energy   TEWEN  =     27389.40590339
  -Hartree energ DENC   =    -40083.14141930
  -exchange      EXHF   =         0.00000000
  -V(xc)+E(xc)   XCENC  =      1135.92865295
  PAW double counting   =     37635.73185583   -38142.15887039
  entropy T*S    EENTRO =         0.00000000
  eigenvalues    EBANDS =     -3769.99979144
  atomic energy  EATOM  =     15171.73615219
  Solvation  Ediel_sol  =         0.00000000
  ---------------------------------------------------
  free energy    TOTEN  =      -476.24732980 eV

  energy without entropy =     -476.24732980  energy(sigma->0) =     -476.24732980


--------------------------------------------------------------------------------------------------------




--------------------------------------- Iteration      1(  12)  ---------------------------------------


    POTLOK:  cpu time    0.0941: real time    0.0956
    SETDIJ:  cpu time    0.0086: real time    0.0087
     EDDAV:  cpu time   10.7703: real time   10.7821
 BZINTS: Fermi energy: -1.265566;280.000000 electrons
         Band energy:***********;  BLOECHL correction:  0.000000
       DOS:  cpu time    0.0165: real time    0.0176
    CHARGE:  cpu time    0.1843: real time    0.1843
    MIXING:  cpu time    0.0023: real time    0.0023
    --------------------------------------------
      LOOP:  cpu time   11.0763: real time   11.0907

 eigenvalue-minimisations  :  4528
 total energy-change (2. order) : 0.4661433E-01  (-0.8377182E-01)
 number of electron     280.0000047 magnetization      -0.0000000
 augmentation part       19.7855962 magnetization       0.0001599

 Broyden mixing:
  rms(total) = 0.12522E+00    rms(broyden)= 0.12507E+00
  rms(prec ) = 0.15963E+00
  weight for this iteration     100.00

 eigenvalues of (default mixing * dielectric matrix)
  average eigenvalue GAMMA=   1.5158
  3.8882  2.2859  1.4455  0.9199  0.9199  0.5755  0.5755

 Free energy of the ion-electron system (eV)
  ---------------------------------------------------
  alpha Z        PSCENC =       186.25018696
  Ewald energy   TEWEN  =     27389.40590339
  -Hartree energ DENC   =    -40062.99564643
  -exchange      EXHF   =         0.00000000
  -V(xc)+E(xc)   XCENC  =      1135.30057715
  PAW double counting   =     37875.85499491   -38381.70519276
  entropy T*S    EENTRO =         0.00000000
  eigenvalues    EBANDS =     -3790.04769089
  atomic energy  EATOM  =     15171.73615219
  Solvation  Ediel_sol  =         0.00000000
  ---------------------------------------------------
  free energy    TOTEN  =      -476.20071547 eV

  energy without entropy =     -476.20071547  energy(sigma->0) =     -476.20071547


--------------------------------------------------------------------------------------------------------




--------------------------------------- Iteration      1(  13)  ---------------------------------------


    POTLOK:  cpu time    0.0852: real time    0.0957
    SETDIJ:  cpu time    0.0085: real time    0.0085
     EDDAV:  cpu time    9.9318: real time    9.9476
 BZINTS: Fermi energy: -1.305576;280.000000 electrons
         Band energy:***********;  BLOECHL correction:  0.000000
       DOS:  cpu time    0.0148: real time    0.0148
    CHARGE:  cpu time    0.1896: real time    0.1897
    MIXING:  cpu time    0.0025: real time    0.0025
    --------------------------------------------
      LOOP:  cpu time   10.2323: real time   10.2586

 eigenvalue-minimisations  :  4080
 total energy-change (2. order) : 0.3007581E-01  (-0.2869054E-01)
 number of electron     280.0000047 magnetization      -0.0000000
 augmentation part       19.7968031 magnetization      -0.0000003

 Broyden mixing:
  rms(total) = 0.50516E-01    rms(broyden)= 0.50418E-01
  rms(prec ) = 0.56839E-01
  weight for this iteration     100.00

 eigenvalues of (default mixing * dielectric matrix)
  average eigenvalue GAMMA=   1.4936
  3.8764  2.5200  1.5787  0.9331  0.9331  0.9561  0.5757  0.5757

 Free energy of the ion-electron system (eV)
  ---------------------------------------------------
  alpha Z        PSCENC =       186.25018696
  Ewald energy   TEWEN  =     27389.40590339
  -Hartree energ DENC   =    -40047.34297261
  -exchange      EXHF   =         0.00000000
  -V(xc)+E(xc)   XCENC  =      1134.76930960
  PAW double counting   =     38031.33831424   -38537.06317266
  entropy T*S    EENTRO =         0.00000000
  eigenvalues    EBANDS =     -3805.26436078
  atomic energy  EATOM  =     15171.73615219
  Solvation  Ediel_sol  =         0.00000000
  ---------------------------------------------------
  free energy    TOTEN  =      -476.17063966 eV

  energy without entropy =     -476.17063966  energy(sigma->0) =     -476.17063966


--------------------------------------------------------------------------------------------------------




--------------------------------------- Iteration      1(  14)  ---------------------------------------


    POTLOK:  cpu time    0.0950: real time    0.0958
    SETDIJ:  cpu time    0.0086: real time    0.0086
     EDDAV:  cpu time    9.6853: real time    9.7029
 BZINTS: Fermi energy: -1.320580;280.000000 electrons
         Band energy:***********;  BLOECHL correction:  0.000000
       DOS:  cpu time    0.0147: real time    0.0147
    CHARGE:  cpu time    0.1879: real time    0.1879
    MIXING:  cpu time    0.0026: real time    0.0026
    --------------------------------------------
      LOOP:  cpu time    9.9941: real time   10.0125

 eigenvalue-minimisations  :  3960
 total energy-change (2. order) :-0.6993983E-03  (-0.4891988E-02)
 number of electron     280.0000047 magnetization      -0.0000000
 augmentation part       19.7991695 magnetization      -0.0000210

 Broyden mixing:
  rms(total) = 0.30253E-01    rms(broyden)= 0.30240E-01
  rms(prec ) = 0.33554E-01
  weight for this iteration     100.00

 eigenvalues of (default mixing * dielectric matrix)
  average eigenvalue GAMMA=   1.4456
  3.8513  2.5488  1.5453  1.0823  1.0823  0.8716  0.8716  0.5786  0.5786

 Free energy of the ion-electron system (eV)
  ---------------------------------------------------
  alpha Z        PSCENC =       186.25018696
  Ewald energy   TEWEN  =     27389.40590339
  -Hartree energ DENC   =    -40044.34030187
  -exchange      EXHF   =         0.00000000
  -V(xc)+E(xc)   XCENC  =      1134.66122367
  PAW double counting   =     38098.77515860   -38604.41200431
  entropy T*S    EENTRO =         0.00000000
  eigenvalues    EBANDS =     -3808.24765770
  atomic energy  EATOM  =     15171.73615219
  Solvation  Ediel_sol  =         0.00000000
  ---------------------------------------------------
  free energy    TOTEN  =      -476.17133906 eV

  energy without entropy =     -476.17133906  energy(sigma->0) =     -476.17133906


--------------------------------------------------------------------------------------------------------




--------------------------------------- Iteration      1(  15)  ---------------------------------------


    POTLOK:  cpu time    0.0945: real time    0.0966
    SETDIJ:  cpu time    0.0085: real time    0.0085
     EDDAV:  cpu time   11.1810: real time   11.1991
 BZINTS: Fermi energy: -1.315579;280.000000 electrons
         Band energy:***********;  BLOECHL correction:  0.000000
       DOS:  cpu time    0.0149: real time    0.0149
    CHARGE:  cpu time    0.1895: real time    0.1895
    MIXING:  cpu time    0.0028: real time    0.0028
    --------------------------------------------
      LOOP:  cpu time   11.4911: real time   11.5114

 eigenvalue-minimisations  :  4744
 total energy-change (2. order) : 0.6166761E-03  (-0.6466597E-03)
 number of electron     280.0000047 magnetization      -0.0000000
 augmentation part       19.7996382 magnetization      -0.0000086

 Broyden mixing:
  rms(total) = 0.20806E-01    rms(broyden)= 0.20802E-01
  rms(prec ) = 0.21440E-01
  weight for this iteration     100.00

 eigenvalues of (default mixing * dielectric matrix)
  average eigenvalue GAMMA=   1.4902
  3.7610  2.6570  2.0102  1.3654  1.3654  0.8624  0.8624  0.8604  0.5787  0.5787

 Free energy of the ion-electron system (eV)
  ---------------------------------------------------
  alpha Z        PSCENC =       186.25018696
  Ewald energy   TEWEN  =     27389.40590339
  -Hartree energ DENC   =    -40045.46015888
  -exchange      EXHF   =         0.00000000
  -V(xc)+E(xc)   XCENC  =      1134.68060788
  PAW double counting   =     38107.77076063   -38613.47984434
  entropy T*S    EENTRO =         0.00000000
  eigenvalues    EBANDS =     -3807.07433022
  atomic energy  EATOM  =     15171.73615219
  Solvation  Ediel_sol  =         0.00000000
  ---------------------------------------------------
  free energy    TOTEN  =      -476.17072238 eV

  energy without entropy =     -476.17072238  energy(sigma->0) =     -476.17072238


--------------------------------------------------------------------------------------------------------




--------------------------------------- Iteration      1(  16)  ---------------------------------------


    POTLOK:  cpu time    0.0951: real time    0.0959
    SETDIJ:  cpu time    0.0086: real time    0.0086
     EDDAV:  cpu time   10.4586: real time   10.4801
 BZINTS: Fermi energy: -1.314329;280.000000 electrons
         Band energy:***********;  BLOECHL correction:  0.000000
       DOS:  cpu time    0.0145: real time    0.0145
    CHARGE:  cpu time    0.1848: real time    0.1848
    MIXING:  cpu time    0.0030: real time    0.0030
    --------------------------------------------
      LOOP:  cpu time   10.7645: real time   10.7869

 eigenvalue-minimisations  :  4368
 total energy-change (2. order) : 0.2314093E-04  (-0.1535808E-03)
 number of electron     280.0000047 magnetization       0.0000000
 augmentation part       19.7992249 magnetization      -0.0000101

 Broyden mixing:
  rms(total) = 0.11670E-01    rms(broyden)= 0.11668E-01
  rms(prec ) = 0.11995E-01
  weight for this iteration     100.00

 eigenvalues of (default mixing * dielectric matrix)
  average eigenvalue GAMMA=   1.5453
  3.5482  3.5482  2.2947  1.3020  1.3020  1.2261  0.8832  0.8832  0.8516  0.5794
  0.5794

 Free energy of the ion-electron system (eV)
  ---------------------------------------------------
  alpha Z        PSCENC =       186.25018696
  Ewald energy   TEWEN  =     27389.40590339
  -Hartree energ DENC   =    -40046.59287553
  -exchange      EXHF   =         0.00000000
  -V(xc)+E(xc)   XCENC  =      1134.70476153
  PAW double counting   =     38105.66795572   -38611.39483927
  entropy T*S    EENTRO =         0.00000000
  eigenvalues    EBANDS =     -3805.94794423
  atomic energy  EATOM  =     15171.73615219
  Solvation  Ediel_sol  =         0.00000000
  ---------------------------------------------------
  free energy    TOTEN  =      -476.17069924 eV

  energy without entropy =     -476.17069924  energy(sigma->0) =     -476.17069924


--------------------------------------------------------------------------------------------------------




--------------------------------------- Iteration      1(  17)  ---------------------------------------


    POTLOK:  cpu time    0.0886: real time    0.0995
    SETDIJ:  cpu time    0.0085: real time    0.0085
     EDDAV:  cpu time    7.0289: real time    7.0384
 BZINTS: Fermi energy: -1.310578;280.000000 electrons
         Band energy:***********;  BLOECHL correction:  0.000000
       DOS:  cpu time    0.0143: real time    0.0143
    --------------------------------------------
      LOOP:  cpu time    7.1403: real time    7.1607

 eigenvalue-minimisations  :  2512
 total energy-change (2. order) :-0.1077609E-04  (-0.2339785E-04)
 number of electron     280.0000047 magnetization       0.0000000
 augmentation part       19.7992249 magnetization      -0.0000101

 Free energy of the ion-electron system (eV)
  ---------------------------------------------------
  alpha Z        PSCENC =       186.25018696
  Ewald energy   TEWEN  =     27389.40590339
  -Hartree energ DENC   =    -40046.81983038
  -exchange      EXHF   =         0.00000000
  -V(xc)+E(xc)   XCENC  =      1134.70957298
  PAW double counting   =     38115.55062462   -38621.27183110
  entropy T*S    EENTRO =         0.00000000
  eigenvalues    EBANDS =     -3805.73148868
  atomic energy  EATOM  =     15171.73615219
  Solvation  Ediel_sol  =         0.00000000
  ---------------------------------------------------
  free energy    TOTEN  =      -476.17071002 eV

  energy without entropy =     -476.17071002  energy(sigma->0) =     -476.17071002


--------------------------------------------------------------------------------------------------------




 average (electrostatic) potential at core
  the test charge radii are     0.6991  0.7089  0.9911  0.6991  0.7215
  (the norm of the test charge is              1.0000)
       1 -59.6792       2 -60.0755       3 -60.0753       4 -59.7707       5 -59.7595
       6 -59.7903       7 -59.8881       8 -59.7019       9 -59.6074      10 -60.5416
      11 -59.9365      12 -60.5253      13 -59.6885      14 -59.6841      15 -59.4292
      16 -59.8043      17 -59.7826      18 -59.7420      19 -59.9938      20 -59.6733
      21 -59.7027      22 -59.8813      23 -59.8200      24 -59.8437      25 -73.8417
      26 -71.4305      27 -71.4181      28 -71.6597      29 -71.7722      30 -71.5109
      31 -71.4646      32 -74.4399      33 -73.4280      34 -71.9862      35 -73.1310
      36 -71.5924      37 -71.6045      38 -72.0482      39 -73.0774      40 -74.5717
      41 -73.5930      42 -71.5991      43 -71.4922      44 -71.8082      45 -71.8190
      46 -71.4632      47 -71.4679      48 -74.3100      49 -73.6251      50 -71.7776
      51 -71.6687      52 -71.4387      53 -71.3884      54 -71.7272      55 -71.6579
      56 -74.6094      57 -80.9739      58 -59.1769      59 -81.4627



 E-fermi :  -1.3106     XC(G=0):  -3.5221     alpha+bet : -2.7974


 spin component 1

 k-point     1 :       0.0000    0.0000    0.0000
  band No.  band energies     occupation 
      1     -27.7226      1.00000
      2     -27.5665      1.00000
      3     -27.4456      1.00000
      4     -27.1814      1.00000
      5     -27.0871      1.00000
      6     -26.3673      1.00000
      7     -26.3377      1.00000
      8     -26.2870      1.00000
      9     -26.2653      1.00000
     10     -26.1954      1.00000
     11     -25.9964      1.00000
     12     -25.9004      1.00000
     13     -25.8517      1.00000
     14     -24.8832      1.00000
     15     -24.8613      1.00000
     16     -24.7729      1.00000
     17     -24.6905      1.00000
     18     -24.6303      1.00000
     19     -24.4973      1.00000
     20     -23.6785      1.00000
     21     -23.4396      1.00000
     22     -23.4274      1.00000
     23     -22.5697      1.00000
     24     -22.5076      1.00000
     25     -22.2275      1.00000
     26     -22.0897      1.00000
     27     -22.0510      1.00000
     28     -22.0237      1.00000
     29     -21.9282      1.00000
     30     -21.8751      1.00000
     31     -21.6508      1.00000
     32     -21.5980      1.00000
     33     -21.4821      1.00000
     34     -21.0134      1.00000
     35     -20.9026      1.00000
     36     -20.7706      1.00000
     37     -20.6011      1.00000
     38     -20.2922      1.00000
     39     -17.9352      1.00000
     40     -17.8571      1.00000
     41     -17.7139      1.00000
     42     -17.4970      1.00000
     43     -17.3527      1.00000
     44     -17.3130      1.00000
     45     -16.8577      1.00000
     46     -16.6199      1.00000
     47     -15.9347      1.00000
     48     -15.7752      1.00000
     49     -15.7325      1.00000
     50     -15.4870      1.00000
     51     -15.3971      1.00000
     52     -15.3167      1.00000
     53     -14.8011      1.00000
     54     -14.6800      1.00000
     55     -14.2884      1.00000
     56     -14.2497      1.00000
     57     -14.1837      1.00000
     58     -14.0308      1.00000
     59     -13.9650      1.00000
     60     -13.8727      1.00000
     61     -13.7906      1.00000
     62     -13.6879      1.00000
     63     -13.6214      1.00000
     64     -12.7963      1.00000
     65     -12.7584      1.00000
     66     -12.5581      1.00000
     67     -12.4340      1.00000
     68     -12.3551      1.00000
     69     -12.2674      1.00000
     70     -12.2098      1.00000
     71     -12.1506      1.00000
     72     -12.0472      1.00000
     73     -11.9154      1.00000
     74     -11.7104      1.00000
     75     -11.6786      1.00000
     76     -11.6595      1.00000
     77     -11.5114      1.00000
     78     -11.4815      1.00000
     79     -11.2212      1.00000
     80     -10.8885      1.00000
     81     -10.7351      1.00000
     82     -10.4915      1.00000
     83     -10.2869      1.00000
     84     -10.1695      1.00000
     85     -10.0540      1.00000
     86      -9.9014      1.00000
     87      -9.8987      1.00000
     88      -9.8334      1.00000
     89      -9.6521      1.00000
     90      -9.5635      1.00000
     91      -9.4445      1.00000
     92      -9.3721      1.00000
     93      -9.2714      1.00000
     94      -9.1639      1.00000
     95      -8.8408      1.00000
     96      -8.2128      1.00000
     97      -8.1103      1.00000
     98      -8.0177      1.00000
     99      -7.8349      1.00000
[...]
   -.183E+02 0.584E+02 0.208E+03   0.187E+02 -.613E+02 -.211E+03   -.417E+00 0.332E+01 0.190E+01   -.145E-01 0.154E-01 0.139E-01
   -.684E+02 -.180E+02 0.100E+03   0.716E+02 0.194E+02 -.102E+03   -.308E+01 -.154E+01 0.119E+01   -.748E-02 0.521E-02 0.529E-02
   0.460E+02 -.309E+02 -.362E+02   -.463E+02 0.298E+02 0.363E+02   0.586E+00 0.246E+01 0.851E+00   0.575E-02 0.929E-02 0.187E-02
   0.282E+02 -.197E+02 -.515E+02   -.267E+02 0.203E+02 0.513E+02   -.280E+01 -.185E+01 0.436E+00   -.191E-02 -.723E-02 0.544E-02
   -.686E+01 -.211E+01 -.632E+02   0.516E+01 0.250E+01 0.633E+02   0.314E+01 -.158E+01 0.297E+00   0.282E-02 0.902E-04 0.144E-02
   -.295E+02 0.192E+02 -.756E+02   0.279E+02 -.176E+02 0.771E+02   0.110E+01 -.186E+01 -.120E+01   0.994E-03 -.834E-02 -.554E-02
   -.388E+01 0.197E+02 0.504E+02   0.388E+01 -.234E+02 -.502E+02   0.773E-01 0.338E+01 -.647E+00   0.334E-02 -.666E-02 0.891E-02
   0.376E+02 0.175E+02 -.697E+02   -.360E+02 -.156E+02 0.712E+02   -.125E+01 -.226E+01 -.824E+00   0.143E-01 0.627E-02 0.392E-02
   -.374E+01 -.176E+02 -.164E+02   0.399E+01 0.155E+02 0.163E+02   -.129E+00 0.344E+01 -.661E+00   -.962E-02 -.887E-04 0.481E-03
   0.427E+02 0.314E+02 0.202E+03   -.414E+02 -.307E+02 -.202E+03   -.294E+01 -.137E+01 -.838E+00   -.992E-02 0.219E-02 0.629E-02
   -.146E+02 0.242E+02 0.907E+02   0.131E+02 -.240E+02 -.904E+02   0.312E+01 -.131E+01 -.513E+00   -.246E-01 0.880E-02 0.415E-02
   0.708E+02 -.165E+02 0.690E+02   -.740E+02 0.179E+02 -.698E+02   0.311E+01 -.162E+01 0.619E+00   0.992E-02 -.551E-02 0.676E-02
   0.689E+01 0.829E+02 0.222E+03   -.649E+01 -.858E+02 -.224E+03   -.405E-01 0.319E+01 0.183E+01   0.136E-01 0.759E-02 0.553E-02
   -.698E+02 -.645E+02 -.104E+03   0.731E+02 0.660E+02 0.105E+03   -.305E+01 -.161E+01 -.478E+00   -.424E-02 -.183E-01 0.457E-02
   -.392E+02 -.295E+02 -.148E+03   0.389E+02 0.288E+02 0.148E+03   -.310E+00 0.245E+01 0.930E+00   -.581E-02 -.409E-02 -.383E-02
   0.105E+02 -.322E+01 -.115E+03   -.894E+01 0.358E+01 0.115E+03   -.321E+01 -.150E+01 0.544E+00   -.711E-02 -.705E-02 0.104E-02
   -.312E+02 -.146E+02 -.933E+02   0.300E+02 0.153E+02 0.930E+02   0.280E+01 -.196E+01 0.934E+00   0.658E-02 -.150E-01 0.547E-02
   0.813E+02 -.754E+02 0.144E+03   -.839E+02 0.781E+02 -.144E+03   0.310E+01 -.219E+01 0.208E+00   0.994E-02 0.117E-01 0.683E-02
   -.113E+02 0.469E+02 -.199E+03   0.114E+02 -.506E+02 0.201E+03   -.538E-01 0.363E+01 -.156E+01   -.502E-02 0.892E-02 -.493E-02
   -.927E+02 -.274E+02 -.642E+02   0.958E+02 0.287E+02 0.656E+02   -.340E+01 -.106E+01 -.121E+01   -.263E-01 -.747E-02 -.316E-02
   -.160E+02 0.440E+02 0.174E+03   0.164E+02 -.451E+02 -.177E+03   -.346E+00 0.121E+01 0.280E+01   0.317E-01 0.115E-01 0.133E-01
   -.214E+03 -.327E+02 0.237E+03   0.249E+03 0.515E+02 -.251E+03   -.311E+02 -.165E+02 0.125E+02   0.978E-03 0.149E-01 0.824E-02
   0.173E+03 -.169E+03 -.254E+03   -.207E+03 0.187E+03 0.267E+03   0.306E+02 -.163E+02 -.108E+02   -.219E-02 -.945E-02 0.599E-02
   0.255E+01 0.189E+03 0.419E+03   0.337E+00 -.221E+03 -.445E+03   -.229E+01 0.289E+02 0.223E+02   -.232E-01 0.180E-01 0.121E-01
   -.432E+02 0.156E+03 0.440E+03   0.409E+02 -.186E+03 -.469E+03   0.217E+01 0.272E+02 0.251E+02   -.352E-03 0.184E-01 0.200E-01
   0.212E+03 -.109E+03 -.120E+03   -.245E+03 0.132E+03 0.121E+03   0.297E+02 -.196E+02 -.617E-01   -.158E-01 -.188E-03 0.328E-02
   -.160E+03 -.877E+02 0.270E+03   0.194E+03 0.985E+02 -.293E+03   -.301E+02 -.967E+01 0.195E+02   -.375E-02 0.165E-02 0.357E-02
   -.489E+01 -.461E+00 -.263E+02   0.517E+01 0.303E+00 0.275E+02   -.191E+00 0.670E-01 -.104E+01   -.222E-02 0.249E-02 0.337E-02
   0.196E+02 -.264E+02 -.103E+03   -.197E+02 0.272E+02 0.108E+03   0.231E+00 -.755E+00 -.399E+01   0.529E-02 -.169E-03 0.497E-02
   -.241E+00 -.681E+02 -.323E+03   0.246E+02 0.835E+02 0.350E+03   -.219E+02 -.136E+02 -.233E+02   0.216E-01 0.667E-02 0.543E-02
   0.796E+01 0.734E+02 -.818E+02   -.301E+02 -.692E+02 0.936E+02   0.191E+02 -.416E+01 -.105E+02   0.999E-03 0.942E-02 0.651E-02
   -.193E+02 0.122E+03 0.133E+03   0.225E+02 -.160E+03 -.145E+03   -.264E+01 0.338E+02 0.984E+01   0.185E-02 -.211E-01 0.105E-01
   0.569E+00 0.119E+03 0.148E+03   -.289E+01 -.157E+03 -.159E+03   0.180E+01 0.336E+02 0.992E+01   0.895E-02 -.154E-01 0.110E-01
   0.422E+02 -.664E+02 -.352E+03   -.715E+02 0.824E+02 0.373E+03   0.264E+02 -.141E+02 -.177E+02   -.158E-01 -.176E-01 -.744E-02
   -.175E+01 0.838E+02 -.116E+03   0.220E+02 -.802E+02 0.133E+03   -.175E+02 -.358E+01 -.142E+02   0.367E-01 0.173E-01 0.166E-01
   0.574E+02 0.201E+02 0.760E+02   -.624E+02 -.236E+02 -.759E+02   0.402E+01 0.284E+01 -.392E+00   0.167E-01 0.159E-01 0.114E-01
   0.162E+02 0.426E+02 0.158E+03   -.184E+02 -.444E+02 -.162E+03   0.195E+01 0.160E+01 0.404E+01   -.344E-01 0.781E-02 0.439E-02
   -.208E+03 -.114E+03 -.131E+03   0.242E+03 0.136E+03 0.132E+03   -.300E+02 -.187E+02 -.894E+00   0.418E-02 -.120E-01 0.984E-02
   0.164E+03 -.742E+02 0.210E+03   -.199E+03 0.845E+02 -.230E+03   0.312E+02 -.935E+01 0.166E+02   0.181E-02 -.145E-01 0.811E-02
   0.145E+02 0.181E+03 0.453E+03   -.948E+01 -.212E+03 -.480E+03   -.459E+01 0.281E+02 0.230E+02   0.284E-01 -.407E-02 -.559E-03
   0.690E+01 0.259E+03 0.379E+03   -.882E+01 -.298E+03 -.392E+03   0.121E+01 0.339E+02 0.108E+02   0.416E-02 -.132E-01 -.336E-02
   0.215E+03 -.340E+02 0.143E+03   -.250E+03 0.541E+02 -.150E+03   0.316E+02 -.177E+02 0.611E+01   0.147E-01 0.825E-05 0.921E-02
   -.157E+03 -.173E+03 -.311E+03   0.190E+03 0.191E+03 0.327E+03   -.292E+02 -.161E+02 -.139E+02   0.539E-02 -.224E-01 0.715E-02
   0.829E+00 -.380E+02 -.131E+02   -.714E+00 0.394E+02 0.105E+02   -.145E+00 -.113E+01 0.219E+01   -.615E-03 -.189E-01 0.732E-02
   -.191E+02 -.292E+02 -.200E+03   0.187E+02 0.314E+02 0.206E+03   0.152E+00 -.202E+01 -.536E+01   -.346E-02 -.671E-02 0.105E-02
   -.248E+03 -.725E+02 -.981E+02   0.283E+03 0.931E+02 0.993E+02   -.306E+02 -.183E+02 -.104E+01   -.184E-01 -.547E-02 -.341E-02
   0.197E+03 -.161E+03 0.322E+03   -.232E+03 0.179E+03 -.331E+03   0.308E+02 -.162E+02 0.666E+01   -.156E-01 0.160E-01 0.393E-02
   0.113E+01 0.162E+03 -.410E+03   0.400E+01 -.194E+03 0.436E+03   -.439E+01 0.284E+02 -.228E+02   0.211E-03 0.530E-02 -.776E-03
   -.386E+02 0.125E+03 -.461E+03   0.370E+02 -.155E+03 0.491E+03   0.136E+01 0.267E+02 -.261E+02   -.129E-01 0.266E-02 -.410E-02
   0.209E+03 -.141E+03 0.250E+03   -.236E+03 0.166E+03 -.264E+03   0.242E+02 -.226E+02 0.123E+02   0.562E-02 0.181E-01 0.464E-02
   -.185E+03 -.799E+02 -.199E+03   0.221E+03 0.898E+02 0.216E+03   -.320E+02 -.931E+01 -.141E+02   -.302E-01 0.781E-03 0.100E-02
   -.536E+02 0.232E+02 0.460E+02   0.572E+02 -.260E+02 -.488E+02   -.278E+01 0.217E+01 0.213E+01   -.177E-01 -.310E-02 0.551E-03
   0.484E+02 -.125E+03 -.104E+04   -.499E+02 0.145E+03 0.106E+04   0.131E+01 -.181E+02 -.226E+02   0.707E-01 -.956E-02 -.681E-01
   -.701E+02 -.160E+03 0.151E+03   0.799E+02 0.182E+03 -.177E+03   -.777E+01 -.176E+02 0.205E+02   0.126E-02 -.734E-03 -.370E-02
   0.585E+02 0.132E+03 -.818E+02   -.780E+02 -.176E+03 0.133E+03   0.175E+02 0.396E+02 -.461E+02   0.366E-02 0.204E-02 -.720E-02
 -----------------------------------------------------------------------------------------------
   -.676E+01 -.259E+02 0.278E+02   -.284E-12 0.000E+00 -.853E-13   0.669E+01 0.259E+02 -.280E+02   0.689E-01 -.626E-02 0.185E+00


 POSITION                                       TOTAL-FORCE (eV/Angst)
 -----------------------------------------------------------------------------------
     -0.01406      2.32837      6.15302        -0.024605      1.829980     -0.617757
      1.14737      4.33115      6.24741        -2.013309      0.214692      0.000938
     -1.19840      4.28834      6.16463         1.933295      0.211404      0.205479
      5.40564      0.62161      7.27016        -0.133132     -0.172220      0.388161
      3.27877      4.32997      5.95649        -0.106483      0.425449     -0.355104
      1.11475      0.55970      6.46628         0.074470     -0.119296     -0.194327
     -3.37781      7.80910      6.96289         0.366984      1.449010      0.885437
     -2.09106      9.73392      7.20681        -1.382934     -1.273861      0.217488
     -4.40188      9.82366      7.16344         1.463140     -1.209832      0.340209
      2.26149      5.94709      7.21672        -0.440755     -0.218916      0.245929
      0.03705      9.65158      7.03435         0.071947     -0.391741     -0.453743
     -2.39623      5.94403      6.91734         0.357961     -0.416004      0.640835
      6.56737      2.34027      6.80501         0.111911      1.411780     -0.724080
      7.61765      4.14408      5.77822        -1.616356     -0.696829     -0.375494
      5.37710      4.22555      6.27989         1.665911     -1.102426     -0.240986
     11.88549      0.40648      6.63575        -0.147431     -0.217337     -0.196500
      9.72648      4.08063      5.69359         0.365884      0.278537     -0.477271
      7.67748      0.60930      7.35952         0.265929     -0.061691      0.368310
      3.35258      7.70844      7.63048        -0.637400      1.763710      0.870269
      4.44013      9.72254      7.51249        -1.681679     -1.159644      0.862927
      2.12371      9.70222      7.49059         1.598065     -1.330646      0.605761
      8.54816      6.01927      6.06906         0.527251      0.582137     -0.145058
      6.55197      9.74191      7.67865         0.001445     -0.040445      0.573234
      4.47612      5.98619      7.04691        -0.346170      0.240051      0.197446
     -0.01349      3.65790      6.13278         0.162853      0.232863     -0.308035
      1.09639      1.74009      6.07530         3.886394      2.272531     -1.878154
      4.36401     -0.04043      7.50230        -3.793941      2.193147      2.379800
      4.36610      3.78310      5.67252         0.580490     -3.626598     -3.589933
      2.13859      3.90404      5.63539        -0.160440     -2.977073     -3.945420
      5.43012      1.85227      7.09332        -3.814789      3.207762      0.577939
     -4.36421     10.83551      6.43773         3.829915      1.130269     -3.216660
      0.01582      0.02010      6.94795         0.090727     -0.093911      0.228813
     -3.26347      9.10420      7.19354         0.129747      0.065392      0.687151
     -2.45457      7.06971      7.44069         2.346002      1.870109      3.872856
      1.14685      5.33975      7.07074        -3.062322      0.071788      1.329035
      1.13853      9.04301      7.04498         0.609051     -4.351612     -1.877780
     -1.06174      9.05748      6.89905        -0.531859     -4.334528     -1.886724
      2.27732      7.03465      7.82203        -2.944599      1.922479      3.389551
     -1.30241      5.29154      6.98001         2.788248     -0.035695      2.140685
      9.63492      5.27506      6.28731        -0.939248     -0.634252     -0.209584
      6.53618      3.50988      6.19326        -0.278512     -0.179829     -0.814385
      7.68655      1.83520      7.12273         3.894867      3.098721      0.360151
      4.34745     10.69373      6.73655        -4.001052      1.012841     -2.980129
     -2.12210      3.82486      5.48099         0.436667     -3.145387     -3.941664
      8.65869      3.48077      5.49123        -0.703692     -4.691023     -2.139105
     11.87358      1.59212      6.27522        -4.022407      2.548742     -0.987159
      8.66973     -0.06227      7.74656         3.446476      2.245259      2.758793
      6.54424     -0.04782      7.16604        -0.028967      0.297366     -0.458308
      3.28138      9.02979      7.67209        -0.199014      0.227135      0.937951
      4.45829      7.19523      7.36563         4.247496      2.312764      0.110949
      7.53155      5.42086      5.71990        -4.498904      1.540390     -2.217631
     -5.34376      9.37454      7.87623         0.751345     -3.530030      3.508015
      5.45837      9.29734      8.12118        -0.233814     -2.839787      4.151791
     -4.35136      7.44473      6.26710        -3.369046      2.916208     -2.219893
      5.49001      5.28117      6.96175         4.521460      0.568046      2.345576
      3.31511      5.42583      6.72685         0.723530     -0.653122     -0.706881
     -0.12591      6.46642      8.00478        -0.137706      1.361869      1.988637
     -0.12591      6.46642     13.62598         2.055285      4.642353     -5.415324
     -0.42766      5.78413      0.32060        -2.054182     -4.641051      5.402971
 -----------------------------------------------------------------------------------
    total drift:                               -0.002195      0.002193      0.003797


--------------------------------------------------------------------------------------------------------



  FREE ENERGIE OF THE ION-ELECTRON SYSTEM (eV)
  ---------------------------------------------------
  free  energy   TOTEN  =      -480.31875427 eV

  energy  without entropy=     -480.31875427  energy(sigma->0) =     -480.31875427



--------------------------------------------------------------------------------------------------------


    POTLOK:  cpu time    0.1035: real time    0.1035


--------------------------------------------------------------------------------------------------------


     LOOP+:  cpu time  188.8711: real time  189.2642
    4ORBIT:  cpu time    0.0000: real time    0.0000



 total charge     

# of ion       s       p       d       tot
------------------------------------------
    1        0.910   1.944   0.000   2.853
    2        0.894   1.926   0.000   2.819
    3        0.898   1.934   0.000   2.831
    4        0.923   1.957   0.000   2.880
    5        0.911   1.951   0.000   2.862
    6        0.927   1.968   0.000   2.896
    7        0.910   1.937   0.000   2.847
    8        0.908   1.930   0.000   2.838
    9        0.914   1.933   0.000   2.847
   10        0.929   1.993   0.000   2.922
   11        0.924   1.961   0.000   2.885
   12        0.934   2.004   0.000   2.939
   13        0.907   1.930   0.000   2.838
   14        0.903   1.933   0.000   2.836
   15        0.900   1.934   0.000   2.835
   16        0.929   1.974   0.000   2.903
   17        0.914   1.963   0.000   2.876
   18        0.919   1.954   0.000   2.873
   19        0.908   1.934   0.000   2.842
   20        0.911   1.929   0.000   2.840
   21        0.904   1.922   0.000   2.826
   22        0.920   1.958   0.000   2.877
   23        0.919   1.944   0.000   2.863
   24        0.924   1.976   0.000   2.900
   25        1.245   2.912   0.000   4.158
   26        1.299   2.833   0.000   4.132
   27        1.295   2.828   0.000   4.124
   28        1.297   2.797   0.000   4.095
   29        1.297   2.821   0.000   4.118
   30        1.294   2.824   0.000   4.118
   31        1.305   2.825   0.000   4.130
   32        1.271   2.951   0.000   4.222
   33        1.257   2.929   0.000   4.187
   34        1.293   2.838   0.000   4.131
   35        1.271   2.845   0.000   4.116
   36        1.291   2.821   0.000   4.113
   37        1.290   2.821   0.000   4.111
   38        1.289   2.828   0.000   4.117
   39        1.272   2.851   0.000   4.124
   40        1.271   2.968   0.000   4.239
   41        1.253   2.912   0.000   4.165
   42        1.292   2.813   0.000   4.105
   43        1.303   2.831   0.000   4.135
   44        1.297   2.821   0.000   4.118
   45        1.296   2.801   0.000   4.097
   46        1.299   2.839   0.000   4.138
   47        1.295   2.819   0.000   4.114
   48        1.268   2.954   0.000   4.222
   49        1.251   2.895   0.000   4.146
   50        1.299   2.833   0.000   4.132
   51        1.295   2.821   0.000   4.116
   52        1.295   2.806   0.000   4.101
   53        1.295   2.810   0.000   4.105
   54        1.292   2.816   0.000   4.107
   55        1.304   2.817   0.000   4.121
   56        1.269   2.960   0.000   4.229
   57        1.325   0.870  10.102  12.297
   58        1.059   1.551   0.000   2.610
   59        1.655   3.624   0.000   5.279
--------------------------------------------------
tot         67.117 144.077  10.102 221.296



 magnetization (x)

# of ion       s       p       d       tot
------------------------------------------
    1        0.000  -0.000   0.000  -0.000
    2        0.000   0.000   0.000   0.000
    3       -0.000  -0.000   0.000  -0.000
    4       -0.000  -0.000   0.000  -0.000
    5        0.000   0.000   0.000   0.000
    6        0.000  -0.000   0.000  -0.000
    7       -0.000  -0.000   0.000  -0.000
    8       -0.000  -0.000   0.000  -0.000
    9       -0.000  -0.000   0.000  -0.000
   10       -0.000  -0.000   0.000  -0.000
   11        0.000   0.000   0.000   0.000
   12        0.000   0.000   0.000   0.000
   13       -0.000  -0.000   0.000  -0.000
   14       -0.000  -0.000   0.000  -0.000
   15        0.000   0.000   0.000   0.000
   16        0.000   0.000   0.000   0.000
   17       -0.000  -0.000   0.000  -0.000
   18       -0.000  -0.000   0.000  -0.000
   19        0.000   0.000   0.000   0.000
   20        0.000   0.000   0.000   0.000
   21        0.000   0.000   0.000   0.000
   22       -0.000  -0.000   0.000  -0.000
   23        0.000  -0.000   0.000  -0.000
   24        0.000   0.000   0.000   0.000
   25       -0.000  -0.000   0.000  -0.000
   26        0.000   0.000   0.000   0.000
   27        0.000  -0.000   0.000  -0.000
   28       -0.000  -0.000   0.000  -0.000
   29       -0.000  -0.000   0.000  -0.000
   30        0.000  -0.000   0.000  -0.000
   31        0.000  -0.000   0.000  -0.000
   32       -0.000  -0.000   0.000  -0.000
   33       -0.000  -0.000   0.000  -0.000
   34        0.000  -0.000   0.000  -0.000
   35        0.000   0.000   0.000   0.000
   36        0.000  -0.000   0.000  -0.000
   37       -0.000  -0.000   0.000  -0.000
   38        0.000   0.000   0.000   0.000
   39        0.000   0.000   0.000   0.000
   40       -0.000  -0.000   0.000  -0.000
   41        0.000   0.000   0.000   0.000
   42        0.000   0.000   0.000   0.000
   43        0.000   0.000   0.000   0.000
   44        0.000   0.000   0.000   0.000
   45        0.000   0.000   0.000   0.000
   46        0.000   0.000   0.000   0.000
   47        0.000   0.000   0.000   0.000
   48       -0.000  -0.000   0.000  -0.000
   49       -0.000  -0.000   0.000  -0.000
   50       -0.000  -0.000   0.000  -0.000
   51       -0.000  -0.000   0.000  -0.000
   52       -0.000  -0.000   0.000  -0.000
   53        0.000   0.000   0.000   0.000
   54        0.000   0.000   0.000   0.000
   55       -0.000   0.000   0.000   0.000
   56        0.000   0.000   0.000   0.000
   57        0.000   0.000   0.000   0.000
   58        0.000   0.000   0.000   0.000
   59       -0.000  -0.000   0.000  -0.000
--------------------------------------------------
tot          0.000  -0.000   0.000  -0.000

 BZINTS: Fermi energy: -1.310578;280.000000 electrons
         Band energy:***********;  BLOECHL correction:  0.000000

 total amount of memory used by VASP MPI-rank0    82289. kBytes
=======================================================================

   base      :      30000. kBytes
   nonl-proj :      15904. kBytes
   fftplans  :       2997. kBytes
   grid      :       8796. kBytes
   one-center:        155. kBytes
   wavefun   :      24437. kBytes

  
  
 General timing and accounting informations for this job:
 ========================================================
  
                  Total CPU time used (sec):      200.239
                            User time (sec):      199.300
                          System time (sec):        0.939
                         Elapsed time (sec):      200.990
  
                   Maximum memory used (kb):      161532.
                   Average memory used (kb):           0.
  
                          Minor page faults:        44579
                          Major page faults:            0
                 Voluntary context switches:          909
