       N       E                     dE             d eps       ncg     rms          ort
DAV:   1     0.254853997406E+04    0.25485E+04   -0.11602E+05   768   0.110E+03
DAV:   2    -0.238475631941E+03   -0.27870E+04   -0.26627E+04   768   0.280E+02
DAV:   3    -0.702201208910E+03   -0.46373E+03   -0.46026E+03   768   0.120E+02
DAV:   4    -0.718908849822E+03   -0.16708E+02   -0.16573E+02   768   0.282E+01
DAV:   5    -0.719452913320E+03   -0.54406E+00   -0.54239E+00   768   0.426E+00
SDA:   6    -0.551291236428E+03    0.16816E+03   -0.54239E+00   768   0.495E+03 0.000E+00
CGA:   7    -0.604880946300E+03   -0.53590E+02   -0.25973E+02   768   0.328E+03 0.466E+03
CGA:   8    -0.639109407985E+03   -0.34228E+02   -0.15291E+02   768   0.143E+03 0.262E+03
CGA:   9    -0.651281978696E+03   -0.12173E+02   -0.75624E+01   768   0.362E+02 0.351E+02
CGA:  10    -0.658357495559E+03   -0.70755E+01   -0.70564E+01   768   0.262E+02-0.388E+00
CGA:  11    -0.660282355199E+03   -0.19249E+01   -0.17878E+01   768   0.647E+01 0.183E+01
CGA:  12    -0.660998536670E+03   -0.71618E+00   -0.71101E+00   768   0.681E+01-0.159E-01
CGA:  13    -0.661644790691E+03   -0.64625E+00   -0.46579E+00   768   0.351E+01 0.255E+01
CGA:  14    -0.661858167278E+03   -0.21338E+00   -0.16018E+00   768   0.113E+01 0.129E+01
CGA:  15    -0.661954220873E+03   -0.96054E-01   -0.91825E-01   768   0.159E+01 0.519E-01
CGA:  16    -0.662050307681E+03   -0.96087E-01   -0.78383E-01   768   0.221E+01 0.352E+00
CGA:  17    -0.662133917152E+03   -0.83609E-01   -0.57768E-01   768   0.146E+01 0.113E+01
CGA:  18    -0.662225429195E+03   -0.91512E-01   -0.10443E+00   768   0.389E+00-0.711E-01
CGA:  19    -0.662324565099E+03   -0.99136E-01   -0.92505E-01   768   0.152E+00 0.490E-01
CGA:  20    -0.662366752115E+03   -0.42187E-01   -0.40441E-01   768   0.218E+00 0.147E-01
CGA:  21    -0.662404665129E+03   -0.37913E-01   -0.40732E-01   768   0.129E+00-0.959E-01
CGA:  22    -0.662414070702E+03   -0.94056E-02   -0.92724E-02   768   0.110E+00-0.218E-02
CGA:  23    -0.662427137565E+03   -0.13067E-01   -0.13351E-01   768   0.803E-01 0.298E-02
CGA:  24    -0.662434471537E+03   -0.73340E-02   -0.74653E-02   768   0.337E-01 0.941E-03
CGA:  25    -0.662440175429E+03   -0.57039E-02   -0.55079E-02   768   0.251E-01 0.651E-02
CGA:  26    -0.662444195674E+03   -0.40202E-02   -0.40689E-02   768   0.134E-01 0.246E-02
CGA:  27    -0.662447779097E+03   -0.35834E-02   -0.34503E-02   768   0.108E-01 0.125E-02
CGA:  28    -0.662450770619E+03   -0.29915E-02   -0.28536E-02   768   0.723E-02 0.119E-02
CGA:  29    -0.662452159806E+03   -0.13892E-02   -0.13898E-02   768   0.371E-02 0.611E-05
CGA:  30    -0.662452922177E+03   -0.76237E-03   -0.75692E-03   768   0.178E-02 0.670E-04
CGA:  31    -0.662453319348E+03   -0.39717E-03   -0.39945E-03   768   0.136E-02-0.266E-04
CGA:  32    -0.662453575280E+03   -0.25593E-03   -0.25553E-03   768   0.561E-03 0.189E-05
CGA:  33    -0.662453718309E+03   -0.14303E-03   -0.14459E-03   768   0.538E-03-0.142E-04
CGA:  34    -0.662453812762E+03   -0.94453E-04   -0.94479E-04   768   0.209E-03-0.487E-05
   1 F= -.66899021E+03 E0= -.66896722E+03  d E =-.668990E+03  mag=     1.5983
       N       E                     dE             d eps       ncg     rms          ort
SDA:   1    -0.661344840937E+03    0.11089E+01    0.00000E+00   768   0.364E+01 0.000E+00
CGA:   2    -0.661879052974E+03   -0.53421E+00   -0.53480E+00   768   0.160E+01 0.104E-01
CGA:   3    -0.662187604996E+03   -0.30855E+00   -0.30902E+00   768   0.100E+01-0.160E-01
CGA:   4    -0.662362019265E+03   -0.17441E+00   -0.17437E+00   768   0.355E+00 0.777E-02
CGA:   5    -0.662424574462E+03   -0.62555E-01   -0.62559E-01   768   0.124E+00-0.969E-03
CGA:   6    -0.662447496912E+03   -0.22922E-01   -0.22908E-01   768   0.554E-01 0.656E-03
CGA:   7    -0.662457577200E+03   -0.10080E-01   -0.10083E-01   768   0.295E-01-0.231E-03
CGA:   8    -0.662462497760E+03   -0.49206E-02   -0.49213E-02   768   0.110E-01 0.694E-04
CGA:   9    -0.662464666382E+03   -0.21686E-02   -0.21691E-02   768   0.361E-02-0.798E-05
CGA:  10    -0.662465344598E+03   -0.67822E-03   -0.67802E-03   768   0.142E-02 0.135E-04
CGA:  11    -0.662465568602E+03   -0.22400E-03   -0.22401E-03   768   0.568E-03 0.973E-06
CGA:  12    -0.662465676067E+03   -0.10746E-03   -0.10745E-03   768   0.186E-03 0.114E-05
CGA:  13    -0.662465715101E+03   -0.39034E-04   -0.39088E-04   768   0.107E-03-0.158E-05
   2 F= -.66900177E+03 E0= -.66897974E+03  d E =-.115661E-01  mag=     1.5797
       N       E                     dE             d eps       ncg     rms          ort
SDA:   1    -0.662318804662E+03    0.14687E+00    0.00000E+00   768   0.495E+00 0.000E+00
CGA:   2    -0.662392422223E+03   -0.73618E-01   -0.73603E-01   768   0.218E+00-0.413E-03
CGA:   3    -0.662434498443E+03   -0.42076E-01   -0.42068E-01   768   0.131E+00 0.207E-03
CGA:   4    -0.662457889030E+03   -0.23391E-01   -0.23392E-01   768   0.495E-01-0.420E-03
CGA:   5    -0.662466363424E+03   -0.84744E-02   -0.84746E-02   768   0.166E-01 0.702E-05
CGA:   6    -0.662469499464E+03   -0.31360E-02   -0.31367E-02   768   0.775E-02-0.260E-04
CGA:   7    -0.662470860507E+03   -0.13610E-02   -0.13611E-02   768   0.404E-02 0.127E-04
CGA:   8    -0.662471523406E+03   -0.66290E-03   -0.66274E-03   768   0.155E-02-0.927E-05
CGA:   9    -0.662471823352E+03   -0.29995E-03   -0.30004E-03   768   0.499E-03-0.565E-05
CGA:  10    -0.662471918608E+03   -0.95256E-04   -0.95329E-04   768   0.195E-03-0.474E-05
   3 F= -.66900811E+03 E0= -.66898572E+03  d E =-.179017E-01  mag=     1.5856
       N       E                     dE             d eps       ncg     rms          ort
SDA:   1    -0.662104892181E+03    0.36693E+00    0.00000E+00   768   0.137E+01 0.000E+00
CGA:   2    -0.662285362253E+03   -0.18047E+00   -0.18075E+00   768   0.506E+00 0.175E-02
CGA:   3    -0.662384465024E+03   -0.99103E-01   -0.99238E-01   768   0.353E+00-0.428E-02
CGA:   4    -0.662450450497E+03   -0.65985E-01   -0.65927E-01   768   0.152E+00 0.261E-02
CGA:   5    -0.662478286434E+03   -0.27836E-01   -0.27842E-01   768   0.552E-01-0.468E-03
CGA:   6    -0.662487660001E+03   -0.93736E-02   -0.93754E-02   768   0.215E-01 0.162E-03
CGA:   7    -0.662491287312E+03   -0.36273E-02   -0.36268E-02   768   0.102E-01-0.313E-04
CGA:   8    -0.662493028753E+03   -0.17414E-02   -0.17416E-02   768   0.377E-02 0.196E-04
CGA:   9    -0.662493754437E+03   -0.72568E-03   -0.72566E-03   768   0.124E-02 0.417E-05
CGA:  10    -0.662493972252E+03   -0.21782E-03   -0.21782E-03   768   0.503E-03 0.526E-05
CGA:  11    -0.662494051668E+03   -0.79416E-04   -0.79415E-04   768   0.181E-03 0.563E-07
   4 F= -.66902970E+03 E0= -.66900781E+03  d E =-.215886E-01  mag=     1.5699
       N       E                     dE             d eps       ncg     rms          ort
SDA:   1    -0.659021389585E+03    0.34726E+01    0.00000E+00   768   0.127E+02 0.000E+00
CGA:   2    -0.660635638626E+03   -0.16142E+01   -0.16260E+01   768   0.466E+01 0.124E-01
CGA:   3    -0.661516378386E+03   -0.88074E+00   -0.88425E+00   768   0.341E+01-0.158E+00
CGA:   4    -0.662129989669E+03   -0.61361E+00   -0.61218E+00   768   0.132E+01 0.742E-01
CGA:   5    -0.662388829269E+03   -0.25884E+00   -0.25918E+00   768   0.483E+00-0.118E-01
CGA:   6    -0.662473545036E+03   -0.84716E-01   -0.84708E-01   768   0.176E+00 0.435E-02
CGA:   7    -0.662505709988E+03   -0.32165E-01   -0.32173E-01   768   0.919E-01-0.997E-03
CGA:   8    -0.662520417168E+03   -0.14707E-01   -0.14713E-01   768   0.343E-01 0.203E-03
CGA:   9    -0.662527004762E+03   -0.65876E-02   -0.65905E-02   768   0.109E-01-0.105E-03
CGA:  10    -0.662529085666E+03   -0.20809E-02   -0.20806E-02   768   0.438E-02 0.190E-04
CGA:  11    -0.662529791852E+03   -0.70619E-03   -0.70604E-03   768   0.196E-02-0.479E-05
CGA:  12    -0.662530163585E+03   -0.37173E-03   -0.37178E-03   768   0.753E-03-0.195E-05
CGA:  13    -0.662530341528E+03   -0.17794E-03   -0.17821E-03   768   0.525E-03-0.451E-05
CGA:  14    -0.662530435123E+03   -0.93595E-04   -0.93594E-04   768   0.337E-03-0.117E-05
   5 F= -.66906508E+03 E0= -.66904512E+03  d E =-.569738E-01  mag=     1.5303
       N       E                     dE             d eps       ncg     rms          ort
SDA:   1    -0.662251466767E+03    0.27887E+00    0.00000E+00   768   0.990E+00 0.000E+00
CGA:   2    -0.662382332790E+03   -0.13087E+00   -0.13107E+00   768   0.366E+00 0.712E-03
CGA:   3    -0.662453268662E+03   -0.70936E-01   -0.70992E-01   768   0.257E+00-0.279E-02
CGA:   4    -0.662500578813E+03   -0.47310E-01   -0.47299E-01   768   0.111E+00 0.164E-02
CGA:   5    -0.662520615149E+03   -0.20036E-01   -0.20034E-01   768   0.418E-01-0.294E-03
CGA:   6    -0.662527516195E+03   -0.69010E-02   -0.69045E-02   768   0.162E-01 0.100E-03
CGA:   7    -0.662530194827E+03   -0.26786E-02   -0.26780E-02   768   0.745E-02-0.170E-04
CGA:   8    -0.662531512185E+03   -0.13174E-02   -0.13174E-02   768   0.285E-02 0.147E-04
CGA:   9    -0.662532054870E+03   -0.54269E-03   -0.54268E-03   768   0.104E-02 0.226E-05
CGA:  10    -0.662532225758E+03   -0.17089E-03   -0.17095E-03   768   0.414E-03 0.400E-05
CGA:  11    -0.662532295365E+03   -0.69606E-04   -0.69609E-04   768   0.154E-03 0.289E-06
   6 F= -.66906695E+03 E0= -.66904754E+03  d E =-.588422E-01  mag=     1.5221
       N       E                     dE             d eps       ncg     rms          ort
SDA:   1    -0.662129852571E+03    0.40237E+00    0.00000E+00   768   0.145E+01 0.000E+00
CGA:   2    -0.662323971517E+03   -0.19412E+00   -0.19451E+00   768   0.595E+00 0.112E-02
CGA:   3    -0.662435150441E+03   -0.11118E+00   -0.11126E+00   768   0.402E+00-0.565E-02
CGA:   4    -0.662506786754E+03   -0.71636E-01   -0.71630E-01   768   0.156E+00 0.280E-02
CGA:   5    -0.662534276801E+03   -0.27490E-01   -0.27488E-01   768   0.551E-01-0.314E-03
CGA:   6    -0.662543740728E+03   -0.94639E-02   -0.94661E-02   768   0.240E-01 0.197E-03
CGA:   7    -0.662547859176E+03   -0.41184E-02   -0.41179E-02   768   0.118E-01-0.315E-04
CGA:   8    -0.662549943591E+03   -0.20844E-02   -0.20845E-02   768   0.457E-02 0.279E-04
CGA:   9    -0.662550811478E+03   -0.86789E-03   -0.86794E-03   768   0.162E-02-0.728E-06
CGA:  10    -0.662551072483E+03   -0.26101E-03   -0.26108E-03   768   0.635E-03 0.435E-05
CGA:  11    -0.662551178092E+03   -0.10561E-03   -0.10561E-03   768   0.222E-03 0.234E-06
CGA:  12    -0.662551222243E+03   -0.44151E-04   -0.44139E-04   768   0.983E-04 0.614E-06
   7 F= -.66908620E+03 E0= -.66906640E+03  d E =-.192444E-01  mag=     1.5218
       N       E                     dE             d eps       ncg     rms          ort
SDA:   1    -0.658775356467E+03    0.37758E+01    0.00000E+00   768   0.136E+02 0.000E+00
CGA:   2    -0.660489170184E+03   -0.17138E+01   -0.17264E+01   768   0.561E+01-0.151E-01
CGA:   3    -0.661483378098E+03   -0.99421E+00   -0.99459E+00   768   0.386E+01-0.142E+00
CGA:   4    -0.662171096714E+03   -0.68772E+00   -0.68673E+00   768   0.134E+01 0.871E-01
CGA:   5    -0.662428864396E+03   -0.25777E+00   -0.25791E+00   768   0.478E+00-0.588E-02
CGA:   6    -0.662515202890E+03   -0.86338E-01   -0.86295E-01   768   0.203E+00 0.566E-02
CGA:   7    -0.662550563424E+03   -0.35361E-01   -0.35351E-01   768   0.114E+00-0.967E-03
CGA:   8    -0.662568795048E+03   -0.18232E-01   -0.18238E-01   768   0.420E-01 0.259E-03
CGA:   9    -0.662577185713E+03   -0.83907E-02   -0.83966E-02   768   0.132E-01-0.164E-03
CGA:  10    -0.662579523321E+03   -0.23376E-02   -0.23376E-02   768   0.587E-02 0.197E-04
CGA:  11    -0.662580383699E+03   -0.86038E-03   -0.86009E-03   768   0.221E-02-0.399E-05
CGA:  12    -0.662580823783E+03   -0.44008E-03   -0.44011E-03   768   0.806E-03 0.109E-06
CGA:  13    -0.662580991430E+03   -0.16765E-03   -0.16774E-03   768   0.588E-03-0.309E-05
CGA:  14    -0.662581085782E+03   -0.94352E-04   -0.94322E-04   768   0.283E-03-0.788E-06
   8 F= -.66911789E+03 E0= -.66909561E+03  d E =-.509409E-01  mag=     1.5554
       N       E                     dE             d eps       ncg     rms          ort
SDA:   1    -0.662359081539E+03    0.22191E+00    0.00000E+00   768   0.773E+00 0.000E+00
CGA:   2    -0.662461890248E+03   -0.10281E+00   -0.10294E+00   768   0.320E+00 0.169E-03
CGA:   3    -0.662519013654E+03   -0.57123E-01   -0.57118E-01   768   0.220E+00-0.188E-02
CGA:   4    -0.662558064551E+03   -0.39051E-01   -0.39053E-01   768   0.870E-01 0.112E-02
CGA:   5    -0.662572944338E+03   -0.14880E-01   -0.14877E-01   768   0.319E-01-0.111E-03
CGA:   6    -0.662578183312E+03   -0.52390E-02   -0.52412E-02   768   0.138E-01 0.786E-04
CGA:   7    -0.662580433725E+03   -0.22504E-02   -0.22500E-02   768   0.657E-02-0.625E-05
CGA:   8    -0.662581609738E+03   -0.11760E-02   -0.11760E-02   768   0.275E-02 0.147E-04
CGA:   9    -0.662582117418E+03   -0.50768E-03   -0.50769E-03   768   0.110E-02-0.315E-06
CGA:  10    -0.662582281734E+03   -0.16432E-03   -0.16439E-03   768   0.404E-03 0.269E-05
CGA:  11    -0.662582351085E+03   -0.69351E-04   -0.69352E-04   768   0.148E-03 0.302E-06
   9 F= -.66911972E+03 E0= -.66909652E+03  d E =-.527732E-01  mag=     1.5724
       N       E                     dE             d eps       ncg     rms          ort
SDA:   1    -0.662356349182E+03    0.22593E+00    0.00000E+00   768   0.728E+00 0.000E+00
CGA:   2    -0.662474888936E+03   -0.11854E+00   -0.11842E+00   768   0.596E+00-0.363E-02
CGA:   3    -0.662561320678E+03   -0.86432E-01   -0.86527E-01   768   0.202E+00 0.880E-03
CGA:   4    -0.662598370605E+03   -0.37050E-01   -0.37046E-01   768   0.462E-01 0.301E-03
CGA:   5    -0.662606139986E+03   -0.77694E-02   -0.77695E-02   768   0.138E-01 0.222E-04
CGA:   6    -0.662608774759E+03   -0.26348E-02   -0.26343E-02   768   0.543E-02 0.304E-04
CGA:   7    -0.662609786918E+03   -0.10122E-02   -0.10121E-02   768   0.316E-02 0.824E-05
CGA:   8    -0.662610282615E+03   -0.49570E-03   -0.49573E-03   768   0.166E-02 0.255E-05
CGA:   9    -0.662610596185E+03   -0.31357E-03   -0.31362E-03   768   0.613E-03-0.344E-05
CGA:  10    -0.662610735747E+03   -0.13956E-03   -0.13947E-03   768   0.287E-03 0.169E-05
CGA:  11    -0.662610780891E+03   -0.45145E-04   -0.45147E-04   768   0.153E-03 0.115E-06
  10 F= -.66914948E+03 E0= -.66912496E+03  d E =-.297520E-01  mag=     1.6010
       N       E                     dE             d eps       ncg     rms          ort
SDA:   1    -0.660381935747E+03    0.22288E+01    0.00000E+00   768   0.659E+01 0.000E+00
CGA:   2    -0.661412693742E+03   -0.10308E+01   -0.10290E+01   768   0.550E+01-0.423E-01
CGA:   3    -0.662211743991E+03   -0.79905E+00   -0.80070E+00   768   0.182E+01 0.169E-01
CGA:   4    -0.662543988049E+03   -0.33224E+00   -0.33213E+00   768   0.423E+00 0.102E-01
CGA:   5    -0.662615964335E+03   -0.71976E-01   -0.71983E-01   768   0.131E+00 0.842E-03
CGA:   6    -0.662641121922E+03   -0.25158E-01   -0.25160E-01   768   0.521E-01 0.143E-04
CGA:   7    -0.662651086116E+03   -0.99642E-02   -0.99648E-02   768   0.312E-01 0.374E-04
CGA:   8    -0.662655769677E+03   -0.46836E-02   -0.46835E-02   768   0.169E-01 0.861E-05
CGA:   9    -0.662658882181E+03   -0.31125E-02   -0.31121E-02   768   0.584E-02 0.286E-04
CGA:  10    -0.662660289504E+03   -0.14073E-02   -0.14077E-02   768   0.240E-02-0.594E-05
CGA:  11    -0.662660708620E+03   -0.41912E-03   -0.41913E-03   768   0.144E-02 0.360E-05
CGA:  12    -0.662660904937E+03   -0.19632E-03   -0.19628E-03   768   0.444E-03-0.835E-06
CGA:  13    -0.662661009115E+03   -0.10418E-03   -0.10414E-03   768   0.179E-03 0.676E-06
CGA:  14    -0.662661044346E+03   -0.35231E-04   -0.35240E-04   768   0.156E-03-0.547E-06
  11 F= -.66920381E+03 E0= -.66917473E+03  d E =-.840853E-01  mag=     1.7204
       N       E                     dE             d eps       ncg     rms          ort
SDA:   1    -0.662188861641E+03    0.47215E+00    0.00000E+00   768   0.139E+01 0.000E+00
CGA:   2    -0.662403170334E+03   -0.21431E+00   -0.21427E+00   768   0.112E+01-0.132E-02
CGA:   3    -0.662569481334E+03   -0.16631E+00   -0.16642E+00   768   0.388E+00 0.119E-02
CGA:   4    -0.662641315236E+03   -0.71834E-01   -0.71820E-01   768   0.846E-01 0.957E-03
CGA:   5    -0.662655793412E+03   -0.14478E-01   -0.14478E-01   768   0.268E-01 0.357E-04
CGA:   6    -0.662660781442E+03   -0.49880E-02   -0.49876E-02   768   0.105E-01 0.503E-04
CGA:   7    -0.662662657911E+03   -0.18765E-02   -0.18765E-02   768   0.657E-02 0.115E-04
CGA:   8    -0.662663658023E+03   -0.10001E-02   -0.10004E-02   768   0.321E-02 0.745E-05
CGA:   9    -0.662664304311E+03   -0.64629E-03   -0.64644E-03   768   0.123E-02-0.498E-05
CGA:  10    -0.662664574993E+03   -0.27068E-03   -0.27056E-03   768   0.637E-03 0.256E-05
CGA:  11    -0.662664665198E+03   -0.90205E-04   -0.90202E-04   768   0.305E-03 0.754E-07
  12 F= -.66920930E+03 E0= -.66917806E+03  d E =-.895763E-01  mag=     1.7891
       N       E                     dE             d eps       ncg     rms          ort
SDA:   1    -0.662453463883E+03    0.21111E+00    0.00000E+00   768   0.622E+00 0.000E+00
CGA:   2    -0.662567661563E+03   -0.11420E+00   -0.11419E+00   768   0.597E+00 0.842E-03
CGA:   3    -0.662647683774E+03   -0.80022E-01   -0.80149E-01   768   0.169E+00 0.534E-03
CGA:   4    -0.662678147129E+03   -0.30463E-01   -0.30461E-01   768   0.285E-01 0.261E-03
CGA:   5    -0.662683465530E+03   -0.53184E-02   -0.53181E-02   768   0.108E-01 0.287E-04
CGA:   6    -0.662685300837E+03   -0.18353E-02   -0.18354E-02   768   0.416E-02 0.112E-04
CGA:   7    -0.662685974240E+03   -0.67340E-03   -0.67339E-03   768   0.230E-02-0.163E-05
CGA:   8    -0.662686327060E+03   -0.35282E-03   -0.35277E-03   768   0.988E-03-0.296E-05
CGA:   9    -0.662686546710E+03   -0.21965E-03   -0.21982E-03   768   0.447E-03-0.352E-05
CGA:  10    -0.662686640726E+03   -0.94016E-04   -0.93947E-04   768   0.287E-03 0.197E-05
  13 F= -.66923238E+03 E0= -.66920131E+03  d E =-.230743E-01  mag=     1.7811
       N       E                     dE             d eps       ncg     rms          ort
SDA:   1    -0.660872392014E+03    0.18142E+01    0.00000E+00   768   0.490E+01 0.000E+00
CGA:   2    -0.661779472769E+03   -0.90708E+00   -0.90627E+00   768   0.460E+01 0.515E-01
CGA:   3    -0.662412867828E+03   -0.63340E+00   -0.63387E+00   768   0.130E+01 0.311E-02
CGA:   4    -0.662646499810E+03   -0.23363E+00   -0.23359E+00   768   0.223E+00 0.564E-02
CGA:   5    -0.662687499500E+03   -0.41000E-01   -0.41001E-01   768   0.928E-01-0.345E-04
CGA:   6    -0.662702481644E+03   -0.14982E-01   -0.14983E-01   768   0.379E-01 0.113E-03
CGA:   7    -0.662708297475E+03   -0.58158E-02   -0.58174E-02   768   0.191E-01 0.305E-04
CGA:   8    -0.662711620722E+03   -0.33232E-02   -0.33232E-02   768   0.790E-02 0.163E-04
CGA:   9    -0.662713429042E+03   -0.18083E-02   -0.18086E-02   768   0.406E-02-0.680E-05
CGA:  10    -0.662714151550E+03   -0.72251E-03   -0.72250E-03   768   0.254E-02 0.599E-05
CGA:  11    -0.662714559142E+03   -0.40759E-03   -0.40766E-03   768   0.928E-03 0.369E-05
CGA:  12    -0.662714765705E+03   -0.20656E-03   -0.20638E-03   768   0.440E-03 0.432E-05
CGA:  13    -0.662714845983E+03   -0.80278E-04   -0.80275E-04   768   0.332E-03 0.455E-06
  14 F= -.66926368E+03 E0= -.66923397E+03  d E =-.543766E-01  mag=     1.6710
       N       E                     dE             d eps       ncg     rms          ort
SDA:   1    -0.662643247647E+03    0.71518E-01    0.00000E+00   768   0.191E+00 0.000E+00
CGA:   2    -0.662679133976E+03   -0.35886E-01   -0.35882E-01   768   0.177E+00 0.269E-03
CGA:   3    -0.662703226740E+03   -0.24093E-01   -0.24098E-01   768   0.534E-01 0.198E-04
CGA:   4    -0.662712831951E+03   -0.96052E-02   -0.96051E-02   768   0.865E-02-0.164E-04
CGA:   5    -0.662714464867E+03   -0.16329E-02   -0.16327E-02   768   0.347E-02 0.167E-04
CGA:   6    -0.662715029243E+03   -0.56438E-03   -0.56447E-03   768   0.134E-02 0.635E-05
CGA:   7    -0.662715262815E+03   -0.23357E-03   -0.23357E-03   768   0.812E-03-0.949E-06
CGA:   8    -0.662715395195E+03   -0.13238E-03   -0.13235E-03   768   0.412E-03-0.211E-05
CGA:   9    -0.662715499390E+03   -0.10419E-03   -0.10435E-03   768   0.240E-03-0.209E-05
CGA:  10    -0.662715554348E+03   -0.54958E-04   -0.54900E-04   768   0.209E-03 0.125E-05
  15 F= -.66926500E+03 E0= -.66923623E+03  d E =-.556964E-01  mag=     1.6104
       N       E                     dE             d eps       ncg     rms          ort
SDA:   1    -0.662341211981E+03    0.37429E+00    0.00000E+00   768   0.103E+01 0.000E+00
CGA:   2    -0.662537924835E+03   -0.19671E+00   -0.19665E+00   768   0.879E+00 0.355E-02
CGA:   3    -0.662662774248E+03   -0.12485E+00   -0.12485E+00   768   0.340E+00-0.450E-03
CGA:   4    -0.662720210569E+03   -0.57436E-01   -0.57446E-01   768   0.679E-01 0.432E-03
CGA:   5    -0.662732428386E+03   -0.12218E-01   -0.12218E-01   768   0.262E-01-0.211E-04
CGA:   6    -0.662736931334E+03   -0.45029E-02   -0.45035E-02   768   0.120E-01 0.520E-04
CGA:   7    -0.662738849402E+03   -0.19181E-02   -0.19181E-02   768   0.658E-02 0.413E-05
CGA:   8    -0.662740090336E+03   -0.12409E-02   -0.12409E-02   768   0.297E-02 0.346E-05
CGA:   9    -0.662740724754E+03   -0.63442E-03   -0.63472E-03   768   0.139E-02-0.853E-05
CGA:  10    -0.662740968055E+03   -0.24330E-03   -0.24330E-03   768   0.785E-03 0.251E-06
CGA:  11    -0.662741095957E+03   -0.12790E-03   -0.12790E-03   768   0.292E-03 0.562E-07
CGA:  12    -0.662741166459E+03   -0.70503E-04   -0.70422E-04   768   0.180E-03 0.143E-05
  16 F= -.66929204E+03 E0= -.66926503E+03  d E =-.270449E-01  mag=     1.5388
       N       E                     dE             d eps       ncg     rms          ort
SDA:   1    -0.662274453556E+03    0.46664E+00    0.00000E+00   768   0.122E+01 0.000E+00
CGA:   2    -0.662510482708E+03   -0.23603E+00   -0.23593E+00   768   0.103E+01 0.497E-02
CGA:   3    -0.662658238788E+03   -0.14776E+00   -0.14775E+00   768   0.398E+00-0.595E-03
CGA:   4    -0.662725425741E+03   -0.67187E-01   -0.67201E-01   768   0.784E-01 0.512E-03
CGA:   5    -0.662739880655E+03   -0.14455E-01   -0.14455E-01   768   0.299E-01-0.320E-04
CGA:   6    -0.662745023560E+03   -0.51429E-02   -0.51437E-02   768   0.136E-01 0.606E-04
CGA:   7    -0.662747266216E+03   -0.22427E-02   -0.22426E-02   768   0.749E-02 0.340E-05
CGA:   8    -0.662748690727E+03   -0.14245E-02   -0.14244E-02   768   0.348E-02 0.513E-05
CGA:   9    -0.662749421939E+03   -0.73121E-03   -0.73146E-03   768   0.157E-02-0.843E-05
CGA:  10    -0.662749708944E+03   -0.28701E-03   -0.28700E-03   768   0.878E-03 0.465E-06
CGA:  11    -0.662749850206E+03   -0.14126E-03   -0.14127E-03   768   0.334E-03 0.152E-06
CGA:  12    -0.662749930860E+03   -0.80654E-04   -0.80582E-04   768   0.198E-03 0.134E-05
  17 F= -.66930233E+03 E0= -.66927768E+03  d E =-.373347E-01  mag=     1.4686
       N       E                     dE             d eps       ncg     rms          ort
SDA:   1    -0.662047465970E+03    0.70238E+00    0.00000E+00   768   0.187E+01 0.000E+00
CGA:   2    -0.662427772488E+03   -0.38031E+00   -0.38009E+00   768   0.127E+01 0.546E-02
CGA:   3    -0.662638190173E+03   -0.21042E+00   -0.21007E+00   768   0.661E+00-0.826E-02
CGA:   4    -0.662732445180E+03   -0.94255E-01   -0.94377E-01   768   0.150E+00 0.240E-03
CGA:   5    -0.662758775045E+03   -0.26330E-01   -0.26323E-01   768   0.582E-01-0.398E-03
CGA:   6    -0.662769073543E+03   -0.10298E-01   -0.10300E-01   768   0.284E-01 0.131E-03
CGA:   7    -0.662773906657E+03   -0.48331E-02   -0.48317E-02   768   0.148E-01-0.522E-04
CGA:   8    -0.662776649976E+03   -0.27433E-02   -0.27432E-02   768   0.631E-02 0.148E-04
CGA:   9    -0.662777867169E+03   -0.12172E-02   -0.12174E-02   768   0.279E-02-0.152E-04
CGA:  10    -0.662778336707E+03   -0.46954E-03   -0.46959E-03   768   0.126E-02 0.260E-05
CGA:  11    -0.662778551548E+03   -0.21484E-03   -0.21486E-03   768   0.459E-03 0.155E-05
CGA:  12    -0.662778648201E+03   -0.96653E-04   -0.96589E-04   768   0.264E-03 0.237E-05
  18 F= -.66933209E+03 E0= -.66931044E+03  d E =-.297610E-01  mag=     1.3766
       N       E                     dE             d eps       ncg     rms          ort
SDA:   1    -0.658487408435E+03    0.42911E+01    0.00000E+00   768   0.111E+02 0.000E+00
CGA:   2    -0.660731587700E+03   -0.22442E+01   -0.22410E+01   768   0.743E+01 0.705E-01
CGA:   3    -0.661983272096E+03   -0.12517E+01   -0.12475E+01   768   0.396E+01-0.132E+00
CGA:   4    -0.662536776991E+03   -0.55350E+00   -0.55522E+00   768   0.868E+00 0.373E-02
CGA:   5    -0.662692889524E+03   -0.15611E+00   -0.15610E+00   768   0.338E+00-0.626E-02
CGA:   6    -0.662753255787E+03   -0.60366E-01   -0.60368E-01   768   0.169E+00 0.163E-02
CGA:   7    -0.662781663448E+03   -0.28408E-01   -0.28384E-01   768   0.883E-01-0.814E-03
CGA:   8    -0.662797660953E+03   -0.15998E-01   -0.15996E-01   768   0.366E-01 0.307E-03
CGA:   9    -0.662804897916E+03   -0.72370E-02   -0.72393E-02   768   0.153E-01-0.995E-04
CGA:  10    -0.662807497519E+03   -0.25996E-02   -0.26002E-02   768   0.730E-02 0.283E-04
CGA:  11    -0.662808679607E+03   -0.11821E-02   -0.11820E-02   768   0.239E-02-0.454E-06
CGA:  12    -0.662809189265E+03   -0.50966E-03   -0.50953E-03   768   0.125E-02 0.497E-05
CGA:  13    -0.662809407188E+03   -0.21792E-03   -0.21794E-03   768   0.762E-03 0.169E-05
CGA:  14    -0.662809575435E+03   -0.16825E-03   -0.16823E-03   768   0.484E-03 0.132E-05
CGA:  15    -0.662809699841E+03   -0.12441E-03   -0.12427E-03   768   0.460E-03 0.142E-05
CGA:  16    -0.662809793789E+03   -0.93948E-04   -0.93952E-04   768   0.324E-03 0.792E-06
  19 F= -.66936550E+03 E0= -.66935181E+03  d E =-.631668E-01  mag=     1.1822
       N       E                     dE             d eps       ncg     rms          ort
SDA:   1    -0.661955892694E+03    0.85381E+00    0.00000E+00   768   0.226E+01 0.000E+00
CGA:   2    -0.662457917702E+03   -0.50203E+00   -0.50184E+00   768   0.143E+01 0.260E-02
CGA:   3    -0.662704943194E+03   -0.24703E+00   -0.24665E+00   768   0.692E+00-0.915E-02
CGA:   4    -0.662800475873E+03   -0.95533E-01   -0.95739E-01   768   0.181E+00 0.539E-05
CGA:   5    -0.662830953944E+03   -0.30478E-01   -0.30453E-01   768   0.751E-01-0.555E-03
CGA:   6    -0.662842979697E+03   -0.12026E-01   -0.12030E-01   768   0.363E-01 0.494E-04
CGA:   7    -0.662849043875E+03   -0.60642E-02   -0.60595E-02   768   0.170E-01-0.104E-03
CGA:   8    -0.662852383726E+03   -0.33399E-02   -0.33395E-02   768   0.814E-02 0.148E-04
CGA:   9    -0.662853835863E+03   -0.14521E-02   -0.14519E-02   768   0.393E-02-0.183E-04
CGA:  10    -0.662854441270E+03   -0.60541E-03   -0.60557E-03   768   0.148E-02 0.364E-05
CGA:  11    -0.662854704466E+03   -0.26320E-03   -0.26320E-03   768   0.539E-03 0.110E-05
CGA:  12    -0.662854797386E+03   -0.92920E-04   -0.92944E-04   768   0.277E-03 0.227E-05
  20 F= -.66941090E+03 E0= -.66939664E+03  d E =-.453995E-01  mag=     1.1624
       N       E                     dE             d eps       ncg     rms          ort
SDA:   1    -0.661412830377E+03    0.14419E+01    0.00000E+00   768   0.368E+01 0.000E+00
CGA:   2    -0.662229688450E+03   -0.81686E+00   -0.81635E+00   768   0.234E+01 0.640E-02
CGA:   3    -0.662630085855E+03   -0.40040E+00   -0.39990E+00   768   0.116E+01-0.192E-01
CGA:   4    -0.662787015544E+03   -0.15693E+00   -0.15734E+00   768   0.308E+00 0.421E-03
CGA:   5    -0.662836435212E+03   -0.49420E-01   -0.49367E-01   768   0.134E+00-0.112E-02
CGA:   6    -0.662856606300E+03   -0.20171E-01   -0.20178E-01   768   0.615E-01 0.589E-04
CGA:   7    -0.662867402519E+03   -0.10796E-01   -0.10795E-01   768   0.288E-01-0.265E-03
CGA:   8    -0.662872893073E+03   -0.54906E-02   -0.54897E-02   768   0.153E-01 0.375E-04
CGA:   9    -0.662875371620E+03   -0.24785E-02   -0.24776E-02   768   0.725E-02-0.298E-04
CGA:  10    -0.662876533133E+03   -0.11615E-02   -0.11617E-02   768   0.260E-02 0.710E-05
CGA:  11    -0.662876994037E+03   -0.46090E-03   -0.46090E-03   768   0.112E-02 0.161E-06
CGA:  12    -0.662877162942E+03   -0.16891E-03   -0.16899E-03   768   0.502E-03 0.320E-05
CGA:  13    -0.662877254637E+03   -0.91694E-04   -0.91691E-04   768   0.231E-03 0.441E-06
  21 F= -.66943364E+03 E0= -.66941811E+03  d E =-.681412E-01  mag=     1.1390
       N       E                     dE             d eps       ncg     rms          ort
SDA:   1    -0.662395697867E+03    0.48147E+00    0.00000E+00   768   0.126E+01 0.000E+00
CGA:   2    -0.662668547070E+03   -0.27285E+00   -0.27280E+00   768   0.809E+00 0.553E-03
CGA:   3    -0.662814135373E+03   -0.14559E+00   -0.14559E+00   768   0.432E+00-0.406E-02
CGA:   4    -0.662873793567E+03   -0.59658E-01   -0.59730E-01   768   0.111E+00 0.198E-03
CGA:   5    -0.662891093384E+03   -0.17300E-01   -0.17289E-01   768   0.485E-01-0.192E-03
CGA:   6    -0.662897929136E+03   -0.68358E-02   -0.68398E-02   768   0.228E-01 0.370E-04
CGA:   7    -0.662902110512E+03   -0.41814E-02   -0.41822E-02   768   0.108E-01-0.539E-04
CGA:   8    -0.662904221993E+03   -0.21115E-02   -0.21112E-02   768   0.574E-02 0.107E-04
CGA:   9    -0.662905138260E+03   -0.91627E-03   -0.91606E-03   768   0.293E-02-0.777E-05
CGA:  10    -0.662905584619E+03   -0.44636E-03   -0.44642E-03   768   0.973E-03 0.130E-05
CGA:  11    -0.662905771599E+03   -0.18698E-03   -0.18700E-03   768   0.441E-03-0.871E-06
CGA:  12    -0.662905836783E+03   -0.65183E-04   -0.65213E-04   768   0.224E-03 0.121E-05
  22 F= -.66946248E+03 E0= -.66944677E+03  d E =-.288419E-01  mag=     1.1126
       N       E                     dE             d eps       ncg     rms          ort
SDA:   1    -0.662616262790E+03    0.28951E+00    0.00000E+00   768   0.734E+00 0.000E+00
CGA:   2    -0.662774167292E+03   -0.15790E+00   -0.15787E+00   768   0.474E+00 0.349E-03
CGA:   3    -0.662857794015E+03   -0.83627E-01   -0.83626E-01   768   0.258E+00-0.211E-02
CGA:   4    -0.662892893237E+03   -0.35099E-01   -0.35132E-01   768   0.686E-01 0.852E-04
CGA:   5    -0.662903015299E+03   -0.10122E-01   -0.10116E-01   768   0.294E-01-0.710E-04
CGA:   6    -0.662907223494E+03   -0.42082E-02   -0.42102E-02   768   0.130E-01 0.271E-04
CGA:   7    -0.662909711368E+03   -0.24879E-02   -0.24886E-02   768   0.647E-02-0.230E-04
CGA:   8    -0.662910904638E+03   -0.11933E-02   -0.11932E-02   768   0.371E-02 0.557E-05
CGA:   9    -0.662911476370E+03   -0.57173E-03   -0.57161E-03   768   0.171E-02-0.439E-05
CGA:  10    -0.662911760951E+03   -0.28458E-03   -0.28459E-03   768   0.619E-03 0.955E-06
CGA:  11    -0.662911872411E+03   -0.11146E-03   -0.11147E-03   768   0.317E-03-0.669E-06
CGA:  12    -0.662911918883E+03   -0.46471E-04   -0.46496E-04   768   0.141E-03 0.104E-05
  23 F= -.66946872E+03 E0= -.66945308E+03  d E =-.350766E-01  mag=     1.0817
       N       E                     dE             d eps       ncg     rms          ort
SDA:   1    -0.662369916303E+03    0.54196E+00    0.00000E+00   768   0.143E+01 0.000E+00
CGA:   2    -0.662680525073E+03   -0.31061E+00   -0.31058E+00   768   0.893E+00 0.336E-03
CGA:   3    -0.662840793640E+03   -0.16027E+00   -0.16028E+00   768   0.462E+00-0.149E-02
CGA:   4    -0.662907396683E+03   -0.66603E-01   -0.66648E-01   768   0.110E+00 0.383E-03
CGA:   5    -0.662926425046E+03   -0.19028E-01   -0.19028E-01   768   0.423E-01-0.140E-03
CGA:   6    -0.662933876830E+03   -0.74518E-02   -0.74514E-02   768   0.263E-01 0.869E-04
CGA:   7    -0.662937676735E+03   -0.37999E-02   -0.37965E-02   768   0.133E-01-0.366E-04
CGA:   8    -0.662940115448E+03   -0.24387E-02   -0.24384E-02   768   0.535E-02 0.179E-04
CGA:   9    -0.662941236627E+03   -0.11212E-02   -0.11214E-02   768   0.223E-02-0.591E-05
CGA:  10    -0.662941580040E+03   -0.34341E-03   -0.34352E-03   768   0.123E-02 0.390E-05
CGA:  11    -0.662941759164E+03   -0.17912E-03   -0.17913E-03   768   0.363E-03 0.457E-06
CGA:  12    -0.662941841385E+03   -0.82221E-04   -0.82130E-04   768   0.192E-03 0.175E-05
  24 F= -.66949866E+03 E0= -.66948535E+03  d E =-.299429E-01  mag=     1.0119
       N       E                     dE             d eps       ncg     rms          ort
SDA:   1    -0.659003859162E+03    0.39379E+01    0.00000E+00   768   0.992E+01 0.000E+00
CGA:   2    -0.661151422979E+03   -0.21476E+01   -0.21459E+01   768   0.619E+01 0.209E-01
CGA:   3    -0.662266478513E+03   -0.11151E+01   -0.11153E+01   768   0.326E+01-0.525E-01
CGA:   4    -0.662725485858E+03   -0.45901E+00   -0.46041E+00   768   0.776E+00 0.728E-02
CGA:   5    -0.662859840047E+03   -0.13435E+00   -0.13433E+00   768   0.309E+00-0.450E-02
CGA:   6    -0.662912433848E+03   -0.52594E-01   -0.52605E-01   768   0.176E+00 0.139E-02
CGA:   7    -0.662940726157E+03   -0.28292E-01   -0.28259E-01   768   0.876E-01-0.996E-03
CGA:   8    -0.662956996230E+03   -0.16270E-01   -0.16263E-01   768   0.358E-01 0.327E-03
CGA:   9    -0.662964346930E+03   -0.73507E-02   -0.73547E-02   768   0.149E-01-0.953E-04
CGA:  10    -0.662966706417E+03   -0.23595E-02   -0.23603E-02   768   0.721E-02 0.237E-04
CGA:  11    -0.662967831360E+03   -0.11249E-02   -0.11247E-02   768   0.222E-02-0.447E-05
CGA:  12    -0.662968305201E+03   -0.47384E-03   -0.47376E-03   768   0.108E-02 0.280E-05
CGA:  13    -0.662968490429E+03   -0.18523E-03   -0.18522E-03   768   0.717E-03-0.143E-05
CGA:  14    -0.662968634080E+03   -0.14365E-03   -0.14366E-03   768   0.397E-03 0.164E-06
CGA:  15    -0.662968743245E+03   -0.10916E-03   -0.10924E-03   768   0.376E-03-0.104E-05
CGA:  16    -0.662968810360E+03   -0.67115E-04   -0.67116E-04   768   0.257E-03 0.913E-06
  25 F= -.66952531E+03 E0= -.66951525E+03  d E =-.565939E-01  mag=     0.9155
       N       E                     dE             d eps       ncg     rms          ort
SDA:   1    -0.661652543508E+03    0.13162E+01    0.00000E+00   768   0.335E+01 0.000E+00
CGA:   2    -0.662447731159E+03   -0.79519E+00   -0.79490E+00   768   0.200E+01 0.464E-02
CGA:   3    -0.662793807108E+03   -0.34608E+00   -0.34621E+00   768   0.929E+00 0.429E-02
CGA:   4    -0.662925257649E+03   -0.13145E+00   -0.13145E+00   768   0.223E+00 0.354E-03
CGA:   5    -0.662965000949E+03   -0.39743E-01   -0.39748E-01   768   0.784E-01 0.365E-03
CGA:   6    -0.662980831384E+03   -0.15830E-01   -0.15835E-01   768   0.366E-01-0.171E-03
CGA:   7    -0.662987457519E+03   -0.66261E-02   -0.66268E-02   768   0.213E-01 0.818E-04
CGA:   8    -0.662990825713E+03   -0.33682E-02   -0.33663E-02   768   0.990E-02-0.290E-04
CGA:   9    -0.662992721767E+03   -0.18961E-02   -0.18958E-02   768   0.341E-02 0.202E-04
CGA:  10    -0.662993457361E+03   -0.73559E-03   -0.73558E-03   768   0.142E-02 0.165E-05
CGA:  11    -0.662993674253E+03   -0.21689E-03   -0.21704E-03   768   0.686E-03 0.424E-05
CGA:  12    -0.662993787223E+03   -0.11297E-03   -0.11297E-03   768   0.202E-03-0.970E-07
CGA:  13    -0.662993834343E+03   -0.47120E-04   -0.47113E-04   768   0.108E-03 0.187E-06
  26 F= -.66954993E+03 E0= -.66954061E+03  d E =-.246160E-01  mag=     0.9106
       N       E                     dE             d eps       ncg     rms          ort
SDA:   1    -0.662933305715E+03    0.60482E-01    0.00000E+00   768   0.157E+00 0.000E+00
CGA:   2    -0.662970183043E+03   -0.36877E-01   -0.36875E-01   768   0.938E-01 0.147E-04
CGA:   3    -0.662986181076E+03   -0.15998E-01   -0.15994E-01   768   0.455E-01-0.103E-03
CGA:   4    -0.662992499331E+03   -0.63183E-02   -0.63194E-02   768   0.109E-01-0.112E-04
CGA:   5    -0.662994357651E+03   -0.18583E-02   -0.18580E-02   768   0.422E-02-0.125E-04
CGA:   6    -0.662995094746E+03   -0.73710E-03   -0.73713E-03   768   0.219E-02 0.206E-05
CGA:   7    -0.662995447266E+03   -0.35252E-03   -0.35250E-03   768   0.101E-02 0.647E-06
CGA:   8    -0.662995643425E+03   -0.19616E-03   -0.19612E-03   768   0.440E-03 0.266E-05
CGA:   9    -0.662995731985E+03   -0.88560E-04   -0.88583E-04   768   0.202E-03-0.114E-05
  27 F= -.66955192E+03 E0= -.66954249E+03  d E =-.266110E-01  mag=     0.9107
       N       E                     dE             d eps       ncg     rms          ort
SDA:   1    -0.662866279524E+03    0.12936E+00    0.00000E+00   768   0.400E+00 0.000E+00
CGA:   2    -0.662947247601E+03   -0.80968E-01   -0.80960E-01   768   0.206E+00 0.183E-03
CGA:   3    -0.662983837418E+03   -0.36590E-01   -0.36585E-01   768   0.113E+00-0.424E-03
CGA:   4    -0.663000665761E+03   -0.16828E-01   -0.16838E-01   768   0.340E-01 0.424E-04
CGA:   5    -0.663006459610E+03   -0.57938E-02   -0.57931E-02   768   0.127E-01-0.281E-04
CGA:   6    -0.663008550311E+03   -0.20907E-02   -0.20912E-02   768   0.602E-02 0.174E-04
CGA:   7    -0.663009568008E+03   -0.10177E-02   -0.10176E-02   768   0.290E-02-0.282E-05
CGA:   8    -0.663010140116E+03   -0.57211E-03   -0.57201E-03   768   0.132E-02 0.379E-05
CGA:   9    -0.663010397258E+03   -0.25714E-03   -0.25717E-03   768   0.604E-03-0.113E-05
CGA:  10    -0.663010493830E+03   -0.96571E-04   -0.96611E-04   768   0.247E-03 0.164E-05
  28 F= -.66956692E+03 E0= -.66955762E+03  d E =-.149985E-01  mag=     0.9082
       N       E                     dE             d eps       ncg     rms          ort
SDA:   1    -0.662930223909E+03    0.80173E-01    0.00000E+00   768   0.232E+00 0.000E+00
CGA:   2    -0.662977046523E+03   -0.46823E-01   -0.46818E-01   768   0.120E+00 0.106E-03
CGA:   3    -0.662998166294E+03   -0.21120E-01   -0.21118E-01   768   0.667E-01-0.222E-03
CGA:   4    -0.663008086281E+03   -0.99200E-02   -0.99239E-02   768   0.198E-01 0.172E-04
CGA:   5    -0.663011403152E+03   -0.33169E-02   -0.33166E-02   768   0.761E-02-0.106E-04
CGA:   6    -0.663012684494E+03   -0.12813E-02   -0.12815E-02   768   0.351E-02 0.103E-04
CGA:   7    -0.663013300041E+03   -0.61555E-03   -0.61554E-03   768   0.173E-02-0.842E-06
CGA:   8    -0.663013636746E+03   -0.33670E-03   -0.33666E-03   768   0.806E-03 0.208E-05
CGA:   9    -0.663013790074E+03   -0.15333E-03   -0.15334E-03   768   0.374E-03-0.652E-06
CGA:  10    -0.663013851866E+03   -0.61792E-04   -0.61809E-04   768   0.151E-03 0.125E-05
  29 F= -.66957043E+03 E0= -.66956122E+03  d E =-.185079E-01  mag=     0.9069
       N       E                     dE             d eps       ncg     rms          ort
SDA:   1    -0.662825486709E+03    0.18830E+00    0.00000E+00   768   0.574E+00 0.000E+00
CGA:   2    -0.662938647610E+03   -0.11316E+00   -0.11315E+00   768   0.285E+00 0.284E-03
CGA:   3    -0.662989200284E+03   -0.50553E-01   -0.50550E-01   768   0.156E+00-0.741E-03
CGA:   4    -0.663012655329E+03   -0.23455E-01   -0.23467E-01   768   0.467E-01 0.651E-04
CGA:   5    -0.663020626946E+03   -0.79716E-02   -0.79707E-02   768   0.178E-01-0.670E-04
CGA:   6    -0.663023655036E+03   -0.30281E-02   -0.30284E-02   768   0.848E-02 0.200E-04
CGA:   7    -0.663025107437E+03   -0.14524E-02   -0.14523E-02   768   0.421E-02-0.117E-04
CGA:   8    -0.663025912931E+03   -0.80549E-03   -0.80541E-03   768   0.180E-02 0.307E-05
CGA:   9    -0.663026264173E+03   -0.35124E-03   -0.35129E-03   768   0.792E-03-0.220E-05
CGA:  10    -0.663026393333E+03   -0.12916E-03   -0.12920E-03   768   0.330E-03 0.226E-05
CGA:  11    -0.663026449280E+03   -0.55947E-04   -0.55950E-04   768   0.112E-03 0.397E-06
  30 F= -.66958307E+03 E0= -.66957364E+03  d E =-.126382E-01  mag=     0.9010
       N       E                     dE             d eps       ncg     rms          ort
SDA:   1    -0.662727072924E+03    0.29932E+00    0.00000E+00   768   0.870E+00 0.000E+00
CGA:   2    -0.662898939273E+03   -0.17187E+00   -0.17184E+00   768   0.430E+00 0.468E-03
CGA:   3    -0.662975623559E+03   -0.76684E-01   -0.76683E-01   768   0.235E+00-0.124E-02
CGA:   4    -0.663010951460E+03   -0.35328E-01   -0.35348E-01   768   0.701E-01 0.111E-03
CGA:   5    -0.663023110828E+03   -0.12159E-01   -0.12158E-01   768   0.258E-01-0.123E-03
CGA:   6    -0.663027639323E+03   -0.45285E-02   -0.45286E-02   768   0.126E-01 0.359E-04
CGA:   7    -0.663029766752E+03   -0.21274E-02   -0.21271E-02   768   0.639E-02-0.191E-04
CGA:   8    -0.663030968146E+03   -0.12014E-02   -0.12013E-02   768   0.268E-02 0.623E-05
CGA:   9    -0.663031503894E+03   -0.53575E-03   -0.53585E-03   768   0.111E-02-0.348E-05
CGA:  10    -0.663031692199E+03   -0.18830E-03   -0.18834E-03   768   0.493E-03 0.285E-05
CGA:  11    -0.663031771573E+03   -0.79374E-04   -0.79379E-04   768   0.166E-03 0.337E-06
  31 F= -.66958839E+03 E0= -.66957870E+03  d E =-.179607E-01  mag=     0.8936
       N       E                     dE             d eps       ncg     rms          ort
SDA:   1    -0.662773967686E+03    0.25772E+00    0.00000E+00   768   0.694E+00 0.000E+00
CGA:   2    -0.662934543393E+03   -0.16058E+00   -0.16055E+00   768   0.388E+00 0.270E-03
CGA:   3    -0.662999551139E+03   -0.65008E-01   -0.64984E-01   768   0.175E+00-0.946E-03
CGA:   4    -0.663024590234E+03   -0.25039E-01   -0.25051E-01   768   0.498E-01-0.127E-04
CGA:   5    -0.663033217623E+03   -0.86274E-02   -0.86267E-02   768   0.175E-01-0.676E-04
CGA:   6    -0.663036237737E+03   -0.30201E-02   -0.30203E-02   768   0.802E-02 0.184E-04
CGA:   7    -0.663037617300E+03   -0.13796E-02   -0.13795E-02   768   0.414E-02-0.665E-05
CGA:   8    -0.663038394217E+03   -0.77692E-03   -0.77685E-03   768   0.187E-02 0.416E-05
CGA:   9    -0.663038781242E+03   -0.38702E-03   -0.38713E-03   768   0.846E-03-0.310E-05
CGA:  10    -0.663038931099E+03   -0.14986E-03   -0.14986E-03   768   0.406E-03 0.956E-06
CGA:  11    -0.663038998500E+03   -0.67401E-04   -0.67389E-04   768   0.151E-03-0.834E-06
  32 F= -.66959584E+03 E0= -.66958626E+03  d E =-.744585E-02  mag=     0.8907
       N       E                     dE             d eps       ncg     rms          ort
SDA:   1    -0.663038719079E+03    0.21202E-03    0.00000E+00   768   0.953E-03 0.000E+00
CGA:   2    -0.663038909784E+03   -0.19071E-03   -0.19070E-03   768   0.671E-03 0.291E-06
CGA:   3    -0.663039006853E+03   -0.97068E-04   -0.97038E-04   768   0.274E-03-0.898E-06
  33 F= -.66959584E+03 E0= -.66958626E+03  d E =-.744686E-02  mag=     0.8907
       N       E                     dE             d eps       ncg     rms          ort
SDA:   1    -0.662827415913E+03    0.21149E+00    0.00000E+00   768   0.590E+00 0.000E+00
CGA:   2    -0.662959499267E+03   -0.13208E+00   -0.13208E+00   768   0.336E+00-0.889E-04
CGA:   3    -0.663013258573E+03   -0.53759E-01   -0.53765E-01   768   0.145E+00 0.626E-04
CGA:   4    -0.663035404211E+03   -0.22146E-01   -0.22141E-01   768   0.426E-01-0.721E-04
CGA:   5    -0.663042991152E+03   -0.75869E-02   -0.75869E-02   768   0.148E-01 0.170E-04
CGA:   6    -0.663045804721E+03   -0.28136E-02   -0.28140E-02   768   0.669E-02-0.226E-04
CGA:   7    -0.663047017219E+03   -0.12125E-02   -0.12125E-02   768   0.389E-02 0.166E-05
CGA:   8    -0.663047660178E+03   -0.64296E-03   -0.64282E-03   768   0.178E-02-0.608E-05
CGA:   9    -0.663048009450E+03   -0.34927E-03   -0.34923E-03   768   0.630E-03 0.184E-05
CGA:  10    -0.663048140216E+03   -0.13077E-03   -0.13077E-03   768   0.266E-03-0.850E-07
CGA:  11    -0.663048180476E+03   -0.40260E-04   -0.40294E-04   768   0.119E-03 0.111E-05
  34 F= -.66960491E+03 E0= -.66959549E+03  d E =-.907000E-02  mag=     0.8922
       N       E                     dE             d eps       ncg     rms          ort
SDA:   1    -0.662716286957E+03    0.33185E+00    0.00000E+00   768   0.896E+00 0.000E+00
CGA:   2    -0.662916438398E+03   -0.20015E+00   -0.20015E+00   768   0.515E+00-0.158E-03
CGA:   3    -0.662999199392E+03   -0.82761E-01   -0.82772E-01   768   0.223E+00 0.118E-03
CGA:   4    -0.663033257693E+03   -0.34058E-01   -0.34049E-01   768   0.654E-01-0.142E-03
CGA:   5    -0.663044875212E+03   -0.11618E-01   -0.11618E-01   768   0.226E-01 0.298E-04
CGA:   6    -0.663049213694E+03   -0.43385E-02   -0.43393E-02   768   0.104E-01-0.409E-04
CGA:   7    -0.663051096991E+03   -0.18833E-02   -0.18833E-02   768   0.601E-02 0.586E-05
CGA:   8    -0.663052090961E+03   -0.99397E-03   -0.99373E-03   768   0.274E-02-0.944E-05
CGA:   9    -0.663052627392E+03   -0.53643E-03   -0.53636E-03   768   0.964E-03 0.297E-05
CGA:  10    -0.663052827526E+03   -0.20013E-03   -0.20015E-03   768   0.404E-03-0.307E-06
CGA:  11    -0.663052889095E+03   -0.61569E-04   -0.61609E-04   768   0.182E-03 0.136E-05
  35 F= -.66960947E+03 E0= -.66960026E+03  d E =-.136280E-01  mag=     0.8946
       N       E                     dE             d eps       ncg     rms          ort
SDA:   1    -0.662783619134E+03    0.26921E+00    0.00000E+00   768   0.748E+00 0.000E+00
CGA:   2    -0.662947022864E+03   -0.16340E+00   -0.16342E+00   768   0.440E+00-0.316E-03
CGA:   3    -0.663016822973E+03   -0.69800E-01   -0.69820E-01   768   0.193E+00 0.307E-03
CGA:   4    -0.663046321774E+03   -0.29499E-01   -0.29489E-01   768   0.558E-01-0.104E-03
CGA:   5    -0.663056334244E+03   -0.10012E-01   -0.10012E-01   768   0.201E-01 0.478E-04
CGA:   6    -0.663059978743E+03   -0.36445E-02   -0.36446E-02   768   0.968E-02-0.338E-04
CGA:   7    -0.663061642336E+03   -0.16636E-02   -0.16637E-02   768   0.527E-02 0.366E-05
CGA:   8    -0.663062579022E+03   -0.93669E-03   -0.93667E-03   768   0.227E-02-0.736E-05
CGA:   9    -0.663063044900E+03   -0.46588E-03   -0.46577E-03   768   0.854E-03 0.335E-05
CGA:  10    -0.663063204630E+03   -0.15973E-03   -0.15974E-03   768   0.401E-03-0.695E-06
CGA:  11    -0.663063264776E+03   -0.60146E-04   -0.60177E-04   768   0.148E-03 0.992E-06
  36 F= -.66961971E+03 E0= -.66961044E+03  d E =-.102463E-01  mag=     0.8931
       N       E                     dE             d eps       ncg     rms          ort
SDA:   1    -0.662510520851E+03    0.55268E+00    0.00000E+00   768   0.149E+01 0.000E+00
CGA:   2    -0.662836951101E+03   -0.32643E+00   -0.32646E+00   768   0.878E+00-0.778E-03
CGA:   3    -0.662976195527E+03   -0.13924E+00   -0.13930E+00   768   0.385E+00 0.768E-03
CGA:   4    -0.663034923205E+03   -0.58728E-01   -0.58699E-01   768   0.111E+00-0.318E-03
CGA:   5    -0.663054870988E+03   -0.19948E-01   -0.19948E-01   768   0.399E-01 0.119E-03
CGA:   6    -0.663062148382E+03   -0.72774E-02   -0.72778E-02   768   0.191E-01-0.891E-04
CGA:   7    -0.663065459218E+03   -0.33108E-02   -0.33111E-02   768   0.105E-01 0.146E-04
CGA:   8    -0.663067306111E+03   -0.18469E-02   -0.18468E-02   768   0.452E-02-0.178E-04
CGA:   9    -0.663068231180E+03   -0.92507E-03   -0.92483E-03   768   0.169E-02 0.696E-05
CGA:  10    -0.663068549377E+03   -0.31820E-03   -0.31821E-03   768   0.783E-03-0.159E-05
CGA:  11    -0.663068667219E+03   -0.11784E-03   -0.11789E-03   768   0.293E-03 0.135E-05
CGA:  12    -0.663068724997E+03   -0.57778E-04   -0.57784E-04   768   0.108E-03-0.332E-06
  37 F= -.66962496E+03 E0= -.66961560E+03  d E =-.154909E-01  mag=     0.8913
       N       E                     dE             d eps       ncg     rms          ort
SDA:   1    -0.662797120137E+03    0.27155E+00    0.00000E+00   768   0.743E+00 0.000E+00
CGA:   2    -0.662962247731E+03   -0.16513E+00   -0.16516E+00   768   0.441E+00-0.428E-03
CGA:   3    -0.663030977721E+03   -0.68730E-01   -0.68773E-01   768   0.192E+00 0.599E-03
CGA:   4    -0.663060047874E+03   -0.29070E-01   -0.29058E-01   768   0.541E-01-0.646E-04
CGA:   5    -0.663069672719E+03   -0.96248E-02   -0.96252E-02   768   0.201E-01 0.667E-04
CGA:   6    -0.663073157760E+03   -0.34850E-02   -0.34847E-02   768   0.975E-02-0.294E-04
CGA:   7    -0.663074842347E+03   -0.16846E-02   -0.16847E-02   768   0.505E-02 0.233E-05
CGA:   8    -0.663075796240E+03   -0.95389E-03   -0.95400E-03   768   0.219E-02-0.792E-05
CGA:   9    -0.663076239164E+03   -0.44292E-03   -0.44282E-03   768   0.893E-03 0.374E-05
CGA:  10    -0.663076394204E+03   -0.15504E-03   -0.15504E-03   768   0.410E-03 0.587E-07
CGA:  11    -0.663076459290E+03   -0.65086E-04   -0.65121E-04   768   0.139E-03 0.150E-05
  38 F= -.66963245E+03 E0= -.66962288E+03  d E =-.749626E-02  mag=     0.8851
       N       E                     dE             d eps       ncg     rms          ort
SDA:   1    -0.662574786084E+03    0.50161E+00    0.00000E+00   768   0.134E+01 0.000E+00
CGA:   2    -0.662874311116E+03   -0.29953E+00   -0.29957E+00   768   0.792E+00-0.704E-03
CGA:   3    -0.662998832512E+03   -0.12452E+00   -0.12459E+00   768   0.345E+00 0.104E-02
CGA:   4    -0.663050964597E+03   -0.52132E-01   -0.52108E-01   768   0.971E-01-0.172E-03
CGA:   5    -0.663068301859E+03   -0.17337E-01   -0.17338E-01   768   0.353E-01 0.126E-03
CGA:   6    -0.663074662079E+03   -0.63602E-02   -0.63602E-02   768   0.171E-01-0.706E-04
CGA:   7    -0.663077613837E+03   -0.29518E-02   -0.29520E-02   768   0.923E-02 0.102E-04
CGA:   8    -0.663079289924E+03   -0.16761E-02   -0.16761E-02   768   0.395E-02-0.156E-04
CGA:   9    -0.663080093793E+03   -0.80387E-03   -0.80366E-03   768   0.152E-02 0.665E-05
CGA:  10    -0.663080372419E+03   -0.27863E-03   -0.27863E-03   768   0.707E-03-0.305E-06
CGA:  11    -0.663080479490E+03   -0.10707E-03   -0.10713E-03   768   0.250E-03 0.188E-05
CGA:  12    -0.663080529891E+03   -0.50400E-04   -0.50402E-04   768   0.955E-04-0.892E-07
  39 F= -.66963619E+03 E0= -.66962635E+03  d E =-.112340E-01  mag=     0.8767
       N       E                     dE             d eps       ncg     rms          ort
SDA:   1    -0.662768838789E+03    0.31164E+00    0.00000E+00   768   0.829E+00 0.000E+00
CGA:   2    -0.662960019564E+03   -0.19118E+00   -0.19119E+00   768   0.489E+00-0.236E-03
CGA:   3    -0.663038682548E+03   -0.78663E-01   -0.78662E-01   768   0.212E+00-0.498E-04
CGA:   4    -0.663070146137E+03   -0.31464E-01   -0.31461E-01   768   0.576E-01-0.116E-04
CGA:   5    -0.663080778664E+03   -0.10633E-01   -0.10632E-01   768   0.194E-01 0.205E-04
CGA:   6    -0.663084557457E+03   -0.37788E-02   -0.37792E-02   768   0.852E-02-0.204E-04
CGA:   7    -0.663086321114E+03   -0.17637E-02   -0.17633E-02   768   0.471E-02 0.830E-05
CGA:   8    -0.663087094606E+03   -0.77349E-03   -0.77333E-03   768   0.253E-02-0.378E-05
CGA:   9    -0.663087534607E+03   -0.44000E-03   -0.44004E-03   768   0.856E-03 0.332E-05
CGA:  10    -0.663087719284E+03   -0.18468E-03   -0.18469E-03   768   0.302E-03-0.301E-06
CGA:  11    -0.663087776741E+03   -0.57457E-04   -0.57451E-04   768   0.161E-03 0.864E-06
  40 F= -.66964336E+03 E0= -.66963349E+03  d E =-.717053E-02  mag=     0.8732
       N       E                     dE             d eps       ncg     rms          ort
SDA:   1    -0.663008485548E+03    0.79234E-01    0.00000E+00   768   0.209E+00 0.000E+00
CGA:   2    -0.663056598729E+03   -0.48113E-01   -0.48114E-01   768   0.123E+00-0.181E-04
CGA:   3    -0.663076393087E+03   -0.19794E-01   -0.19792E-01   768   0.536E-01-0.399E-04
CGA:   4    -0.663084315416E+03   -0.79223E-02   -0.79230E-02   768   0.145E-01 0.757E-05
CGA:   5    -0.663086984602E+03   -0.26692E-02   -0.26692E-02   768   0.479E-02 0.255E-05
CGA:   6    -0.663087953715E+03   -0.96911E-03   -0.96915E-03   768   0.203E-02-0.174E-05
CGA:   7    -0.663088423012E+03   -0.46930E-03   -0.46930E-03   768   0.903E-03-0.143E-07
CGA:   8    -0.663088639498E+03   -0.21649E-03   -0.21648E-03   768   0.372E-03 0.267E-06
CGA:   9    -0.663088722103E+03   -0.82605E-04   -0.82573E-04   768   0.162E-03 0.872E-06
  41 F= -.66964427E+03 E0= -.66963438E+03  d E =-.807722E-02  mag=     0.8716
       N       E                     dE             d eps       ncg     rms          ort
SDA:   1    -0.662764140860E+03    0.32450E+00    0.00000E+00   768   0.847E+00 0.000E+00
CGA:   2    -0.662975916059E+03   -0.21178E+00   -0.21174E+00   768   0.482E+00 0.413E-03
CGA:   3    -0.663051264974E+03   -0.75349E-01   -0.75321E-01   768   0.199E+00-0.333E-03
CGA:   4    -0.663080664779E+03   -0.29400E-01   -0.29409E-01   768   0.530E-01 0.181E-04
CGA:   5    -0.663090139864E+03   -0.94751E-02   -0.94747E-02   768   0.175E-01-0.229E-04
CGA:   6    -0.663093586813E+03   -0.34469E-02   -0.34469E-02   768   0.721E-02-0.180E-05
CGA:   7    -0.663095183455E+03   -0.15966E-02   -0.15971E-02   768   0.354E-02-0.937E-05
CGA:   8    -0.663095865627E+03   -0.68217E-03   -0.68215E-03   768   0.212E-02 0.352E-05
CGA:   9    -0.663096186469E+03   -0.32084E-03   -0.32079E-03   768   0.839E-03-0.314E-06
CGA:  10    -0.663096352851E+03   -0.16638E-03   -0.16635E-03   768   0.259E-03 0.269E-05
CGA:  11    -0.663096410614E+03   -0.57763E-04   -0.57751E-04   768   0.113E-03 0.357E-06
  42 F= -.66965188E+03 E0= -.66964207E+03  d E =-.761410E-02  mag=     0.8737
       N       E                     dE             d eps       ncg     rms          ort
SDA:   1    -0.662590801870E+03    0.50555E+00    0.00000E+00   768   0.130E+01 0.000E+00
CGA:   2    -0.662915904512E+03   -0.32510E+00   -0.32506E+00   768   0.738E+00 0.510E-03
CGA:   3    -0.663030913254E+03   -0.11501E+00   -0.11499E+00   768   0.305E+00-0.266E-03
CGA:   4    -0.663075894238E+03   -0.44981E-01   -0.44988E-01   768   0.816E-01 0.890E-05
CGA:   5    -0.663090535581E+03   -0.14641E-01   -0.14641E-01   768   0.260E-01-0.957E-05
CGA:   6    -0.663095752727E+03   -0.52171E-02   -0.52175E-02   768   0.109E-01-0.187E-04
CGA:   7    -0.663098191433E+03   -0.24387E-02   -0.24385E-02   768   0.494E-02 0.312E-05
CGA:   8    -0.663099279755E+03   -0.10883E-02   -0.10886E-02   768   0.269E-02-0.581E-05
CGA:   9    -0.663099697644E+03   -0.41789E-03   -0.41807E-03   768   0.131E-02 0.340E-05
CGA:  10    -0.663099921198E+03   -0.22355E-03   -0.22355E-03   768   0.393E-03 0.444E-06
CGA:  11    -0.663100010595E+03   -0.89397E-04   -0.89333E-04   768   0.137E-03 0.162E-05
  43 F= -.66965539E+03 E0= -.66964567E+03  d E =-.111183E-01  mag=     0.8767
       N       E                     dE             d eps       ncg     rms          ort
SDA:   1    -0.662845234637E+03    0.25469E+00    0.00000E+00   768   0.686E+00 0.000E+00
CGA:   2    -0.663004912260E+03   -0.15968E+00   -0.15963E+00   768   0.400E+00 0.600E-03
CGA:   3    -0.663066533074E+03   -0.61621E-01   -0.61548E-01   768   0.172E+00-0.711E-03
CGA:   4    -0.663092491308E+03   -0.25958E-01   -0.25972E-01   768   0.473E-01 0.108E-05
CGA:   5    -0.663100834066E+03   -0.83428E-02   -0.83414E-02   768   0.160E-01-0.575E-04
CGA:   6    -0.663103775441E+03   -0.29414E-02   -0.29414E-02   768   0.765E-02 0.783E-05
CGA:   7    -0.663105160961E+03   -0.13855E-02   -0.13854E-02   768   0.409E-02-0.773E-05
CGA:   8    -0.663105872820E+03   -0.71186E-03   -0.71194E-03   768   0.184E-02 0.372E-05
CGA:   9    -0.663106249985E+03   -0.37716E-03   -0.37721E-03   768   0.706E-03-0.192E-05
CGA:  10    -0.663106385069E+03   -0.13508E-03   -0.13508E-03   768   0.321E-03 0.127E-05
CGA:  11    -0.663106435734E+03   -0.50664E-04   -0.50657E-04   768   0.127E-03-0.221E-06
  44 F= -.66966201E+03 E0= -.66965221E+03  d E =-.662508E-02  mag=     0.8739
       N       E                     dE             d eps       ncg     rms          ort
SDA:   1    -0.662830240472E+03    0.27614E+00    0.00000E+00   768   0.729E+00 0.000E+00
CGA:   2    -0.663000980447E+03   -0.17074E+00   -0.17069E+00   768   0.421E+00 0.558E-03
CGA:   3    -0.663066419404E+03   -0.65439E-01   -0.65378E-01   768   0.181E+00-0.738E-03
CGA:   4    -0.663093702776E+03   -0.27283E-01   -0.27296E-01   768   0.500E-01 0.101E-04
CGA:   5    -0.663102534768E+03   -0.88320E-02   -0.88310E-02   768   0.166E-01-0.591E-04
CGA:   6    -0.663105697208E+03   -0.31624E-02   -0.31623E-02   768   0.779E-02 0.851E-05
CGA:   7    -0.663107151809E+03   -0.14546E-02   -0.14546E-02   768   0.429E-02-0.840E-05
CGA:   8    -0.663107872549E+03   -0.72074E-03   -0.72085E-03   768   0.199E-02 0.371E-05
CGA:   9    -0.663108269530E+03   -0.39698E-03   -0.39702E-03   768   0.726E-03-0.198E-05
CGA:  10    -0.663108416268E+03   -0.14674E-03   -0.14671E-03   768   0.310E-03 0.131E-05
CGA:  11    -0.663108465962E+03   -0.49693E-04   -0.49687E-04   768   0.138E-03-0.228E-06
  45 F= -.66966424E+03 E0= -.66965434E+03  d E =-.884991E-02  mag=     0.8710
       N       E                     dE             d eps       ncg     rms          ort
SDA:   1    -0.662857216479E+03    0.25120E+00    0.00000E+00   768   0.680E+00 0.000E+00
CGA:   2    -0.663011011532E+03   -0.15380E+00   -0.15376E+00   768   0.391E+00 0.518E-03
CGA:   3    -0.663072603941E+03   -0.61592E-01   -0.61553E-01   768   0.170E+00-0.632E-03
CGA:   4    -0.663098646330E+03   -0.26042E-01   -0.26051E-01   768   0.477E-01-0.118E-05
CGA:   5    -0.663107077410E+03   -0.84311E-02   -0.84305E-02   768   0.157E-01-0.534E-04
CGA:   6    -0.663110194825E+03   -0.31174E-02   -0.31172E-02   768   0.728E-02 0.358E-05
CGA:   7    -0.663111634749E+03   -0.14399E-02   -0.14402E-02   768   0.403E-02-0.108E-04
CGA:   8    -0.663112292336E+03   -0.65759E-03   -0.65769E-03   768   0.197E-02 0.218E-05
CGA:   9    -0.663112655099E+03   -0.36276E-03   -0.36277E-03   768   0.669E-03-0.230E-05
CGA:  10    -0.663112795687E+03   -0.14059E-03   -0.14055E-03   768   0.249E-03 0.125E-05
CGA:  11    -0.663112838705E+03   -0.43018E-04   -0.43017E-04   768   0.126E-03-0.592E-07
  46 F= -.66966889E+03 E0= -.66965898E+03  d E =-.465644E-02  mag=     0.8683
       N       E                     dE             d eps       ncg     rms          ort
SDA:   1    -0.662948222402E+03    0.16457E+00    0.00000E+00   768   0.440E+00 0.000E+00
CGA:   2    -0.663047927709E+03   -0.99705E-01   -0.99686E-01   768   0.253E+00 0.262E-03
CGA:   3    -0.663087742752E+03   -0.39815E-01   -0.39796E-01   768   0.110E+00-0.328E-03
CGA:   4    -0.663104621643E+03   -0.16879E-01   -0.16883E-01   768   0.309E-01-0.264E-05
CGA:   5    -0.663110075151E+03   -0.54535E-02   -0.54532E-02   768   0.102E-01-0.273E-04
CGA:   6    -0.663112098218E+03   -0.20231E-02   -0.20230E-02   768   0.471E-02 0.932E-06
CGA:   7    -0.663113033979E+03   -0.93576E-03   -0.93591E-03   768   0.259E-02-0.581E-05
CGA:   8    -0.663113458258E+03   -0.42428E-03   -0.42433E-03   768   0.128E-02 0.133E-05
CGA:   9    -0.663113692622E+03   -0.23436E-03   -0.23436E-03   768   0.436E-03-0.151E-05
CGA:  10    -0.663113784553E+03   -0.91931E-04   -0.91902E-04   768   0.160E-03 0.932E-06
  47 F= -.66967006E+03 E0= -.66966013E+03  d E =-.582325E-02  mag=     0.8662
       N       E                     dE             d eps       ncg     rms          ort
SDA:   1    -0.662855478292E+03    0.25821E+00    0.00000E+00   768   0.688E+00 0.000E+00
CGA:   2    -0.663015142573E+03   -0.15966E+00   -0.15965E+00   768   0.394E+00 0.136E-03
CGA:   3    -0.663077465844E+03   -0.62323E-01   -0.62278E-01   768   0.170E+00-0.740E-03
CGA:   4    -0.663103157892E+03   -0.25692E-01   -0.25702E-01   768   0.480E-01 0.634E-05
CGA:   5    -0.663111573345E+03   -0.84155E-02   -0.84147E-02   768   0.156E-01-0.568E-04
CGA:   6    -0.663114541708E+03   -0.29684E-02   -0.29682E-02   768   0.733E-02 0.640E-05
CGA:   7    -0.663115944004E+03   -0.14023E-02   -0.14024E-02   768   0.401E-02-0.105E-04
CGA:   8    -0.663116598440E+03   -0.65444E-03   -0.65449E-03   768   0.184E-02 0.122E-05
CGA:   9    -0.663116968082E+03   -0.36964E-03   -0.36971E-03   768   0.679E-03-0.292E-05
CGA:  10    -0.663117106477E+03   -0.13840E-03   -0.13837E-03   768   0.287E-03 0.963E-06
CGA:  11    -0.663117153607E+03   -0.47129E-04   -0.47121E-04   768   0.133E-03-0.377E-06
  48 F= -.66967385E+03 E0= -.66966403E+03  d E =-.378772E-02  mag=     0.8684
       N       E                     dE             d eps       ncg     rms          ort
SDA:   1    -0.663110205542E+03    0.69009E-02    0.00000E+00   768   0.184E-01 0.000E+00
CGA:   2    -0.663114490584E+03   -0.42850E-02   -0.42851E-02   768   0.105E-01-0.148E-05
CGA:   3    -0.663116144971E+03   -0.16544E-02   -0.16542E-02   768   0.455E-02-0.526E-05
CGA:   4    -0.663116829990E+03   -0.68502E-03   -0.68498E-03   768   0.131E-02-0.156E-05
CGA:   5    -0.663117057920E+03   -0.22793E-03   -0.22793E-03   768   0.381E-03 0.359E-06
CGA:   6    -0.663117140156E+03   -0.82236E-04   -0.82240E-04   768   0.181E-03-0.133E-06
  49 F= -.66967390E+03 E0= -.66966410E+03  d E =-.384213E-02  mag=     0.8688
       N       E                     dE             d eps       ncg     rms          ort
SDA:   1    -0.663021987829E+03    0.95070E-01    0.00000E+00   768   0.251E+00 0.000E+00
CGA:   2    -0.663089659061E+03   -0.67671E-01   -0.67662E-01   768   0.120E+00 0.769E-04
CGA:   3    -0.663109215310E+03   -0.19556E-01   -0.19553E-01   768   0.498E-01-0.586E-04
CGA:   4    -0.663116418140E+03   -0.72028E-02   -0.72045E-02   768   0.140E-01 0.494E-06
CGA:   5    -0.663118735365E+03   -0.23172E-02   -0.23171E-02   768   0.409E-02-0.198E-05
CGA:   6    -0.663119545330E+03   -0.80996E-03   -0.80999E-03   768   0.176E-02-0.254E-05
CGA:   7    -0.663119893021E+03   -0.34769E-03   -0.34774E-03   768   0.892E-03-0.389E-05
CGA:   8    -0.663120044044E+03   -0.15102E-03   -0.15101E-03   768   0.496E-03-0.103E-05
CGA:   9    -0.663120133761E+03   -0.89716E-04   -0.89712E-04   768   0.189E-03-0.884E-06
  50 F= -.66967714E+03 E0= -.66966739E+03  d E =-.323524E-02  mag=     0.8702
       N       E                     dE             d eps       ncg     rms          ort
SDA:   1    -0.662239503846E+03    0.88054E+00    0.00000E+00   768   0.227E+01 0.000E+00
CGA:   2    -0.662849268593E+03   -0.60976E+00   -0.60952E+00   768   0.108E+01 0.213E-02
CGA:   3    -0.663026630934E+03   -0.17736E+00   -0.17732E+00   768   0.453E+00-0.798E-03
CGA:   4    -0.663091906047E+03   -0.65275E-01   -0.65317E-01   768   0.119E+00 0.857E-04
CGA:   5    -0.663112298474E+03   -0.20392E-01   -0.20389E-01   768   0.351E-01-0.921E-04
CGA:   6    -0.663119255891E+03   -0.69574E-02   -0.69573E-02   768   0.148E-01-0.287E-05
CGA:   7    -0.663122273336E+03   -0.30174E-02   -0.30180E-02   768   0.683E-02-0.231E-04
CGA:   8    -0.663123515407E+03   -0.12421E-02   -0.12421E-02   768   0.418E-02 0.151E-05
CGA:   9    -0.663124198428E+03   -0.68302E-03   -0.68288E-03   768   0.161E-02-0.329E-05
CGA:  10    -0.663124547617E+03   -0.34919E-03   -0.34909E-03   768   0.564E-03 0.314E-05
CGA:  11    -0.663124666212E+03   -0.11859E-03   -0.11860E-03   768   0.280E-03-0.542E-07
CGA:  12    -0.663124707235E+03   -0.41024E-04   -0.41061E-04   768   0.116E-03 0.892E-06
  51 F= -.66968243E+03 E0= -.66967282E+03  d E =-.852413E-02  mag=     0.8743
       N       E                     dE             d eps       ncg     rms          ort
SDA:   1    -0.663032984042E+03    0.91682E-01    0.00000E+00   768   0.235E+00 0.000E+00
CGA:   2    -0.663096338723E+03   -0.63355E-01   -0.63346E-01   768   0.113E+00 0.758E-04
CGA:   3    -0.663114652951E+03   -0.18314E-01   -0.18311E-01   768   0.475E-01-0.556E-04
CGA:   4    -0.663121485526E+03   -0.68326E-02   -0.68343E-02   768   0.123E-01-0.178E-06
CGA:   5    -0.663123607978E+03   -0.21225E-02   -0.21223E-02   768   0.357E-02-0.191E-05
CGA:   6    -0.663124296358E+03   -0.68838E-03   -0.68839E-03   768   0.166E-02-0.246E-05
CGA:   7    -0.663124597351E+03   -0.30099E-03   -0.30097E-03   768   0.838E-03-0.327E-05
CGA:   8    -0.663124737904E+03   -0.14055E-03   -0.14054E-03   768   0.429E-03-0.938E-06
CGA:   9    -0.663124823238E+03   -0.85334E-04   -0.85345E-04   768   0.167E-03-0.865E-06
  52 F= -.66968277E+03 E0= -.66967321E+03  d E =-.886724E-02  mag=     0.8757
       N       E                     dE             d eps       ncg     rms          ort
SDA:   1    -0.662841568251E+03    0.28317E+00    0.00000E+00   768   0.745E+00 0.000E+00
CGA:   2    -0.663041902438E+03   -0.20033E+00   -0.20031E+00   768   0.346E+00 0.232E-03
CGA:   3    -0.663099374492E+03   -0.57472E-01   -0.57467E-01   768   0.146E+00-0.113E-03
CGA:   4    -0.663120369366E+03   -0.20995E-01   -0.21000E-01   768   0.378E-01 0.917E-05
CGA:   5    -0.663126816608E+03   -0.64472E-02   -0.64469E-02   768   0.112E-01-0.722E-05
CGA:   6    -0.663129036204E+03   -0.22196E-02   -0.22196E-02   768   0.454E-02-0.468E-05
CGA:   7    -0.663130007312E+03   -0.97111E-03   -0.97132E-03   768   0.188E-02-0.725E-05
CGA:   8    -0.663130421193E+03   -0.41388E-03   -0.41390E-03   768   0.111E-02-0.103E-05
CGA:   9    -0.663130595425E+03   -0.17423E-03   -0.17419E-03   768   0.563E-03-0.786E-06
CGA:  10    -0.663130697978E+03   -0.10255E-03   -0.10256E-03   768   0.178E-03 0.143E-05
CGA:  11    -0.663130739567E+03   -0.41588E-04   -0.41589E-04   768   0.672E-04-0.164E-07
  53 F= -.66968916E+03 E0= -.66967949E+03  d E =-.639604E-02  mag=     0.8706
       N       E                     dE             d eps       ncg     rms          ort
SDA:   1    -0.661928047069E+03    0.12027E+01    0.00000E+00   768   0.311E+01 0.000E+00
CGA:   2    -0.662764301302E+03   -0.83625E+00   -0.83603E+00   768   0.145E+01 0.189E-02
CGA:   3    -0.663003807186E+03   -0.23951E+00   -0.23944E+00   768   0.608E+00-0.995E-03
CGA:   4    -0.663090863859E+03   -0.87057E-01   -0.87129E-01   768   0.161E+00 0.113E-03
CGA:   5    -0.663118386511E+03   -0.27523E-01   -0.27516E-01   768   0.458E-01-0.142E-03
CGA:   6    -0.663127520365E+03   -0.91339E-02   -0.91337E-02   768   0.195E-01 0.418E-06
CGA:   7    -0.663131382969E+03   -0.38626E-02   -0.38630E-02   768   0.914E-02-0.302E-04
CGA:   8    -0.663132986816E+03   -0.16038E-02   -0.16040E-02   768   0.546E-02 0.186E-05
CGA:   9    -0.663133915582E+03   -0.92877E-03   -0.92860E-03   768   0.209E-02-0.449E-05
CGA:  10    -0.663134380732E+03   -0.46515E-03   -0.46501E-03   768   0.769E-03 0.380E-05
CGA:  11    -0.663134535564E+03   -0.15483E-03   -0.15484E-03   768   0.408E-03-0.322E-06
CGA:  12    -0.663134595694E+03   -0.60129E-04   -0.60170E-04   768   0.156E-03 0.963E-06
  54 F= -.66969399E+03 E0= -.66968412E+03  d E =-.112172E-01  mag=     0.8598
       N       E                     dE             d eps       ncg     rms          ort
SDA:   1    -0.662613315057E+03    0.52122E+00    0.00000E+00   768   0.141E+01 0.000E+00
CGA:   2    -0.662949132055E+03   -0.33582E+00   -0.33582E+00   768   0.737E+00-0.186E-03
CGA:   3    -0.663066235301E+03   -0.11710E+00   -0.11702E+00   768   0.314E+00-0.101E-02
CGA:   4    -0.663113805130E+03   -0.47570E-01   -0.47592E-01   768   0.884E-01 0.518E-05
CGA:   5    -0.663129205123E+03   -0.15400E-01   -0.15397E-01   768   0.269E-01-0.939E-04
CGA:   6    -0.663134452178E+03   -0.52471E-02   -0.52469E-02   768   0.122E-01 0.623E-05
CGA:   7    -0.663136874403E+03   -0.24222E-02   -0.24226E-02   768   0.634E-02-0.230E-04
CGA:   8    -0.663137905837E+03   -0.10314E-02   -0.10315E-02   768   0.335E-02 0.829E-06
CGA:   9    -0.663138521724E+03   -0.61589E-03   -0.61586E-03   768   0.120E-02-0.409E-05
CGA:  10    -0.663138783575E+03   -0.26185E-03   -0.26178E-03   768   0.462E-03 0.218E-05
CGA:  11    -0.663138866865E+03   -0.83290E-04   -0.83286E-04   768   0.243E-03-0.398E-06
  55 F= -.66969883E+03 E0= -.66968896E+03  d E =-.484201E-02  mag=     0.8600
       N       E                     dE             d eps       ncg     rms          ort
SDA:   1    -0.663061560354E+03    0.77223E-01    0.00000E+00   768   0.208E+00 0.000E+00
CGA:   2    -0.663111198705E+03   -0.49638E-01   -0.49641E-01   768   0.109E+00-0.373E-04
CGA:   3    -0.663128383733E+03   -0.17185E-01   -0.17183E-01   768   0.465E-01-0.400E-04
CGA:   4    -0.663135419234E+03   -0.70355E-02   -0.70359E-02   768   0.132E-01-0.153E-05
CGA:   5    -0.663137691855E+03   -0.22726E-02   -0.22726E-02   768   0.384E-02-0.261E-06
CGA:   6    -0.663138491794E+03   -0.79994E-03   -0.79999E-03   768   0.169E-02-0.205E-05
CGA:   7    -0.663138870821E+03   -0.37903E-03   -0.37911E-03   768   0.699E-03-0.223E-05
CGA:   8    -0.663139042736E+03   -0.17191E-03   -0.17196E-03   768   0.295E-03-0.882E-06
CGA:   9    -0.663139114627E+03   -0.71891E-04   -0.71878E-04   768   0.105E-03 0.267E-06
  56 F= -.66969929E+03 E0= -.66968942E+03  d E =-.530863E-02  mag=     0.8604
       N       E                     dE             d eps       ncg     rms          ort
SDA:   1    -0.662622180033E+03    0.51686E+00    0.00000E+00   768   0.141E+01 0.000E+00
CGA:   2    -0.662955960591E+03   -0.33378E+00   -0.33373E+00   768   0.739E+00 0.807E-03
CGA:   3    -0.663071947755E+03   -0.11599E+00   -0.11597E+00   768   0.310E+00-0.308E-03
CGA:   4    -0.663119472894E+03   -0.47525E-01   -0.47527E-01   768   0.870E-01-0.534E-04
CGA:   5    -0.663134380612E+03   -0.14908E-01   -0.14907E-01   768   0.267E-01-0.233E-04
CGA:   6    -0.663139798924E+03   -0.54183E-02   -0.54187E-02   768   0.113E-01-0.258E-04
CGA:   7    -0.663142291882E+03   -0.24930E-02   -0.24928E-02   768   0.507E-02-0.938E-07
CGA:   8    -0.663143321651E+03   -0.10298E-02   -0.10299E-02   768   0.300E-02-0.931E-05
CGA:   9    -0.663143766652E+03   -0.44500E-03   -0.44516E-03   768   0.128E-02 0.167E-05
CGA:  10    -0.663144012767E+03   -0.24611E-03   -0.24611E-03   768   0.383E-03-0.270E-06
CGA:  11    -0.663144099158E+03   -0.86390E-04   -0.86350E-04   768   0.154E-03 0.121E-05
  57 F= -.66970470E+03 E0= -.66969490E+03  d E =-.540551E-02  mag=     0.8645
       N       E                     dE             d eps       ncg     rms          ort
SDA:   1    -0.663058242219E+03    0.85771E-01    0.00000E+00   768   0.234E+00 0.000E+00
CGA:   2    -0.663113370856E+03   -0.55129E-01   -0.55124E-01   768   0.123E+00 0.680E-04
CGA:   3    -0.663132481552E+03   -0.19111E-01   -0.19106E-01   768   0.516E-01-0.574E-04
CGA:   4    -0.663140396481E+03   -0.79149E-02   -0.79158E-02   768   0.144E-01-0.282E-05
CGA:   5    -0.663142871418E+03   -0.24749E-02   -0.24748E-02   768   0.433E-02-0.413E-05
CGA:   6    -0.663143755678E+03   -0.88426E-03   -0.88429E-03   768   0.195E-02-0.281E-05
CGA:   7    -0.663144156865E+03   -0.40119E-03   -0.40126E-03   768   0.100E-02-0.395E-05
CGA:   8    -0.663144325500E+03   -0.16863E-03   -0.16863E-03   768   0.569E-03-0.478E-06
CGA:   9    -0.663144420832E+03   -0.95332E-04   -0.95312E-04   768   0.206E-03-0.679E-06
  58 F= -.66970519E+03 E0= -.66969542E+03  d E =-.589871E-02  mag=     0.8663
       N       E                     dE             d eps       ncg     rms          ort
SDA:   1    -0.662934572029E+03    0.20975E+00    0.00000E+00   768   0.579E+00 0.000E+00
CGA:   2    -0.663077496170E+03   -0.14292E+00   -0.14292E+00   768   0.276E+00 0.775E-04
CGA:   3    -0.663121100435E+03   -0.43604E-01   -0.43580E-01   768   0.118E+00-0.268E-03
CGA:   4    -0.663138816553E+03   -0.17716E-01   -0.17722E-01   768   0.323E-01-0.411E-05
CGA:   5    -0.663144150492E+03   -0.53339E-02   -0.53328E-02   768   0.998E-02-0.189E-04
CGA:   6    -0.663145934390E+03   -0.17839E-02   -0.17840E-02   768   0.458E-02 0.124E-05
CGA:   7    -0.663146732418E+03   -0.79803E-03   -0.79792E-03   768   0.231E-02-0.474E-05
CGA:   8    -0.663147126724E+03   -0.39431E-03   -0.39431E-03   768   0.102E-02-0.393E-06
CGA:   9    -0.663147346717E+03   -0.21999E-03   -0.22005E-03   768   0.449E-03-0.184E-05
CGA:  10    -0.663147434426E+03   -0.87709E-04   -0.87702E-04   768   0.227E-03 0.834E-06
  59 F= -.66970870E+03 E0= -.66969894E+03  d E =-.350474E-02  mag=     0.8657
       N       E                     dE             d eps       ncg     rms          ort
SDA:   1    -0.662779343093E+03    0.36800E+00    0.00000E+00   768   0.100E+01 0.000E+00
CGA:   2    -0.663026830759E+03   -0.24749E+00   -0.24746E+00   768   0.483E+00 0.283E-03
CGA:   3    -0.663102390679E+03   -0.75560E-01   -0.75499E-01   768   0.207E+00-0.733E-03
CGA:   4    -0.663133338310E+03   -0.30948E-01   -0.30962E-01   768   0.576E-01 0.165E-05
CGA:   5    -0.663142696931E+03   -0.93586E-02   -0.93556E-02   768   0.178E-01-0.541E-04
CGA:   6    -0.663145800959E+03   -0.31040E-02   -0.31041E-02   768   0.825E-02 0.297E-05
CGA:   7    -0.663147223880E+03   -0.14229E-02   -0.14227E-02   768   0.399E-02-0.890E-05
CGA:   8    -0.663147933637E+03   -0.70976E-03   -0.70977E-03   768   0.177E-02 0.233E-06
CGA:   9    -0.663148310000E+03   -0.37636E-03   -0.37647E-03   768   0.830E-03-0.297E-05
CGA:  10    -0.663148461449E+03   -0.15145E-03   -0.15145E-03   768   0.411E-03 0.121E-05
CGA:  11    -0.663148529226E+03   -0.67777E-04   -0.67766E-04   768   0.152E-03-0.437E-06
  60 F= -.66971043E+03 E0= -.66970068E+03  d E =-.523651E-02  mag=     0.8649
       N       E                     dE             d eps       ncg     rms          ort
SDA:   1    -0.662874275096E+03    0.27419E+00    0.00000E+00   768   0.748E+00 0.000E+00
CGA:   2    -0.663069882103E+03   -0.19561E+00   -0.19558E+00   768   0.320E+00 0.285E-03
CGA:   3    -0.663122646564E+03   -0.52764E-01   -0.52752E-01   768   0.137E+00-0.251E-03
CGA:   4    -0.663142535430E+03   -0.19889E-01   -0.19897E-01   768   0.366E-01 0.667E-05
CGA:   5    -0.663148423730E+03   -0.58883E-02   -0.58872E-02   768   0.102E-01-0.167E-04
CGA:   6    -0.663150265837E+03   -0.18421E-02   -0.18421E-02   768   0.459E-02 0.196E-06
CGA:   7    -0.663151027586E+03   -0.76175E-03   -0.76163E-03   768   0.217E-02-0.466E-05
CGA:   8    -0.663151397237E+03   -0.36965E-03   -0.36964E-03   768   0.962E-03-0.110E-05
CGA:   9    -0.663151608411E+03   -0.21117E-03   -0.21125E-03   768   0.447E-03-0.183E-05
CGA:  10    -0.663151698168E+03   -0.89757E-04   -0.89740E-04   768   0.240E-03 0.979E-06
  61 F= -.66971417E+03 E0= -.66970438E+03  d E =-.373747E-02  mag=     0.8628
       N       E                     dE             d eps       ncg     rms          ort
SDA:   1    -0.662779139227E+03    0.37247E+00    0.00000E+00   768   0.101E+01 0.000E+00
CGA:   2    -0.663042093678E+03   -0.26295E+00   -0.26290E+00   768   0.434E+00 0.554E-03
CGA:   3    -0.663113085292E+03   -0.70992E-01   -0.70965E-01   768   0.188E+00-0.507E-03
CGA:   4    -0.663140190258E+03   -0.27105E-01   -0.27119E-01   768   0.501E-01 0.817E-05
CGA:   5    -0.663148091701E+03   -0.79014E-02   -0.78992E-02   768   0.149E-01-0.318E-04
CGA:   6    -0.663150618763E+03   -0.25271E-02   -0.25271E-02   768   0.663E-02-0.346E-07
CGA:   7    -0.663151732549E+03   -0.11138E-02   -0.11137E-02   768   0.294E-02-0.646E-05
CGA:   8    -0.663152262649E+03   -0.53010E-03   -0.53010E-03   768   0.131E-02-0.943E-06
CGA:   9    -0.663152543451E+03   -0.28080E-03   -0.28088E-03   768   0.675E-03-0.223E-05
CGA:  10    -0.663152665412E+03   -0.12196E-03   -0.12196E-03   768   0.340E-03 0.115E-05
CGA:  11    -0.663152724003E+03   -0.58592E-04   -0.58588E-04   768   0.130E-03-0.284E-06
  62 F= -.66971584E+03 E0= -.66970601E+03  d E =-.541468E-02  mag=     0.8603
       N       E                     dE             d eps       ncg     rms          ort
SDA:   1    -0.662919457407E+03    0.23321E+00    0.00000E+00   768   0.634E+00 0.000E+00
CGA:   2    -0.663090726843E+03   -0.17127E+00   -0.17130E+00   768   0.245E+00-0.287E-03
CGA:   3    -0.663134489143E+03   -0.43762E-01   -0.43762E-01   768   0.102E+00-0.517E-04
CGA:   4    -0.663148998276E+03   -0.14509E-01   -0.14514E-01   768   0.277E-01 0.140E-04
CGA:   5    -0.663153385900E+03   -0.43876E-02   -0.43871E-02   768   0.707E-02-0.429E-05
CGA:   6    -0.663154732241E+03   -0.13463E-02   -0.13463E-02   768   0.304E-02 0.824E-07
CGA:   7    -0.663155243065E+03   -0.51082E-03   -0.51076E-03   768   0.140E-02-0.306E-05
CGA:   8    -0.663155468666E+03   -0.22560E-03   -0.22559E-03   768   0.662E-03-0.692E-06
CGA:   9    -0.663155611011E+03   -0.14235E-03   -0.14238E-03   768   0.293E-03-0.936E-06
CGA:  10    -0.663155676251E+03   -0.65240E-04   -0.65207E-04   768   0.156E-03 0.831E-06
  63 F= -.66971934E+03 E0= -.66970951E+03  d E =-.349144E-02  mag=     0.8618
       N       E                     dE             d eps       ncg     rms          ort
SDA:   1    -0.662633063351E+03    0.52255E+00    0.00000E+00   768   0.141E+01 0.000E+00
CGA:   2    -0.663012448975E+03   -0.37939E+00   -0.37946E+00   768   0.547E+00-0.830E-03
CGA:   3    -0.663109209905E+03   -0.96761E-01   -0.96753E-01   768   0.231E+00-0.341E-03
CGA:   4    -0.663141715318E+03   -0.32505E-01   -0.32531E-01   768   0.629E-01 0.515E-04
CGA:   5    -0.663151508990E+03   -0.97937E-02   -0.97907E-02   768   0.174E-01-0.311E-04
CGA:   6    -0.663154474314E+03   -0.29653E-02   -0.29654E-02   768   0.788E-02 0.199E-06
CGA:   7    -0.663155749045E+03   -0.12747E-02   -0.12746E-02   768   0.319E-02-0.506E-05
CGA:   8    -0.663156321838E+03   -0.57279E-03   -0.57279E-03   768   0.142E-02-0.535E-06
CGA:   9    -0.663156634783E+03   -0.31295E-03   -0.31301E-03   768   0.756E-03-0.149E-05
CGA:  10    -0.663156772172E+03   -0.13739E-03   -0.13739E-03   768   0.406E-03 0.133E-05
CGA:  11    -0.663156843679E+03   -0.71507E-04   -0.71503E-04   768   0.160E-03-0.448E-06
  64 F= -.66972130E+03 E0= -.66971148E+03  d E =-.545394E-02  mag=     0.8642
       N       E                     dE             d eps       ncg     rms          ort
SDA:   1    -0.663025665722E+03    0.13111E+00    0.00000E+00   768   0.357E+00 0.000E+00
CGA:   2    -0.663123072658E+03   -0.97407E-01   -0.97400E-01   768   0.138E+00 0.714E-04
CGA:   3    -0.663147008413E+03   -0.23936E-01   -0.23939E-01   768   0.599E-01 0.783E-04
CGA:   4    -0.663155262701E+03   -0.82543E-02   -0.82512E-02   768   0.163E-01 0.527E-05
CGA:   5    -0.663157736780E+03   -0.24741E-02   -0.24744E-02   768   0.442E-02 0.356E-05
CGA:   6    -0.663158478342E+03   -0.74156E-03   -0.74150E-03   768   0.200E-02-0.289E-05
CGA:   7    -0.663158801838E+03   -0.32350E-03   -0.32343E-03   768   0.771E-03-0.301E-05
CGA:   8    -0.663158946034E+03   -0.14420E-03   -0.14421E-03   768   0.355E-03-0.235E-05
CGA:   9    -0.663159020470E+03   -0.74437E-04   -0.74431E-04   768   0.199E-03 0.180E-06
  65 F= -.66972381E+03 E0= -.66971401E+03  d E =-.251331E-02  mag=     0.8651
       N       E                     dE             d eps       ncg     rms          ort
SDA:   1    -0.662348729479E+03    0.81022E+00    0.00000E+00   768   0.218E+01 0.000E+00
CGA:   2    -0.662941689151E+03   -0.59296E+00   -0.59281E+00   768   0.839E+00 0.144E-02
CGA:   3    -0.663088857790E+03   -0.14717E+00   -0.14720E+00   768   0.350E+00 0.109E-02
CGA:   4    -0.663138727293E+03   -0.49870E-01   -0.49841E-01   768   0.919E-01-0.160E-04
CGA:   5    -0.663153354258E+03   -0.14627E-01   -0.14630E-01   768   0.252E-01 0.432E-04
CGA:   6    -0.663157723540E+03   -0.43693E-02   -0.43689E-02   768   0.115E-01-0.178E-04
CGA:   7    -0.663159526570E+03   -0.18030E-02   -0.18029E-02   768   0.471E-02-0.575E-05
CGA:   8    -0.663160360915E+03   -0.83435E-03   -0.83431E-03   768   0.205E-02-0.582E-05
CGA:   9    -0.663160824687E+03   -0.46377E-03   -0.46367E-03   768   0.103E-02 0.192E-05
CGA:  10    -0.663161019224E+03   -0.19454E-03   -0.19454E-03   768   0.587E-03-0.496E-06
CGA:  11    -0.663161114887E+03   -0.95663E-04   -0.95685E-04   768   0.223E-03 0.106E-05
  66 F= -.66972673E+03 E0= -.66971697E+03  d E =-.543491E-02  mag=     0.8670
       N       E                     dE             d eps       ncg     rms          ort
SDA:   1    -0.663069237649E+03    0.91782E-01    0.00000E+00   768   0.254E+00 0.000E+00
CGA:   2    -0.663137053644E+03   -0.67816E-01   -0.67823E-01   768   0.106E+00-0.647E-04
CGA:   3    -0.663154165621E+03   -0.17112E-01   -0.17116E-01   768   0.458E-01 0.545E-04
CGA:   4    -0.663160643977E+03   -0.64784E-02   -0.64767E-02   768   0.126E-01 0.717E-05
CGA:   5    -0.663162593039E+03   -0.19491E-02   -0.19492E-02   768   0.339E-02 0.222E-05
CGA:   6    -0.663163165828E+03   -0.57279E-03   -0.57273E-03   768   0.159E-02-0.317E-05
CGA:   7    -0.663163426879E+03   -0.26105E-03   -0.26100E-03   768   0.629E-03-0.247E-05
CGA:   8    -0.663163544506E+03   -0.11763E-03   -0.11764E-03   768   0.294E-03-0.166E-05
CGA:   9    -0.663163606502E+03   -0.61996E-04   -0.61985E-04   768   0.160E-03 0.369E-06
  67 F= -.66972951E+03 E0= -.66971973E+03  d E =-.277334E-02  mag=     0.8655
       N       E                     dE             d eps       ncg     rms          ort
SDA:   1    -0.662316471625E+03    0.84707E+00    0.00000E+00   768   0.230E+01 0.000E+00
CGA:   2    -0.662925676148E+03   -0.60920E+00   -0.60940E+00   768   0.971E+00-0.182E-02
CGA:   3    -0.663079798154E+03   -0.15412E+00   -0.15428E+00   768   0.417E+00 0.201E-02
[...]
CGA:  10    -0.663181918621E+03   -0.27161E-03   -0.27163E-03   768   0.694E-03-0.102E-05
CGA:  11    -0.663182042680E+03   -0.12406E-03   -0.12406E-03   768   0.315E-03 0.896E-06
CGA:  12    -0.663182100790E+03   -0.58109E-04   -0.58115E-04   768   0.129E-03-0.117E-05
  72 F= -.66975071E+03 E0= -.66974094E+03  d E =-.794635E-02  mag=     0.8656
       N       E                     dE             d eps       ncg     rms          ort
SDA:   1    -0.662611138219E+03    0.57090E+00    0.00000E+00   768   0.153E+01 0.000E+00
CGA:   2    -0.663038847717E+03   -0.42771E+00   -0.42778E+00   768   0.594E+00-0.435E-03
CGA:   3    -0.663133679294E+03   -0.94832E-01   -0.94865E-01   768   0.285E+00 0.557E-03
CGA:   4    -0.663169980946E+03   -0.36302E-01   -0.36317E-01   768   0.694E-01 0.120E-03
CGA:   5    -0.663181149729E+03   -0.11169E-01   -0.11169E-01   768   0.164E-01 0.227E-05
CGA:   6    -0.663184070438E+03   -0.29207E-02   -0.29207E-02   768   0.707E-02-0.129E-04
CGA:   7    -0.663185205021E+03   -0.11346E-02   -0.11345E-02   768   0.261E-02-0.468E-05
CGA:   8    -0.663185638333E+03   -0.43331E-03   -0.43329E-03   768   0.125E-02-0.184E-05
CGA:   9    -0.663185896747E+03   -0.25841E-03   -0.25835E-03   768   0.588E-03 0.210E-05
CGA:  10    -0.663186016058E+03   -0.11931E-03   -0.11932E-03   768   0.352E-03-0.364E-06
CGA:  11    -0.663186076182E+03   -0.60124E-04   -0.60128E-04   768   0.156E-03 0.465E-06
  73 F= -.66975516E+03 E0= -.66974537E+03  d E =-.445439E-02  mag=     0.8646
       N       E                     dE             d eps       ncg     rms          ort
SDA:   1    -0.660782166013E+03    0.24039E+01    0.00000E+00   768   0.643E+01 0.000E+00
CGA:   2    -0.662573992363E+03   -0.17918E+01   -0.17925E+01   768   0.247E+01-0.453E-02
CGA:   3    -0.662974185446E+03   -0.40019E+00   -0.40054E+00   768   0.115E+01 0.630E-02
CGA:   4    -0.663120736865E+03   -0.14655E+00   -0.14667E+00   768   0.295E+00 0.106E-02
CGA:   5    -0.663167325047E+03   -0.46588E-01   -0.46586E-01   768   0.703E-01 0.527E-04
CGA:   6    -0.663179828398E+03   -0.12503E-01   -0.12503E-01   768   0.299E-01-0.675E-04
CGA:   7    -0.663184712034E+03   -0.48836E-02   -0.48834E-02   768   0.110E-01-0.698E-05
CGA:   8    -0.663186530013E+03   -0.18180E-02   -0.18179E-02   768   0.526E-02-0.279E-05
CGA:   9    -0.663187609434E+03   -0.10794E-02   -0.10792E-02   768   0.247E-02 0.716E-05
CGA:  10    -0.663188109795E+03   -0.50036E-03   -0.50036E-03   768   0.143E-02-0.170E-06
CGA:  11    -0.663188357302E+03   -0.24751E-03   -0.24752E-03   768   0.656E-03 0.151E-05
CGA:  12    -0.663188486670E+03   -0.12937E-03   -0.12939E-03   768   0.265E-03-0.166E-05
CGA:  13    -0.663188534467E+03   -0.47796E-04   -0.47797E-04   768   0.132E-03 0.620E-06
  74 F= -.66975858E+03 E0= -.66974875E+03  d E =-.787693E-02  mag=     0.8623
       N       E                     dE             d eps       ncg     rms          ort
SDA:   1    -0.662123323111E+03    0.10652E+01    0.00000E+00   768   0.283E+01 0.000E+00
CGA:   2    -0.662934712306E+03   -0.81139E+00   -0.81142E+00   768   0.999E+00 0.217E-03
CGA:   3    -0.663109419588E+03   -0.17471E+00   -0.17472E+00   768   0.484E+00 0.568E-03
CGA:   4    -0.663166370829E+03   -0.56951E-01   -0.57077E-01   768   0.120E+00 0.184E-04
CGA:   5    -0.663186208129E+03   -0.19837E-01   -0.19835E-01   768   0.237E-01-0.418E-04
CGA:   6    -0.663191067087E+03   -0.48590E-02   -0.48593E-02   768   0.107E-01-0.139E-04
CGA:   7    -0.663192566163E+03   -0.14991E-02   -0.14987E-02   768   0.374E-02-0.389E-05
CGA:   8    -0.663193235388E+03   -0.66922E-03   -0.66923E-03   768   0.180E-02 0.684E-08
CGA:   9    -0.663193599797E+03   -0.36441E-03   -0.36433E-03   768   0.820E-03 0.395E-05
CGA:  10    -0.663193774944E+03   -0.17515E-03   -0.17513E-03   768   0.557E-03 0.310E-06
CGA:  11    -0.663193865817E+03   -0.90873E-04   -0.90886E-04   768   0.221E-03 0.748E-06
  75 F= -.66976455E+03 E0= -.66975477E+03  d E =-.596792E-02  mag=     0.8653
       N       E                     dE             d eps       ncg     rms          ort
SDA:   1    -0.662589320935E+03    0.60445E+00    0.00000E+00   768   0.160E+01 0.000E+00
CGA:   2    -0.663048763429E+03   -0.45944E+00   -0.45946E+00   768   0.558E+00 0.261E-04
CGA:   3    -0.663147776705E+03   -0.99013E-01   -0.99018E-01   768   0.269E+00 0.182E-03
CGA:   4    -0.663179214270E+03   -0.31438E-01   -0.31496E-01   768   0.676E-01-0.193E-04
CGA:   5    -0.663190280449E+03   -0.11066E-01   -0.11065E-01   768   0.130E-01-0.194E-04
CGA:   6    -0.663193077732E+03   -0.27973E-02   -0.27975E-02   768   0.569E-02-0.872E-05
CGA:   7    -0.663193855030E+03   -0.77730E-03   -0.77706E-03   768   0.213E-02-0.271E-05
CGA:   8    -0.663194247351E+03   -0.39232E-03   -0.39232E-03   768   0.967E-03 0.232E-08
CGA:   9    -0.663194446840E+03   -0.19949E-03   -0.19943E-03   768   0.479E-03 0.281E-05
CGA:  10    -0.663194546798E+03   -0.99958E-04   -0.99956E-04   768   0.310E-03 0.187E-07
  76 F= -.66976570E+03 E0= -.66975597E+03  d E =-.712089E-02  mag=     0.8678
       N       E                     dE             d eps       ncg     rms          ort
SDA:   1    -0.662177901378E+03    0.10165E+01    0.00000E+00   768   0.270E+01 0.000E+00
CGA:   2    -0.662954503864E+03   -0.77660E+00   -0.77690E+00   768   0.924E+00-0.219E-02
CGA:   3    -0.663124591720E+03   -0.17009E+00   -0.17009E+00   768   0.426E+00 0.492E-03
CGA:   4    -0.663173746141E+03   -0.49154E-01   -0.49313E-01   768   0.114E+00-0.134E-03
CGA:   5    -0.663192160988E+03   -0.18415E-01   -0.18411E-01   768   0.211E-01-0.427E-04
CGA:   6    -0.663196958085E+03   -0.47971E-02   -0.47973E-02   768   0.867E-02-0.616E-05
CGA:   7    -0.663198121274E+03   -0.11632E-02   -0.11628E-02   768   0.351E-02-0.180E-05
CGA:   8    -0.663198782258E+03   -0.66098E-03   -0.66097E-03   768   0.147E-02 0.180E-05
CGA:   9    -0.663199091448E+03   -0.30919E-03   -0.30906E-03   768   0.773E-03 0.496E-05
CGA:  10    -0.663199250672E+03   -0.15922E-03   -0.15920E-03   768   0.483E-03 0.845E-06
CGA:  11    -0.663199328807E+03   -0.78135E-04   -0.78151E-04   768   0.196E-03 0.751E-06
  77 F= -.66977118E+03 E0= -.66976146E+03  d E =-.547770E-02  mag=     0.8682
       N       E                     dE             d eps       ncg     rms          ort
SDA:   1    -0.662898461000E+03    0.30079E+00    0.00000E+00   768   0.794E+00 0.000E+00
CGA:   2    -0.663128053219E+03   -0.22959E+00   -0.22964E+00   768   0.264E+00-0.385E-03
CGA:   3    -0.663179567087E+03   -0.51514E-01   -0.51513E-01   768   0.109E+00 0.134E-03
CGA:   4    -0.663192495172E+03   -0.12928E-01   -0.12950E-01   768   0.341E-01-0.566E-05
CGA:   5    -0.663197553544E+03   -0.50584E-02   -0.50570E-02   768   0.605E-02-0.744E-05
CGA:   6    -0.663198986698E+03   -0.14332E-02   -0.14334E-02   768   0.217E-02-0.436E-05
CGA:   7    -0.663199292603E+03   -0.30591E-03   -0.30583E-03   768   0.104E-02-0.772E-06
CGA:   8    -0.663199483157E+03   -0.19055E-03   -0.19056E-03   768   0.386E-03 0.973E-06
CGA:   9    -0.663199569827E+03   -0.86670E-04   -0.86584E-04   768   0.233E-03 0.234E-05
  78 F= -.66977179E+03 E0= -.66976208E+03  d E =-.609070E-02  mag=     0.8683
       N       E                     dE             d eps       ncg     rms          ort
SDA:   1    -0.662382464232E+03    0.81702E+00    0.00000E+00   768   0.217E+01 0.000E+00
CGA:   2    -0.663003247207E+03   -0.62078E+00   -0.62051E+00   768   0.764E+00 0.270E-02
CGA:   3    -0.663137838034E+03   -0.13459E+00   -0.13459E+00   768   0.375E+00 0.106E-03
CGA:   4    -0.663181968239E+03   -0.44130E-01   -0.44231E-01   768   0.903E-01-0.803E-04
CGA:   5    -0.663196896805E+03   -0.14929E-01   -0.14927E-01   768   0.189E-01-0.208E-04
CGA:   6    -0.663200683785E+03   -0.37870E-02   -0.37871E-02   768   0.813E-02-0.125E-04
CGA:   7    -0.663201860776E+03   -0.11770E-02   -0.11767E-02   768   0.296E-02-0.402E-05
CGA:   8    -0.663202374744E+03   -0.51397E-03   -0.51397E-03   768   0.139E-02-0.300E-06
CGA:   9    -0.663202662628E+03   -0.28788E-03   -0.28782E-03   768   0.644E-03 0.316E-05
CGA:  10    -0.663202799784E+03   -0.13716E-03   -0.13714E-03   768   0.431E-03 0.328E-06
CGA:  11    -0.663202870299E+03   -0.70516E-04   -0.70533E-04   768   0.176E-03 0.790E-06
  79 F= -.66977561E+03 E0= -.66976586E+03  d E =-.381191E-02  mag=     0.8671
       N       E                     dE             d eps       ncg     rms          ort
SDA:   1    -0.663197309445E+03    0.54903E-02    0.00000E+00   768   0.147E-01 0.000E+00
CGA:   2    -0.663201570154E+03   -0.42607E-02   -0.42607E-02   768   0.481E-02-0.301E-06
CGA:   3    -0.663202544543E+03   -0.97439E-03   -0.97437E-03   768   0.162E-02 0.200E-05
CGA:   4    -0.663202785277E+03   -0.24073E-03   -0.24079E-03   768   0.524E-03 0.142E-05
CGA:   5    -0.663202851362E+03   -0.66085E-04   -0.66021E-04   768   0.129E-03-0.987E-06
  80 F= -.66977563E+03 E0= -.66976588E+03  d E =-.383475E-02  mag=     0.8669
       N       E                     dE             d eps       ncg     rms          ort
SDA:   1    -0.662677137183E+03    0.52565E+00    0.00000E+00   768   0.141E+01 0.000E+00
CGA:   2    -0.663076083206E+03   -0.39895E+00   -0.39906E+00   768   0.483E+00-0.945E-03
CGA:   3    -0.663168296652E+03   -0.92213E-01   -0.92218E-01   768   0.194E+00 0.697E-03
CGA:   4    -0.663193595403E+03   -0.25299E-01   -0.25281E-01   768   0.584E-01 0.598E-04
CGA:   5    -0.663201969740E+03   -0.83743E-02   -0.83732E-02   768   0.142E-01 0.277E-05
CGA:   6    -0.663204442127E+03   -0.24724E-02   -0.24723E-02   768   0.597E-02-0.490E-05
CGA:   7    -0.663205390884E+03   -0.94876E-03   -0.94871E-03   768   0.195E-02-0.103E-05
CGA:   8    -0.663205753442E+03   -0.36256E-03   -0.36256E-03   768   0.101E-02 0.293E-06
CGA:   9    -0.663205942242E+03   -0.18880E-03   -0.18880E-03   768   0.508E-03 0.231E-05
CGA:  10    -0.663206044033E+03   -0.10179E-03   -0.10179E-03   768   0.267E-03 0.847E-07
CGA:  11    -0.663206095319E+03   -0.51285E-04   -0.51282E-04   768   0.134E-03 0.593E-06
  81 F= -.66977938E+03 E0= -.66976959E+03  d E =-.374738E-02  mag=     0.8663
       N       E                     dE             d eps       ncg     rms          ort
SDA:   1    -0.662991069094E+03    0.21497E+00    0.00000E+00   768   0.572E+00 0.000E+00
CGA:   2    -0.663153624948E+03   -0.16256E+00   -0.16259E+00   768   0.195E+00-0.260E-03
CGA:   3    -0.663191399509E+03   -0.37775E-01   -0.37774E-01   768   0.754E-01 0.166E-03
CGA:   4    -0.663201423802E+03   -0.10024E-01   -0.10020E-01   768   0.234E-01 0.159E-04
CGA:   5    -0.663204677888E+03   -0.32541E-02   -0.32537E-02   768   0.567E-02-0.112E-05
CGA:   6    -0.663205680205E+03   -0.10023E-02   -0.10023E-02   768   0.237E-02-0.280E-05
CGA:   7    -0.663206056030E+03   -0.37583E-03   -0.37580E-03   768   0.786E-03-0.738E-06
CGA:   8    -0.663206201850E+03   -0.14582E-03   -0.14582E-03   768   0.407E-03 0.192E-06
CGA:   9    -0.663206277663E+03   -0.75813E-04   -0.75811E-04   768   0.206E-03 0.143E-05
  82 F= -.66977987E+03 E0= -.66977007E+03  d E =-.424504E-02  mag=     0.8661
       N       E                     dE             d eps       ncg     rms          ort
SDA:   1    -0.662641450227E+03    0.56475E+00    0.00000E+00   768   0.151E+01 0.000E+00
CGA:   2    -0.663074145071E+03   -0.43269E+00   -0.43265E+00   768   0.490E+00 0.435E-03
CGA:   3    -0.663173956399E+03   -0.99811E-01   -0.99798E-01   768   0.173E+00 0.585E-03
CGA:   4    -0.663197804962E+03   -0.23849E-01   -0.23840E-01   768   0.571E-01 0.132E-04
CGA:   5    -0.663205463201E+03   -0.76582E-02   -0.76555E-02   768   0.142E-01-0.190E-05
CGA:   6    -0.663207972508E+03   -0.25093E-02   -0.25093E-02   768   0.566E-02-0.389E-05
CGA:   7    -0.663208885056E+03   -0.91255E-03   -0.91252E-03   768   0.179E-02-0.872E-06
CGA:   8    -0.663209228824E+03   -0.34377E-03   -0.34376E-03   768   0.102E-02 0.677E-06
CGA:   9    -0.663209406512E+03   -0.17769E-03   -0.17771E-03   768   0.481E-03 0.225E-05
CGA:  10    -0.663209510807E+03   -0.10429E-03   -0.10429E-03   768   0.257E-03 0.191E-06
CGA:  11    -0.663209560190E+03   -0.49382E-04   -0.49379E-04   768   0.137E-03 0.598E-06
  83 F= -.66978363E+03 E0= -.66977387E+03  d E =-.375749E-02  mag=     0.8671
       N       E                     dE             d eps       ncg     rms          ort
SDA:   1    -0.662592591303E+03    0.61692E+00    0.00000E+00   768   0.164E+01 0.000E+00
CGA:   2    -0.663063107788E+03   -0.47052E+00   -0.47047E+00   768   0.534E+00 0.431E-03
CGA:   3    -0.663171313694E+03   -0.10821E+00   -0.10819E+00   768   0.190E+00 0.659E-03
CGA:   4    -0.663197118323E+03   -0.25805E-01   -0.25803E-01   768   0.651E-01 0.320E-04
CGA:   5    -0.663205693803E+03   -0.85755E-02   -0.85716E-02   768   0.146E-01-0.863E-06
CGA:   6    -0.663208501689E+03   -0.28079E-02   -0.28079E-02   768   0.565E-02-0.482E-05
CGA:   7    -0.663209384294E+03   -0.88261E-03   -0.88258E-03   768   0.196E-02-0.699E-06
CGA:   8    -0.663209747590E+03   -0.36330E-03   -0.36329E-03   768   0.105E-02 0.807E-06
CGA:   9    -0.663209934400E+03   -0.18681E-03   -0.18682E-03   768   0.492E-03 0.242E-05
CGA:  10    -0.663210043229E+03   -0.10883E-03   -0.10882E-03   768   0.271E-03 0.238E-06
CGA:  11    -0.663210092857E+03   -0.49628E-04   -0.49630E-04   768   0.144E-03 0.621E-06
  84 F= -.66978465E+03 E0= -.66977493E+03  d E =-.477518E-02  mag=     0.8683
       N       E                     dE             d eps       ncg     rms          ort
SDA:   1    -0.662493536327E+03    0.71651E+00    0.00000E+00   768   0.190E+01 0.000E+00
CGA:   2    -0.663042462772E+03   -0.54893E+00   -0.54906E+00   768   0.618E+00-0.106E-02
CGA:   3    -0.663168950762E+03   -0.12649E+00   -0.12646E+00   768   0.211E+00 0.101E-02
CGA:   4    -0.663198015861E+03   -0.29065E-01   -0.29072E-01   768   0.759E-01 0.635E-04
CGA:   5    -0.663207763278E+03   -0.97474E-02   -0.97401E-02   768   0.163E-01 0.599E-05
CGA:   6    -0.663211079722E+03   -0.33164E-02   -0.33165E-02   768   0.597E-02-0.384E-05
CGA:   7    -0.663212021034E+03   -0.94131E-03   -0.94131E-03   768   0.223E-02-0.186E-06
CGA:   8    -0.663212428339E+03   -0.40730E-03   -0.40731E-03   768   0.118E-02 0.140E-05
CGA:   9    -0.663212637303E+03   -0.20896E-03   -0.20898E-03   768   0.541E-03 0.299E-05
CGA:  10    -0.663212761735E+03   -0.12443E-03   -0.12441E-03   768   0.301E-03 0.539E-06
CGA:  11    -0.663212815364E+03   -0.53630E-04   -0.53635E-04   768   0.163E-03 0.706E-06
  85 F= -.66978790E+03 E0= -.66977822E+03  d E =-.325623E-02  mag=     0.8690
       N       E                     dE             d eps       ncg     rms          ort
SDA:   1    -0.663144036397E+03    0.68725E-01    0.00000E+00   768   0.182E+00 0.000E+00
CGA:   2    -0.663196668776E+03   -0.52632E-01   -0.52636E-01   768   0.581E-01-0.303E-04
CGA:   3    -0.663208903806E+03   -0.12235E-01   -0.12234E-01   768   0.179E-01 0.215E-04
CGA:   4    -0.663211642780E+03   -0.27390E-02   -0.27390E-02   768   0.637E-02 0.479E-05
CGA:   5    -0.663212404465E+03   -0.76168E-03   -0.76147E-03   768   0.154E-02-0.104E-05
CGA:   6    -0.663212718395E+03   -0.31393E-03   -0.31396E-03   768   0.538E-03-0.147E-05
CGA:   7    -0.663212800837E+03   -0.82441E-04   -0.82438E-04   768   0.221E-03-0.964E-07
  86 F= -.66978805E+03 E0= -.66977838E+03  d E =-.340319E-02  mag=     0.8693
       N       E                     dE             d eps       ncg     rms          ort
SDA:   1    -0.662708145805E+03    0.50457E+00    0.00000E+00   768   0.133E+01 0.000E+00
CGA:   2    -0.663092704063E+03   -0.38456E+00   -0.38438E+00   768   0.463E+00 0.166E-02
CGA:   3    -0.663176830580E+03   -0.84127E-01   -0.84126E-01   768   0.211E+00-0.631E-04
CGA:   4    -0.663201835873E+03   -0.25005E-01   -0.25055E-01   768   0.569E-01-0.396E-04
CGA:   5    -0.663211022450E+03   -0.91866E-02   -0.91858E-02   768   0.117E-01-0.107E-04
CGA:   6    -0.663213387679E+03   -0.23652E-02   -0.23653E-02   768   0.502E-02-0.724E-05
CGA:   7    -0.663214131822E+03   -0.74414E-03   -0.74398E-03   768   0.183E-02-0.365E-05
CGA:   8    -0.663214455954E+03   -0.32413E-03   -0.32413E-03   768   0.946E-03-0.211E-06
CGA:   9    -0.663214642876E+03   -0.18692E-03   -0.18688E-03   768   0.422E-03 0.295E-05
CGA:  10    -0.663214738075E+03   -0.95199E-04   -0.95178E-04   768   0.274E-03 0.475E-06
  87 F= -.66979039E+03 E0= -.66978071E+03  d E =-.233962E-02  mag=     0.8702
       N       E                     dE             d eps       ncg     rms          ort
SDA:   1    -0.663208955299E+03    0.56876E-02    0.00000E+00   768   0.156E-01 0.000E+00
CGA:   2    -0.663213439840E+03   -0.44845E-02   -0.44848E-02   768   0.551E-02-0.186E-05
CGA:   3    -0.663214495861E+03   -0.10560E-02   -0.10560E-02   768   0.200E-02-0.223E-05
CGA:   4    -0.663214765921E+03   -0.27006E-03   -0.27008E-03   768   0.642E-03 0.435E-06
CGA:   5    -0.663214866752E+03   -0.10083E-03   -0.10084E-03   768   0.109E-03 0.285E-06
CGA:   6    -0.663214890083E+03   -0.23331E-04   -0.23308E-04   768   0.391E-04 0.841E-06
  88 F= -.66979050E+03 E0= -.66978082E+03  d E =-.244880E-02  mag=     0.8700
       N       E                     dE             d eps       ncg     rms          ort
SDA:   1    -0.662768342304E+03    0.44652E+00    0.00000E+00   768   0.117E+01 0.000E+00
CGA:   2    -0.663104393745E+03   -0.33605E+00   -0.33618E+00   768   0.434E+00-0.102E-02
CGA:   3    -0.663181582460E+03   -0.77189E-01   -0.77203E-01   768   0.175E+00 0.503E-03
CGA:   4    -0.663205078254E+03   -0.23496E-01   -0.23477E-01   768   0.488E-01 0.316E-04
CGA:   5    -0.663212595239E+03   -0.75170E-02   -0.75179E-02   768   0.133E-01 0.164E-04
CGA:   6    -0.663214772238E+03   -0.21770E-02   -0.21770E-02   768   0.573E-02-0.509E-06
CGA:   7    -0.663215694630E+03   -0.92239E-03   -0.92239E-03   768   0.199E-02-0.414E-06
CGA:   8    -0.663216068816E+03   -0.37419E-03   -0.37419E-03   768   0.976E-03 0.174E-08
CGA:   9    -0.663216265491E+03   -0.19668E-03   -0.19662E-03   768   0.527E-03 0.309E-05
CGA:  10    -0.663216361671E+03   -0.96179E-04   -0.96181E-04   768   0.265E-03 0.445E-06
  89 F= -.66979248E+03 E0= -.66978278E+03  d E =-.198421E-02  mag=     0.8706
       N       E                     dE             d eps       ncg     rms          ort
SDA:   1    -0.663210044084E+03    0.62214E-02    0.00000E+00   768   0.170E-01 0.000E+00
CGA:   2    -0.663214865513E+03   -0.48214E-02   -0.48215E-02   768   0.685E-02-0.388E-06
CGA:   3    -0.663215983557E+03   -0.11180E-02   -0.11180E-02   768   0.298E-02-0.180E-05
CGA:   4    -0.663216370489E+03   -0.38693E-03   -0.38694E-03   768   0.760E-03 0.939E-06
CGA:   5    -0.663216503213E+03   -0.13272E-03   -0.13272E-03   768   0.174E-03-0.314E-06
CGA:   6    -0.663216529675E+03   -0.26462E-04   -0.26471E-04   768   0.813E-04 0.276E-06
  90 F= -.66979259E+03 E0= -.66978289E+03  d E =-.209147E-02  mag=     0.8705
       N       E                     dE             d eps       ncg     rms          ort
SDA:   1    -0.663067029670E+03    0.14947E+00    0.00000E+00   768   0.397E+00 0.000E+00
CGA:   2    -0.663172647713E+03   -0.10562E+00   -0.10561E+00   768   0.189E+00 0.830E-04
CGA:   3    -0.663201971312E+03   -0.29324E-01   -0.29333E-01   768   0.738E-01 0.102E-03
CGA:   4    -0.663212758418E+03   -0.10787E-01   -0.10784E-01   768   0.199E-01-0.494E-05
CGA:   5    -0.663216064903E+03   -0.33065E-02   -0.33068E-02   768   0.584E-02 0.806E-05
CGA:   6    -0.663217115062E+03   -0.10502E-02   -0.10501E-02   768   0.252E-02-0.230E-05
CGA:   7    -0.663217545269E+03   -0.43021E-03   -0.43021E-03   768   0.125E-02-0.388E-06
CGA:   8    -0.663217752320E+03   -0.20705E-03   -0.20703E-03   768   0.563E-03-0.921E-06
CGA:   9    -0.663217875731E+03   -0.12341E-03   -0.12334E-03   768   0.250E-03 0.169E-05
CGA:  10    -0.663217927680E+03   -0.51949E-04   -0.51947E-04   768   0.126E-03 0.123E-06
  91 F= -.66979432E+03 E0= -.66978461E+03  d E =-.172768E-02  mag=     0.8704
