       N       E                     dE             d eps       ncg     rms          rms(c)
DAV:   1     0.265553527894E+04    0.26555E+04   -0.10764E+05  3896   0.119E+03
DAV:   2    -0.203147352433E+02   -0.26759E+04   -0.25849E+04  4688   0.308E+02
DAV:   3    -0.505490835228E+03   -0.48518E+03   -0.48142E+03  4064   0.149E+02
DAV:   4    -0.524527238374E+03   -0.19036E+02   -0.18597E+02  4288   0.410E+01
DAV:   5    -0.525340592003E+03   -0.81335E+00   -0.80582E+00  5000   0.669E+00    0.419E+01
DAV:   6    -0.499103569981E+03    0.26237E+02   -0.55379E+01  4360   0.265E+01    0.262E+01
DAV:   7    -0.493675719480E+03    0.54279E+01   -0.45296E+01  4176   0.184E+01    0.168E+01
DAV:   8    -0.491711713799E+03    0.19640E+01   -0.16505E+01  3976   0.123E+01    0.116E+01
DAV:   9    -0.491804312948E+03   -0.92599E-01   -0.15314E+01  4800   0.103E+01    0.674E+00
DAV:  10    -0.491210474300E+03    0.59384E+00   -0.65911E+00  4184   0.751E+00    0.329E+00
DAV:  11    -0.491138591824E+03    0.71882E-01   -0.27916E+00  4824   0.415E+00    0.230E+00
DAV:  12    -0.491043613820E+03    0.94978E-01   -0.15606E+00  4792   0.282E+00    0.134E+00
DAV:  13    -0.491010374979E+03    0.33239E-01   -0.23284E-01  3888   0.132E+00    0.570E-01
DAV:  14    -0.491009595435E+03    0.77954E-03   -0.57233E-02  4232   0.639E-01    0.341E-01
DAV:  15    -0.491008890200E+03    0.70523E-03   -0.26157E-02  4072   0.379E-01    0.251E-01
DAV:  16    -0.491008762091E+03    0.12811E-03   -0.11898E-02  4480   0.253E-01    0.159E-01
DAV:  17    -0.491008663860E+03    0.98231E-04   -0.54199E-03  4136   0.156E-01    0.919E-02
DAV:  18    -0.491008612065E+03    0.51795E-04   -0.15716E-03  2696   0.851E-02    0.428E-02
DAV:  19    -0.491008608860E+03    0.32048E-05   -0.25239E-04  2080   0.375E-02
   1 F= -.49523768E+03 E0= -.49523768E+03  d E =0.000000E+00  mag=    -0.0000
