 vasp.5.4.4.18Apr17-6-g9f103f2a35 (build Nov  8 2022 18:58:45) complex           
 executed on             LinuxGNU date 2023.04.13  15:54:37
 running on   48 total cores
 distrk:  each k-point on   48 cores,    1 groups
 distr:  one band on NCORES_PER_BAND=  12 cores,    4 groups


--------------------------------------------------------------------------------------------------------


 INCAR:
 POTCAR:    PAW_PBE C 08Apr2002                   
 POTCAR:    PAW_PBE N 08Apr2002                   
 POTCAR:    PAW_PBE Ge_d 03Jul2007                
 POTCAR:    PAW_PBE C 08Apr2002                   
 POTCAR:    PAW_PBE O 08Apr2002                   
 POTCAR:    PAW_PBE C 08Apr2002                   
   SHA256 =  253f7b50bb8d59471dbedb8285d89021f4a42ed1a2c5d38a03a736e69125dd95 C/
   COPYR  = (c) Copyright 08Apr2002 Georg Kresse                                
   COPYR  = This file is part of the software VASP. Any use, copying, and all ot
   COPYR  = If you do not have a valid VASP license, you may not use, copy or di
   VRHFIN =C: s2p2                                                              
   LEXCH  = PE                                                                  
   EATOM  =   147.1560 eV,   10.8157 Ry                                         
                                                                                
   TITEL  = PAW_PBE C 08Apr2002                                                 
   LULTRA =        F    use ultrasoft PP ?                                      
   IUNSCR =        1    unscreen: 0-lin 1-nonlin 2-no                           
   RPACOR =    1.200    partial core radius                                     
   POMASS =   12.011; ZVAL   =    4.000    mass and valenz                      
   RCORE  =    1.500    outmost cutoff radius                                   
   RWIGS  =    1.630; RWIGS  =    0.863    wigner-seitz radius (au A)           
   ENMAX  =  400.000; ENMIN  =  300.000 eV                                      
   ICORE  =        2    local potential                                         
   LCOR   =        T    correct aug charges                                     
   LPAW   =        T    paw PP                                                  
   EAUG   =  644.873                                                            
   DEXC   =    0.000                                                            
   RMAX   =    1.529    core radius for proj-oper                               
   RAUG   =    1.300    factor for augmentation sphere                          
   RDEP   =    1.501    radius for radial grids                                 
   RDEPT  =    1.300    core radius for aug-charge                              
                                                                                
   Atomic configuration                                                         
    4 entries                                                                   
     n  l   j            E        occ.                                          
     1  0  0.50      -273.3789   2.0000                                         
     2  0  0.50       -13.7508   2.0000                                         
     2  1  0.50        -5.2854   2.0000                                         
     3  2  1.50        -5.4423   0.0000                                         
   Description                                                                  
     l       E           TYP  RCUT    TYP  RCUT                                 
     0    -13.7508458     23  1.200                                             
     0     -8.2022199     23  1.200                                             
     1     -5.2854383     23  1.500                                             
     1     34.0145650     23  1.500                                             
     2     -5.4423304      7  1.500                                             
  local pseudopotential read in
  partial core-charges read in
  partial kinetic energy density read in
  atomic valenz-charges read in
  non local Contribution for L=           0  read in
    real space projection operators read in
  non local Contribution for L=           0  read in
    real space projection operators read in
  non local Contribution for L=           1  read in
    real space projection operators read in
  non local Contribution for L=           1  read in
    real space projection operators read in
    PAW grid and wavefunctions read in

   number of l-projection  operators is LMAX  =           4
   number of lm-projection operators is LMMAX =           8

 POTCAR:    PAW_PBE N 08Apr2002                   
   SHA256 =  e053789ff3a61a86a1b75d8a110fcc91f86041011e7b0817c7c99e4e8a6349d7 N/
   COPYR  = (c) Copyright 08Apr2002 Georg Kresse                                
   COPYR  = This file is part of the software VASP. Any use, copying, and all ot
   COPYR  = If you do not have a valid VASP license, you may not use, copy or di
   VRHFIN =N: s2p3                                                              
   LEXCH  = PE                                                                  
   EATOM  =   264.5486 eV,   19.4438 Ry                                         
                                                                                
   TITEL  = PAW_PBE N 08Apr2002                                                 
   LULTRA =        F    use ultrasoft PP ?                                      
   IUNSCR =        1    unscreen: 0-lin 1-nonlin 2-no                           
   RPACOR =    1.200    partial core radius                                     
   POMASS =   14.001; ZVAL   =    5.000    mass and valenz                      
   RCORE  =    1.500    outmost cutoff radius                                   
   RWIGS  =    1.400; RWIGS  =    0.741    wigner-seitz radius (au A)           
   ENMAX  =  400.000; ENMIN  =  300.000 eV                                      
   ICORE  =        2    local potential                                         
   LCOR   =        T    correct aug charges                                     
   LPAW   =        T    paw PP                                                  
   EAUG   =  627.112                                                            
   DEXC   =    0.000                                                            
   RMAX   =    1.529    core radius for proj-oper                               
   RAUG   =    1.300    factor for augmentation sphere                          
   RDEP   =    1.514    radius for radial grids                                 
   RDEPT  =    1.338    core radius for aug-charge                              
                                                                                
   Atomic configuration                                                         
    4 entries                                                                   
     n  l   j            E        occ.                                          
     1  0  0.50      -384.7179   2.0000                                         
     2  0  0.50       -18.5828   2.0000                                         
     2  1  0.50        -7.0898   3.0000                                         
     3  2  1.50        -6.8029   0.0000                                         
   Description                                                                  
     l       E           TYP  RCUT    TYP  RCUT                                 
     0    -18.5828119     23  1.200                                             
     0    -13.5018863     23  1.200                                             
     1     -7.0897853     23  1.500                                             
     1      9.5240782     23  1.500                                             
     2     -6.8029130      7  1.500                                             
  local pseudopotential read in
  partial core-charges read in
  partial kinetic energy density read in
  atomic valenz-charges read in
  non local Contribution for L=           0  read in
    real space projection operators read in
  non local Contribution for L=           0  read in
    real space projection operators read in
  non local Contribution for L=           1  read in
    real space projection operators read in
  non local Contribution for L=           1  read in
    real space projection operators read in
    PAW grid and wavefunctions read in

   number of l-projection  operators is LMAX  =           4
   number of lm-projection operators is LMMAX =           8

 POTCAR:    PAW_PBE Ge_d 03Jul2007                
   SHA256 =  944b26c40d2d7c4f4eb1ff3a2e8dbfdd7129146276cd341854bfd5c0e57780ed Ge
   COPYR  = (c) Copyright 03Jul2007 Georg Kresse                                
   COPYR  = This file is part of the software VASP. Any use, copying, and all ot
   COPYR  = If you do not have a valid VASP license, you may not use, copy or di
   VRHFIN =Ge: 3d4s4p                                                           
   LEXCH  = PE                                                                  
   EATOM  =  2596.2402 eV,  190.8183 Ry                                         
                                                                                
   TITEL  = PAW_PBE Ge_d 03Jul2007                                              
   LULTRA =        F    use ultrasoft PP ?                                      
   IUNSCR =        1    unscreen: 0-lin 1-nonlin 2-no                           
   RPACOR =    2.000    partial core radius                                     
   POMASS =   72.610; ZVAL   =   14.000    mass and valenz                      
   RCORE  =    2.300    outmost cutoff radius                                   
   RWIGS  =    2.300; RWIGS  =    1.217    wigner-seitz radius (au A)           
   ENMAX  =  310.294; ENMIN  =  232.720 eV                                      
   ICORE  =        3    local potential                                         
   LCOR   =        T    correct aug charges                                     
   LPAW   =        T    paw PP                                                  
   EAUG   =  531.356                                                            
   DEXC   =    0.000                                                            
   RMAX   =    2.342    core radius for proj-oper                               
   RAUG   =    1.300    factor for augmentation sphere                          
   RDEP   =    2.318    radius for radial grids                                 
   RDEPT  =    1.783    core radius for aug-charge                              
                                                                                
   Atomic configuration                                                         
    9 entries                                                                   
     n  l   j            E        occ.                                          
     1  0  0.50    -10959.8463   2.0000                                         
     2  0  0.50     -1371.6056   2.0000                                         
     2  1  1.50     -1198.4791   6.0000                                         
     3  0  0.50      -168.4733   2.0000                                         
     3  1  1.50      -115.6019   6.0000                                         
     3  2  2.50       -29.3106  10.0000                                         
     4  0  0.50       -11.7309   2.0000                                         
     4  1  0.50        -3.8952   2.0000                                         
     4  3  2.50        -4.0817   0.0000                                         
   Description                                                                  
     l       E           TYP  RCUT    TYP  RCUT                                 
     2    -29.3105938     23  2.200                                             
     2    -13.6058260     23  2.200                                             
     0    -11.7309493     23  2.300                                             
     0     -7.4578696     23  2.300                                             
     1     -3.8952261     23  2.300                                             
     1      6.1178114     23  2.300                                             
     3     -1.3605826     23  2.300                                             
  local pseudopotential read in
  partial core-charges read in
  partial kinetic energy density read in
  atomic valenz-charges read in
  non local Contribution for L=           2  read in
    real space projection operators read in
  non local Contribution for L=           2  read in
    real space projection operators read in
  non local Contribution for L=           0  read in
    real space projection operators read in
  non local Contribution for L=           0  read in
    real space projection operators read in
  non local Contribution for L=           1  read in
    real space projection operators read in
  non local Contribution for L=           1  read in
    real space projection operators read in
    PAW grid and wavefunctions read in

   number of l-projection  operators is LMAX  =           6
   number of lm-projection operators is LMMAX =          18

 POTCAR:    PAW_PBE C 08Apr2002                   
   SHA256 =  253f7b50bb8d59471dbedb8285d89021f4a42ed1a2c5d38a03a736e69125dd95 C/
   COPYR  = (c) Copyright 08Apr2002 Georg Kresse                                
   COPYR  = This file is part of the software VASP. Any use, copying, and all ot
   COPYR  = If you do not have a valid VASP license, you may not use, copy or di
   VRHFIN =C: s2p2                                                              
   LEXCH  = PE                                                                  
   EATOM  =   147.1560 eV,   10.8157 Ry                                         
                                                                                
   TITEL  = PAW_PBE C 08Apr2002                                                 
   LULTRA =        F    use ultrasoft PP ?                                      
   IUNSCR =        1    unscreen: 0-lin 1-nonlin 2-no                           
   RPACOR =    1.200    partial core radius                                     
   POMASS =   12.011; ZVAL   =    4.000    mass and valenz                      
   RCORE  =    1.500    outmost cutoff radius                                   
   RWIGS  =    1.630; RWIGS  =    0.863    wigner-seitz radius (au A)           
   ENMAX  =  400.000; ENMIN  =  300.000 eV                                      
   ICORE  =        2    local potential                                         
   LCOR   =        T    correct aug charges                                     
   LPAW   =        T    paw PP                                                  
   EAUG   =  644.873                                                            
   DEXC   =    0.000                                                            
   RMAX   =    1.529    core radius for proj-oper                               
   RAUG   =    1.300    factor for augmentation sphere                          
   RDEP   =    1.501    radius for radial grids                                 
   RDEPT  =    1.300    core radius for aug-charge                              
                                                                                
   Atomic configuration                                                         
    4 entries                                                                   
     n  l   j            E        occ.                                          
     1  0  0.50      -273.3789   2.0000                                         
     2  0  0.50       -13.7508   2.0000                                         
     2  1  0.50        -5.2854   2.0000                                         
     3  2  1.50        -5.4423   0.0000                                         
   Description                                                                  
     l       E           TYP  RCUT    TYP  RCUT                                 
     0    -13.7508458     23  1.200                                             
     0     -8.2022199     23  1.200                                             
     1     -5.2854383     23  1.500                                             
     1     34.0145650     23  1.500                                             
     2     -5.4423304      7  1.500                                             
  local pseudopotential read in
  partial core-charges read in
  partial kinetic energy density read in
  atomic valenz-charges read in
  non local Contribution for L=           0  read in
    real space projection operators read in
  non local Contribution for L=           0  read in
    real space projection operators read in
  non local Contribution for L=           1  read in
    real space projection operators read in
  non local Contribution for L=           1  read in
    real space projection operators read in
    PAW grid and wavefunctions read in

   number of l-projection  operators is LMAX  =           4
   number of lm-projection operators is LMMAX =           8

 POTCAR:    PAW_PBE O 08Apr2002                   
   SHA256 =  818f92134a0a090dccd8ba1447fa70422a3b330e708bb4f08108d8ae51209ddf O/
   COPYR  = (c) Copyright 08Apr2002 Georg Kresse                                
   COPYR  = This file is part of the software VASP. Any use, copying, and all ot
   COPYR  = If you do not have a valid VASP license, you may not use, copy or di
   VRHFIN =O: s2p4                                                              
   LEXCH  = PE                                                                  
   EATOM  =   432.3788 eV,   31.7789 Ry                                         
                                                                                
   TITEL  = PAW_PBE O 08Apr2002                                                 
   LULTRA =        F    use ultrasoft PP ?                                      
   IUNSCR =        1    unscreen: 0-lin 1-nonlin 2-no                           
   RPACOR =    1.200    partial core radius                                     
   POMASS =   16.000; ZVAL   =    6.000    mass and valenz                      
   RCORE  =    1.520    outmost cutoff radius                                   
   RWIGS  =    1.550; RWIGS  =    0.820    wigner-seitz radius (au A)           
   ENMAX  =  400.000; ENMIN  =  300.000 eV                                      
   ICORE  =        2    local potential                                         
   LCOR   =        T    correct aug charges                                     
   LPAW   =        T    paw PP                                                  
   EAUG   =  605.392                                                            
   DEXC   =    0.000                                                            
   RMAX   =    1.553    core radius for proj-oper                               
   RAUG   =    1.300    factor for augmentation sphere                          
   RDEP   =    1.550    radius for radial grids                                 
   RDEPT  =    1.329    core radius for aug-charge                              
                                                                                
   Atomic configuration                                                         
    4 entries                                                                   
     n  l   j            E        occ.                                          
     1  0  0.50      -514.6923   2.0000                                         
     2  0  0.50       -23.9615   2.0000                                         
     2  1  0.50        -9.0305   4.0000                                         
     3  2  1.50        -9.5241   0.0000                                         
   Description                                                                  
     l       E           TYP  RCUT    TYP  RCUT                                 
     0    -23.9615318     23  1.200                                             
     0     -9.5240782     23  1.200                                             
     1     -9.0304911     23  1.520                                             
     1      8.1634956     23  1.520                                             
     2     -9.5240782      7  1.500                                             
  local pseudopotential read in
  partial core-charges read in
  partial kinetic energy density read in
  kinetic energy density of atom read in
  atomic valenz-charges read in
  non local Contribution for L=           0  read in
    real space projection operators read in
  non local Contribution for L=           0  read in
    real space projection operators read in
  non local Contribution for L=           1  read in
    real space projection operators read in
  non local Contribution for L=           1  read in
    real space projection operators read in
    PAW grid and wavefunctions read in

   number of l-projection  operators is LMAX  =           4
   number of lm-projection operators is LMMAX =           8


 ----------------------------------------------------------------------------- 
|                                                                             |
|  ADVICE TO THIS USER RUNNING 'VASP/VAMP'   (HEAR YOUR MASTER'S VOICE ...):  |
|                                                                             |
|      You have a (more or less) 'large supercell' and for larger cells       |
|      it might be more efficient to use real space projection opertators     |
|      So try LREAL= Auto  in the INCAR   file.                               |
|      Mind:          For very  accurate calculation you might also keep the  |
|      reciprocal projection scheme          (i.e. LREAL=.FALSE.)             |
|                                                                             |
 ----------------------------------------------------------------------------- 

  PAW_PBE C 08Apr2002                   :
 energy of atom  1       EATOM= -147.1560
 kinetic energy error for atom=    0.0132 (will be added to EATOM!!)
  PAW_PBE N 08Apr2002                   :
 energy of atom  2       EATOM= -264.5486
 kinetic energy error for atom=    0.0298 (will be added to EATOM!!)
  PAW_PBE Ge_d 03Jul2007                :
 energy of atom  3       EATOM=-2596.2402
 kinetic energy error for atom=    0.0090 (will be added to EATOM!!)
  PAW_PBE C 08Apr2002                   :
 energy of atom  4       EATOM= -147.1560
 kinetic energy error for atom=    0.0132 (will be added to EATOM!!)
  PAW_PBE O 08Apr2002                   :
 energy of atom  5       EATOM= -432.3788
 kinetic energy error for atom=    0.0458 (will be added to EATOM!!)


 POSCAR: POSCAR-c3n4                             
  positions in direct lattice
  velocities in cartesian coordinates
 exchange correlation table for  LEXCH =        8
   RHO(1)=    0.500       N(1)  =     2000
   RHO(2)=  100.500       N(2)  =     4000



--------------------------------------------------------------------------------------------------------


 ion  position               nearest neighbor table
   1  0.091  0.190  0.343-  26 1.33  46 1.37  25 1.39
   2  0.286  0.415  0.350-  29 1.31  35 1.35  25 1.44
   3  0.069  0.372  0.330-  44 1.31  39 1.34  25 1.41
   4  0.478  0.002  0.494-  27 1.33  30 1.33  48 1.41
   5  0.463  0.412  0.394-  28 1.31  29 1.33  56 1.39
   6  0.122  0.047  0.433-  26 1.32  31 1.32  32 1.40
   7  0.067  0.690  0.499-  54 1.34  34 1.34  33 1.37
   8  0.285  0.846  0.561-  37 1.32  27 1.34  33 1.40
   9  0.133  0.910  0.546-  31 1.32  52 1.32  33 1.40
  10  0.418  0.572  0.471-  35 1.34  38 1.35  56 1.41
  11  0.454  0.908  0.665-  37 1.32  36 1.35  48 1.39
  12  0.047  0.503  0.438-  34 1.32  39 1.32  40 1.40
  13  0.658  0.205  0.471-  42 1.33  30 1.34  41 1.43
  14  0.749  0.396  0.338-  45 1.34  41 1.35  51 1.39
  15  0.618  0.385  0.465-  55 1.30  28 1.33  41 1.45
  16  0.915  0.038  0.438-  46 1.32  43 1.36  32 1.40
  17  0.922  0.413  0.282-  45 1.31  44 1.34  40 1.41
  18  0.665  0.099  0.613-  47 1.31  42 1.34  48 1.42
  19  0.560  0.700  0.613-  50 1.39  38 1.47  49 1.48  57 2.06
  20  0.782  0.918  0.571-  53 1.32  43 1.33  49 1.45
  21  0.636  0.921  0.686-  49 1.31  47 1.37  36 1.38
  22  0.910  0.586  0.379-  51 1.32  54 1.34  40 1.41
  23  0.983  0.957  0.584-  53 1.32  52 1.33  32 1.39
  24  0.587  0.533  0.550-  50 1.29  55 1.37  56 1.45
  25  0.154  0.324  0.314-   1 1.39   3 1.41   2 1.44
  26  0.164  0.136  0.357-   6 1.32   1 1.33
  27  0.355  0.903  0.475-   4 1.33   8 1.34
  28  0.528  0.351  0.390-   5 1.31  15 1.33
  29  0.367  0.375  0.325-   2 1.31   5 1.33
  30  0.550  0.101  0.428-   4 1.33  13 1.34
  31  0.181  0.983  0.461-   9 1.32   6 1.32
  32  0.006  0.015  0.487-  23 1.39  16 1.40   6 1.40
  33  0.151  0.801  0.556-   7 1.37   8 1.40   9 1.40
  34  0.093  0.592  0.513-  12 1.32   7 1.34
  35  0.314  0.523  0.408-  10 1.34   2 1.35
  36  0.512  0.863  0.729-  11 1.35  21 1.38  57 2.22
  37  0.324  0.842  0.656-  11 1.32   8 1.32
  38  0.456  0.674  0.538-  10 1.35  19 1.47  57 2.16
  39  0.071  0.405  0.429-  12 1.32   3 1.34
  40  0.974  0.516  0.358-  12 1.40  17 1.41  22 1.41
  41  0.699  0.334  0.430-  14 1.35  13 1.43  15 1.45
  42  0.724  0.211  0.557-  13 1.33  18 1.34
  43  0.790  0.968  0.476-  20 1.33  16 1.36
  44  0.004  0.376  0.248-   3 1.31  17 1.34
  45  0.794  0.346  0.267-  17 1.31  14 1.34
  46  0.960  0.128  0.362-  16 1.32   1 1.37
  47  0.719  0.057  0.681-  18 1.31  21 1.37
  48  0.529  0.009  0.594-  11 1.39   4 1.41  18 1.42
  49  0.656  0.846  0.622-  21 1.31  20 1.45  19 1.48
  50  0.623  0.628  0.616-  24 1.29  19 1.39
  51  0.789  0.531  0.342-  22 1.32  14 1.39
  52  0.060  0.915  0.621-   9 1.32  23 1.33
  53  0.873  0.924  0.634-  20 1.32  23 1.32
  54  0.975  0.693  0.442-   7 1.34  22 1.34
  55  0.647  0.460  0.547-  15 1.30  24 1.37
  56  0.488  0.504  0.472-   5 1.39  10 1.41  24 1.45
  57  0.392  0.645  0.697-  19 2.06  38 2.16  36 2.22
  58  0.376  0.572  0.940-  59 1.14
  59  0.316  0.532  0.014-  58 1.14


IMPORTANT INFORMATION: All symmetrisations will be switched off!
NOSYMM: (Re-)initialisation of all symmetry stuff for point group C_1.



 KPOINTS: K-Points                                

Automatic generation of k-mesh.
Space group operators:
 irot       det(A)        alpha          n_x          n_y          n_z        tau_x        tau_y        tau_z
    1     1.000000     0.000000     1.000000     0.000000     0.000000     0.000000     0.000000     0.000000
 
 Subroutine IBZKPT returns following result:
 ===========================================
 
 Found      5 irreducible k-points:
 
 Following reciprocal coordinates:
            Coordinates               Weight
  0.000000  0.000000  0.000000      1.000000
  0.333333  0.000000  0.000000      2.000000
  0.000000  0.333333  0.000000      2.000000
  0.333333  0.333333  0.000000      2.000000
 -0.333333  0.333333  0.000000      2.000000
 
 Following cartesian coordinates:
            Coordinates               Weight
  0.000000  0.000000  0.000000      1.000000
  0.024277  0.014368  0.000000      2.000000
  0.000396  0.028736  0.000000      2.000000
  0.024673  0.043104  0.000000      2.000000
 -0.023881  0.014368  0.000000      2.000000
 
 TETIRR: Found     24 inequivalent tetrahedra from       54


--------------------------------------------------------------------------------------------------------




 Dimension of arrays:
   k-points           NKPTS =      5   k-points in BZ     NKDIM =      5   number of bands    NBANDS=    172
   number of dos      NEDOS =   4000   number of ions     NIONS =     59
   non local maximal  LDIM  =      6   non local SUM 2l+1 LMDIM =     18
   total plane-waves  NPLWV = 268800
   max r-space proj   IRMAX =      1   max aug-charges    IRDMAX=   6099
   dimension x,y,z NGX =    64 NGY =   60 NGZ =   70
   dimension x,y,z NGXF=   128 NGYF=  120 NGZF=  140
   support grid    NGXF=   128 NGYF=  120 NGZF=  140
   ions per type =              24  32   1   1   1
   NGX,Y,Z   is equivalent  to a cutoff of   8.94,  8.53,  9.02 a.u.
   NGXF,Y,Z  is equivalent  to a cutoff of  17.87, 17.07, 18.04 a.u.

 SYSTEM =  unknown system                          
 POSCAR =  POSCAR-c3n4                             

 Startparameter for this run:
   NWRITE =      2    write-flag & timer
   PREC   = normal    normal or accurate (medium, high low for compatibility)
   ISTART =      0    job   : 0-new  1-cont  2-samecut
   ICHARG =      2    charge: 1-file 2-atom 10-const
   ISPIN  =      2    spin polarized calculation?
   LNONCOLLINEAR =      F non collinear calculations
   LSORBIT =      F    spin-orbit coupling
   INIWAV =      1    electr: 0-lowe 1-rand  2-diag
   LASPH  =      F    aspherical Exc in radial PAW
   METAGGA=      F    non-selfconsistent MetaGGA calc.

 Electronic Relaxation 1
   ENCUT  =  440.0 eV  32.34 Ry    5.69 a.u.  20.36 19.99 22.06*2*pi/ulx,y,z
   ENINI  =  440.0     initial cutoff
   ENAUG  =  644.9 eV  augmentation charge cutoff
   NELM   =    100;   NELMIN=  2; NELMDL= -5     # of ELM steps 
   EDIFF  = 0.1E-03   stopping-criterion for ELM
   LREAL  =      F    real-space projection
   NLSPLINE    = F    spline interpolate recip. space projectors
   LCOMPAT=      F    compatible to vasp.4.4
   GGA_COMPAT  = T    GGA compatible to vasp.4.4-vasp.4.6
   LMAXPAW     = -100 max onsite density
   LMAXMIX     =    2 max onsite mixed and CHGCAR
   VOSKOWN=      0    Vosko Wilk Nusair interpolation
   ROPT   =    0.00000   0.00000   0.00000   0.00000
   ROPT   =    0.00000
 Ionic relaxation
   EDIFFG = -.1E-01   stopping-criterion for IOM
   NSW    =      0    number of steps for IOM
   NBLOCK =      1;   KBLOCK =      1    inner block; outer block 
   IBRION =     -1    ionic relax: 0-MD 1-quasi-New 2-CG
   NFREE  =      0    steps in history (QN), initial steepest desc. (CG)
   ISIF   =      2    stress and relaxation
   IWAVPR =     10    prediction:  0-non 1-charg 2-wave 3-comb
   ISYM   =      0    0-nonsym 1-usesym 2-fastsym
   LCORR  =      T    Harris-Foulkes like correction to forces

   POTIM  = 0.5000    time-step for ionic-motion
   TEIN   =    0.0    initial temperature
   TEBEG  =    0.0;   TEEND  =   0.0 temperature during run
   SMASS  =  -3.00    Nose mass-parameter (am)
   estimated Nose-frequenzy (Omega)   =  0.10E-29 period in steps =****** mass=  -0.324E-26a.u.
   SCALEE = 1.0000    scale energy and forces
   NPACO  =    256;   APACO  = 16.0  distance and # of slots for P.C.
   PSTRESS=    0.0 pullay stress

  Mass of Ions in am
   POMASS =  12.01 14.00 72.61 12.01 16.00
  Ionic Valenz
   ZVAL   =   4.00  5.00 14.00  4.00  6.00
  Atomic Wigner-Seitz radii
   RWIGS  =  -1.00 -1.00 -1.00 -1.00 -1.00
  virtual crystal weights 
   VCA    =   1.00  1.00  1.00  1.00  1.00
   NELECT =     280.0000    total number of electrons
   NUPDOWN=      -1.0000    fix difference up-down

 DOS related values:
   EMIN   = -14.00;   EMAX   =  6.00  energy-range for DOS
   EFERMI =   0.00
   ISMEAR =    -5;   SIGMA  =   0.20  broadening in eV -4-tet -1-fermi 0-gaus

 Electronic relaxation 2 (details)
   IALGO  =     38    algorithm
   LDIAG  =      T    sub-space diagonalisation (order eigenvalues)
   LSUBROT=      F    optimize rotation matrix (better conditioning)
   TURBO    =      0    0=normal 1=particle mesh
   IRESTART =      0    0=no restart 2=restart with 2 vectors
   NREBOOT  =      0    no. of reboots
   NMIN     =      0    reboot dimension
   EREF     =   0.00    reference energy to select bands
   IMIX   =      4    mixing-type and parameters
     AMIX     =   0.25;   BMIX     =  0.00
     AMIX_MAG =   1.00;   BMIX_MAG =  0.00
     AMIN     =   0.10
     WC   =   100.;   INIMIX=   1;  MIXPRE=   1;  MAXMIX= -45

 Intra band minimization:
   WEIMIN = 0.0000     energy-eigenvalue tresh-hold
   EBREAK =  0.15E-06  absolut break condition
   DEPER  =   0.30     relativ break condition  

   TIME   =   0.40     timestep for ELM

  volume/ion in A,a.u.               =      25.97       175.24
  Fermi-wavevector in a.u.,A,eV,Ry     =   0.929038  1.755628 11.743358  0.863112
  Thomas-Fermi vector in A             =   2.055279

 Write flags
   LWAVE        =      F    write WAVECAR
   LDOWNSAMPLE  =      F    k-point downsampling of WAVECAR
   LCHARG       =      F    write CHGCAR
   LVTOT        =      F    write LOCPOT, total local potential
   LVHAR        =      F    write LOCPOT, Hartree potential only
   LELF         =      F    write electronic localiz. function (ELF)
   LORBIT       =     11    0 simple, 1 ext, 2 COOP (PROOUT), +10 PAW based schemes


 Dipole corrections
   LMONO  =      F    monopole corrections only (constant potential shift)
   LDIPOL =      F    correct potential (dipole corrections)
   IDIPOL =      0    1-x, 2-y, 3-z, 4-all directions 
   EPSILON=  1.0000000 bulk dielectric constant

 Exchange correlation treatment:
   GGA     =    --    GGA type
   LEXCH   =     8    internal setting for exchange type
   VOSKOWN=      0    Vosko Wilk Nusair interpolation
   LHFCALC =     F    Hartree Fock is set to
   LHFONE  =     F    Hartree Fock one center treatment
   AEXX    =    0.0000 exact exchange contribution

 Linear response parameters
   LEPSILON=     F    determine dielectric tensor
   LRPA    =     F    only Hartree local field effects (RPA)
   LNABLA  =     F    use nabla operator in PAW spheres
   LVEL    =     F    velocity operator in full k-point grid
   LINTERFAST=   F  fast interpolation
   KINTER  =     0    interpolate to denser k-point grid
   CSHIFT  =0.1000    complex shift for real part using Kramers Kronig
   OMEGAMAX=  -1.0    maximum frequency
   DEG_THRESHOLD= 0.2000000E-02 threshold for treating states as degnerate
   RTIME   =   -0.100 relaxation time in fs
  (WPLASMAI=    0.000 imaginary part of plasma frequency in eV, 0.658/RTIME)
   DFIELD  = 0.0000000 0.0000000 0.0000000 field for delta impulse in time

 Orbital magnetization related:
   ORBITALMAG=     F  switch on orbital magnetization
   LCHIMAG   =     F  perturbation theory with respect to B field
   DQ        =  0.001000  dq finite difference perturbation B field
   LLRAUG    =     F  two centre corrections for induced B field



--------------------------------------------------------------------------------------------------------


 Static calculation
 charge density and potential will be updated during run
 spin polarized calculation
 Variant of blocked Davidson
 Davidson routine will perform the subspace rotation
 perform sub-space diagonalisation
    after iterative eigenvector-optimisation
 modified Broyden-mixing scheme, WC =      100.0
 initial mixing is a Kerker type mixing with AMIX =  0.2500 and BMIX =      0.0001
 Hartree-type preconditioning will be used
 using additional bands           32
 reciprocal scheme for non local part
 use partial core corrections
 calculate Harris-corrections to forces   (improved forces if not selfconsistent)
 use gradient corrections 
 use of overlap-Matrix (Vanderbilt PP)
 Fermi weights with tetrahedron method with Bloechl corrections


--------------------------------------------------------------------------------------------------------


  energy-cutoff  :      440.00
  volume of cell :     1532.08
      direct lattice vectors                 reciprocal lattice vectors
    11.905344842 -0.164036808  0.000000000     0.084686476  0.050121063 -0.000000000
    -5.952672421 10.057864255  0.000000000     0.001381178  0.100242126 -0.000000000
     0.000000000  0.000000000 12.900000000    -0.000000000 -0.000000000  0.077519380

  length of vectors
    11.906474872 11.687383895 12.900000000     0.098406911  0.100251641  0.077519380



 k-points in units of 2pi/SCALE and weight: K-Points                                
   0.00000000  0.00000000  0.00000000       0.111
   0.02427679  0.01436804  0.00000000       0.222
   0.00039594  0.02873608  0.00000000       0.222
   0.02467273  0.04310411  0.00000000       0.222
  -0.02388085  0.01436804  0.00000000       0.222

 k-points in reciprocal lattice and weights: K-Points                                
   0.00000000  0.00000000  0.00000000       0.111
   0.33333333  0.00000000  0.00000000       0.222
   0.00000000  0.33333333  0.00000000       0.222
   0.33333333  0.33333333  0.00000000       0.222
  -0.33333333  0.33333333  0.00000000       0.222

 position of ions in fractional coordinates (direct lattice) 
   0.09129336  0.18963413  0.34256065
   0.28644985  0.41542023  0.34958446
   0.06889257  0.37190414  0.32966083
   0.47784046  0.00170763  0.49419914
   0.46274872  0.41214619  0.39394413
   0.12156992  0.04726111  0.43271699
   0.06702621  0.69034682  0.49905911
   0.28462834  0.84586882  0.56128799
   0.13266246  0.91049544  0.54587736
   0.41831748  0.57152779  0.47103413
   0.45362762  0.90817046  0.66527655
   0.04680506  0.50349306  0.43759364
   0.65783206  0.20480005  0.47115055
   0.74900904  0.39610783  0.33810552
   0.61773150  0.38536505  0.46476849
   0.91509649  0.03798753  0.43781378
   0.92153148  0.41307011  0.28239137
   0.66516959  0.09896946  0.61335691
   0.55966196  0.70030190  0.61269469
   0.78223205  0.91847236  0.57072899
   0.63648207  0.92133354  0.68632340
   0.90997650  0.58616487  0.37904800
   0.98309092  0.95707596  0.58441953
   0.58737664  0.53299032  0.55021777
   0.15447377  0.32422060  0.31394694
   0.16441638  0.13575964  0.35692372
   0.35507822  0.90285886  0.47542105
   0.52803123  0.35055777  0.39011913
   0.36705958  0.37519643  0.32450889
   0.55045694  0.10143847  0.42838254
   0.18061683  0.98291288  0.46115613
   0.00645548  0.01511421  0.48659327
   0.15050505  0.80148934  0.55579978
   0.09283850  0.59232429  0.51295146
   0.31428638  0.52277520  0.40804654
   0.51194900  0.86318964  0.72890839
   0.32430050  0.84204098  0.65642101
   0.45593150  0.67388670  0.53776392
   0.07070352  0.40534797  0.42930594
   0.97443677  0.51565831  0.35786936
   0.69882234  0.33409346  0.42974053
   0.72353894  0.21126402  0.55651666
   0.79019493  0.96821125  0.47607819
   0.00443695  0.37584891  0.24849308
   0.79375522  0.34590479  0.26691576
   0.95951809  0.12824971  0.36248127
   0.71927120  0.05735280  0.68050532
   0.52857998  0.00935835  0.59438238
   0.65597536  0.84626849  0.62207384
   0.62302437  0.62849578  0.61609410
   0.78898012  0.53073857  0.34207093
   0.05966023  0.91535690  0.62124508
   0.87273791  0.92429268  0.63360919
   0.97460141  0.69264171  0.44158557
   0.64678805  0.45977087  0.54707321
   0.48805247  0.50423222  0.47213311
   0.39209303  0.64452922  0.69749788
   0.37594928  0.57156413  0.93961509
   0.31554942  0.53176253  0.01395679

 position of ions in cartesian coordinates  (Angst):
  -0.04195090  1.89233887  4.41903239
   0.93742364  4.13125199  4.50963949
  -1.39363374  3.72926042  4.25262469
   5.67869054 -0.06120829  6.37516897
   3.05581186  4.06940265  5.08187930
   1.16600194  0.45540386  5.58204922
  -3.31143834  6.93241982  6.43786248
  -1.64658148  8.46094426  7.24061510
  -3.84048871  9.13587802  7.04181791
   1.57809618  5.67972942  6.07634028
  -0.00544805  9.05984359  8.58206744
  -2.43989893  5.05638714  5.64495792
   6.61260987  1.95194247  6.07784206
   6.55931069  3.86113375  4.36156115
   5.06035456  3.77461870  5.99551353
  10.66841191  0.23196390  5.64779782
   8.51227895  4.00343803  3.64284869
   7.32994055  0.88630910  7.91230408
   2.49430081  6.95173626  7.90376149
   3.84537718  9.10955545  7.36240399
   2.09314175  9.16224120  8.85357190
   7.34433666  5.74629701  4.88971925
   6.00687670  9.46487703  7.53901194
   3.82020467  5.26439288  7.09780923
  -0.09091553  3.23562735  4.04991556
   1.14930109  1.33848167  4.60431594
  -1.14709440  9.02258600  6.13293160
   4.19963829  3.43924595  5.03253681
   2.13654941  3.71346349  4.18616462
   5.94954970  0.92995915  5.52613470
  -3.70065273  9.85637649  5.94891412
  -0.01311521  0.15095770  6.27705322
  -2.97918900  8.03658262  7.16981713
  -2.42063815  5.94228838  6.61707378
   0.62977826  5.20644749  5.26380032
   0.95664419  8.59786571  9.40291822
  -1.15148484  8.41593665  8.46783099
   1.41659491  6.70307145  6.93715451
  -1.57115385  4.06533689  5.53804662
   8.53146084  5.02657775  4.61651476
   6.33097202  3.24563408  5.54365285
   7.35639507  2.00617783  7.17906486
   3.64409867  9.60851631  6.14140859
  -2.18448196  3.77950946  3.20556075
   7.39087170  3.34885833  3.44321326
  10.65996528  1.13252190  4.67600842
   8.22176925  0.45885976  8.77851865
   6.23721978  0.00741846  7.66753265
   2.77205381  8.40404949  8.02475253
   3.67609044  6.21912634  7.94761383
   6.23376750  5.20867475  4.41271503
  -4.73854420  9.19674901  8.01406147
   4.88823419  9.15324920  8.17355854
   7.47989668  6.80662580  5.69645385
   4.96336941  4.51821592  7.05724445
   2.80890369  4.99144062  6.09051716
   0.83133142  6.41826974  8.99772260
   1.07347173  5.68704495 12.12103472
   0.59131654  5.29663365  0.18004254



--------------------------------------------------------------------------------------------------------


 k-point  1 :   0.0000 0.0000 0.0000  plane waves:   32107
 k-point  2 :   0.3333 0.0000 0.0000  plane waves:   32068
 k-point  3 :   0.0000 0.3333 0.0000  plane waves:   32082
 k-point  4 :   0.3333 0.3333 0.0000  plane waves:   32093
 k-point  5 :  -0.3333 0.3333 0.0000  plane waves:   32111

 maximum and minimum number of plane-waves per node :      2692     2653

 maximum number of plane-waves:     32111
 maximum index in each direction: 
   IXMAX=   20   IYMAX=   19   IZMAX=   22
   IXMIN=  -20   IYMIN=  -20   IZMIN=  -22


 parallel 3D FFT for wavefunctions:
    minimum data exchange during FFTs selected (reduces bandwidth)
 parallel 3D FFT for charge:
    minimum data exchange during FFTs selected (reduces bandwidth)


 total amount of memory used by VASP MPI-rank0    70875. kBytes
=======================================================================

   base      :      30000. kBytes
   nonl-proj :      12159. kBytes
   fftplans  :       2461. kBytes
   grid      :       7332. kBytes
   one-center:        155. kBytes
   wavefun   :      18768. kBytes

     INWAV:  cpu time    0.0003: real time    0.0003
 Broyden mixing: mesh for mixing (old mesh)
   NGX = 41   NGY = 39   NGZ = 45
  (NGX  =128   NGY  =120   NGZ  =140)
  gives a total of  71955 points

 initial charge density was supplied:
 charge density of overlapping atoms calculated
 number of electron     280.0000000 magnetization       2.0000000
 keeping initial charge density in first step


--------------------------------------------------------------------------------------------------------


 Maximum index for augmentation-charges          332 (set IRDMAX)


--------------------------------------------------------------------------------------------------------


 First call to EWALD:  gamma=   0.154
 Maximum number of real-space cells 3x 3x 3
 Maximum number of reciprocal cells 3x 3x 3

    FEWALD:  cpu time    0.0035: real time    0.0035


--------------------------------------- Iteration      1(   1)  ---------------------------------------


    POTLOK:  cpu time    0.0982: real time    0.1120
    SETDIJ:  cpu time    0.0104: real time    0.0105
     EDDAV:  cpu time    7.5535: real time    7.5583
 BZINTS: Fermi energy: 11.745281;280.000000 electrons
         Band energy:***********;  BLOECHL correction: -0.036323
       DOS:  cpu time    0.3210: real time    0.3210
    --------------------------------------------
      LOOP:  cpu time    7.9832: real time    8.0018

 eigenvalue-minimisations  :  3712
 total energy-change (2. order) : 0.2584404E+04  (-0.1127604E+05)
 number of electron     280.0000000 magnetization       2.0000000
 augmentation part      280.0000000 magnetization       2.0000000

 Free energy of the ion-electron system (eV)
  ---------------------------------------------------
  alpha Z        PSCENC =       243.21195820
  Ewald energy   TEWEN  =     14966.79122306
  -Hartree energ DENC   =    -27328.01875735
  -exchange      EXHF   =         0.00000000
  -V(xc)+E(xc)   XCENC  =      1069.72156864
  PAW double counting   =     11453.83848114   -11942.90478952
  entropy T*S    EENTRO =         0.00000000
  eigenvalues    EBANDS =     -1049.97202727
  atomic energy  EATOM  =     15171.73615219
  Solvation  Ediel_sol  =         0.00000000
  ---------------------------------------------------
  free energy    TOTEN  =      2584.40380910 eV

  energy without entropy =     2584.40380910  energy(sigma->0) =     2584.40380910


--------------------------------------------------------------------------------------------------------




--------------------------------------- Iteration      1(   2)  ---------------------------------------


     EDDAV:  cpu time    8.8523: real time    8.8559
 BZINTS: Fermi energy: -1.111777;280.000000 electrons
         Band energy:***********;  BLOECHL correction:  0.000000
       DOS:  cpu time    0.0185: real time    0.0185
    --------------------------------------------
      LOOP:  cpu time    8.8708: real time    8.8744

 eigenvalue-minimisations  :  4544
 total energy-change (2. order) :-0.2685987E+04  (-0.2598438E+04)
 number of electron     280.0000000 magnetization       2.0000000
 augmentation part      280.0000000 magnetization       2.0000000

 Free energy of the ion-electron system (eV)
  ---------------------------------------------------
  alpha Z        PSCENC =       243.21195820
  Ewald energy   TEWEN  =     14966.79122306
  -Hartree energ DENC   =    -27328.01875735
  -exchange      EXHF   =         0.00000000
  -V(xc)+E(xc)   XCENC  =      1069.72156864
  PAW double counting   =     11453.83848114   -11942.90478952
  entropy T*S    EENTRO =         0.00000000
  eigenvalues    EBANDS =     -3735.95901572
  atomic energy  EATOM  =     15171.73615219
  Solvation  Ediel_sol  =         0.00000000
  ---------------------------------------------------
  free energy    TOTEN  =      -101.58317935 eV

  energy without entropy =     -101.58317935  energy(sigma->0) =     -101.58317935


--------------------------------------------------------------------------------------------------------




--------------------------------------- Iteration      1(   3)  ---------------------------------------


     EDDAV:  cpu time    7.8453: real time    7.8555
 BZINTS: Fermi energy: -3.912166;280.000000 electrons
         Band energy:***********;  BLOECHL correction:  0.000000
       DOS:  cpu time    0.0160: real time    0.0160
    --------------------------------------------
      LOOP:  cpu time    7.8613: real time    7.8715

 eigenvalue-minimisations  :  3932
 total energy-change (2. order) :-0.4016723E+03  (-0.3973783E+03)
 number of electron     280.0000000 magnetization       2.0000000
 augmentation part      280.0000000 magnetization       2.0000000

 Free energy of the ion-electron system (eV)
  ---------------------------------------------------
  alpha Z        PSCENC =       243.21195820
  Ewald energy   TEWEN  =     14966.79122306
  -Hartree energ DENC   =    -27328.01875735
  -exchange      EXHF   =         0.00000000
  -V(xc)+E(xc)   XCENC  =      1069.72156864
  PAW double counting   =     11453.83848114   -11942.90478952
  entropy T*S    EENTRO =         0.00000000
  eigenvalues    EBANDS =     -4137.63132797
  atomic energy  EATOM  =     15171.73615219
  Solvation  Ediel_sol  =         0.00000000
  ---------------------------------------------------
  free energy    TOTEN  =      -503.25549160 eV

  energy without entropy =     -503.25549160  energy(sigma->0) =     -503.25549160


--------------------------------------------------------------------------------------------------------




--------------------------------------- Iteration      1(   4)  ---------------------------------------


     EDDAV:  cpu time    8.2283: real time    8.2313
 BZINTS: Fermi energy: -4.161290;280.000000 electrons
         Band energy:***********;  BLOECHL correction:  0.000000
       DOS:  cpu time    0.0155: real time    0.0155
    --------------------------------------------
      LOOP:  cpu time    8.2439: real time    8.2468

 eigenvalue-minimisations  :  4336
 total energy-change (2. order) :-0.1621905E+02  (-0.1594191E+02)
 number of electron     280.0000000 magnetization       2.0000000
 augmentation part      280.0000000 magnetization       2.0000000

 Free energy of the ion-electron system (eV)
  ---------------------------------------------------
  alpha Z        PSCENC =       243.21195820
  Ewald energy   TEWEN  =     14966.79122306
  -Hartree energ DENC   =    -27328.01875735
  -exchange      EXHF   =         0.00000000
  -V(xc)+E(xc)   XCENC  =      1069.72156864
  PAW double counting   =     11453.83848114   -11942.90478952
  entropy T*S    EENTRO =         0.00000000
  eigenvalues    EBANDS =     -4153.85038177
  atomic energy  EATOM  =     15171.73615219
  Solvation  Ediel_sol  =         0.00000000
  ---------------------------------------------------
  free energy    TOTEN  =      -519.47454540 eV

  energy without entropy =     -519.47454540  energy(sigma->0) =     -519.47454540


--------------------------------------------------------------------------------------------------------




--------------------------------------- Iteration      1(   5)  ---------------------------------------


     EDDAV:  cpu time    8.6142: real time    8.6221
 BZINTS: Fermi energy: -4.170043;280.000000 electrons
         Band energy:***********;  BLOECHL correction:  0.000000
       DOS:  cpu time    0.0157: real time    0.0157
    CHARGE:  cpu time    0.1723: real time    0.1726
    MIXING:  cpu time    0.0024: real time    0.0024
    --------------------------------------------
      LOOP:  cpu time    8.8046: real time    8.8127

 eigenvalue-minimisations  :  4744
 total energy-change (2. order) :-0.6012078E+00  (-0.5976813E+00)
 number of electron     279.9999952 magnetization       0.0000001
 augmentation part       20.1545109 magnetization       0.0295856

 Broyden mixing:
  rms(total) = 0.42204E+01    rms(broyden)= 0.42177E+01
  rms(prec ) = 0.47914E+01
  weight for this iteration     100.00

 Free energy of the ion-electron system (eV)
  ---------------------------------------------------
  alpha Z        PSCENC =       243.21195820
  Ewald energy   TEWEN  =     14966.79122306
  -Hartree energ DENC   =    -27328.01875735
  -exchange      EXHF   =         0.00000000
  -V(xc)+E(xc)   XCENC  =      1069.72156864
  PAW double counting   =     11453.83848114   -11942.90478952
  entropy T*S    EENTRO =         0.00000000
  eigenvalues    EBANDS =     -4154.45158961
  atomic energy  EATOM  =     15171.73615219
  Solvation  Ediel_sol  =         0.00000000
  ---------------------------------------------------
  free energy    TOTEN  =      -520.07575324 eV

  energy without entropy =     -520.07575324  energy(sigma->0) =     -520.07575324


--------------------------------------------------------------------------------------------------------




--------------------------------------- Iteration      1(   6)  ---------------------------------------


    POTLOK:  cpu time    0.0790: real time    0.0797
    SETDIJ:  cpu time    0.0090: real time    0.0090
     EDDAV:  cpu time    8.5982: real time    8.6017
 BZINTS: Fermi energy: -3.471118;280.000000 electrons
         Band energy:***********;  BLOECHL correction:  0.000000
       DOS:  cpu time    0.0160: real time    0.0160
    CHARGE:  cpu time    0.1792: real time    0.1792
    MIXING:  cpu time    0.0026: real time    0.0066
    --------------------------------------------
      LOOP:  cpu time    8.8840: real time    8.8922

 eigenvalue-minimisations  :  4336
 total energy-change (2. order) : 0.2698598E+02  (-0.4559004E+01)
 number of electron     279.9999958 magnetization      -0.0000000
 augmentation part       19.0491156 magnetization       0.0070277

 Broyden mixing:
  rms(total) = 0.25872E+01    rms(broyden)= 0.25870E+01
  rms(prec ) = 0.27989E+01
  weight for this iteration     100.00

 eigenvalues of (default mixing * dielectric matrix)
  average eigenvalue GAMMA=   1.4671
  1.4671

 Free energy of the ion-electron system (eV)
  ---------------------------------------------------
  alpha Z        PSCENC =       243.21195820
  Ewald energy   TEWEN  =     14966.79122306
  -Hartree energ DENC   =    -27591.00855658
  -exchange      EXHF   =         0.00000000
  -V(xc)+E(xc)   XCENC  =      1084.47776572
  PAW double counting   =     15040.57412875   -15532.26547884
  entropy T*S    EENTRO =         0.00000000
  eigenvalues    EBANDS =     -3876.60696889
  atomic energy  EATOM  =     15171.73615219
  Solvation  Ediel_sol  =         0.00000000
  ---------------------------------------------------
  free energy    TOTEN  =      -493.08977639 eV

  energy without entropy =     -493.08977639  energy(sigma->0) =     -493.08977639


--------------------------------------------------------------------------------------------------------




--------------------------------------- Iteration      1(   7)  ---------------------------------------


    POTLOK:  cpu time    0.0694: real time    0.0740
    SETDIJ:  cpu time    0.0093: real time    0.0093
     EDDAV:  cpu time    8.7446: real time    8.7458
 BZINTS: Fermi energy: -2.835959;280.000000 electrons
         Band energy:***********;  BLOECHL correction:  0.000000
       DOS:  cpu time    0.0154: real time    0.0154
    CHARGE:  cpu time    0.1820: real time    0.1820
    MIXING:  cpu time    0.0016: real time    0.0021
    --------------------------------------------
      LOOP:  cpu time    9.0224: real time    9.0287

 eigenvalue-minimisations  :  4288
 total energy-change (2. order) : 0.6235294E+01  (-0.2353606E+01)
 number of electron     279.9999961 magnetization       0.0000000
 augmentation part       18.5346816 magnetization      -0.0006001

 Broyden mixing:
  rms(total) = 0.15871E+01    rms(broyden)= 0.15868E+01
  rms(prec ) = 0.16547E+01
  weight for this iteration     100.00

 eigenvalues of (default mixing * dielectric matrix)
  average eigenvalue GAMMA=   1.8914
  1.1812  2.6016

 Free energy of the ion-electron system (eV)
  ---------------------------------------------------
  alpha Z        PSCENC =       243.21195820
  Ewald energy   TEWEN  =     14966.79122306
  -Hartree energ DENC   =    -27844.69320865
  -exchange      EXHF   =         0.00000000
  -V(xc)+E(xc)   XCENC  =      1096.67371522
  PAW double counting   =     20262.54854890   -20757.62330720
  entropy T*S    EENTRO =         0.00000000
  eigenvalues    EBANDS =     -3625.49956460
  atomic energy  EATOM  =     15171.73615219
  Solvation  Ediel_sol  =         0.00000000
  ---------------------------------------------------
  free energy    TOTEN  =      -486.85448288 eV

  energy without entropy =     -486.85448288  energy(sigma->0) =     -486.85448288


--------------------------------------------------------------------------------------------------------




--------------------------------------- Iteration      1(   8)  ---------------------------------------


    POTLOK:  cpu time    0.0731: real time    0.0737
    SETDIJ:  cpu time    0.0094: real time    0.0094
     EDDAV:  cpu time    8.4719: real time    8.4725
 BZINTS: Fermi energy: -2.495874;280.000000 electrons
         Band energy:***********;  BLOECHL correction:  0.000000
       DOS:  cpu time    0.0153: real time    0.0153
    CHARGE:  cpu time    0.1820: real time    0.1820
    MIXING:  cpu time    0.0016: real time    0.0016
    --------------------------------------------
      LOOP:  cpu time    8.7533: real time    8.7545

 eigenvalue-minimisations  :  4144
 total energy-change (2. order) : 0.1128660E+01  (-0.3859380E+00)
 number of electron     279.9999962 magnetization      -0.0000000
 augmentation part       18.5076094 magnetization       0.0005448

 Broyden mixing:
  rms(total) = 0.67930E+00    rms(broyden)= 0.67925E+00
  rms(prec ) = 0.69915E+00
  weight for this iteration     100.00

 eigenvalues of (default mixing * dielectric matrix)
  average eigenvalue GAMMA=   2.0449
  3.7317  1.0494  1.3536

 Free energy of the ion-electron system (eV)
  ---------------------------------------------------
  alpha Z        PSCENC =       243.21195820
  Ewald energy   TEWEN  =     14966.79122306
  -Hartree energ DENC   =    -27959.19079183
  -exchange      EXHF   =         0.00000000
  -V(xc)+E(xc)   XCENC  =      1102.05116212
  PAW double counting   =     26137.39270803   -26636.87557354
  entropy T*S    EENTRO =         0.00000000
  eigenvalues    EBANDS =     -3510.84266144
  atomic energy  EATOM  =     15171.73615219
  Solvation  Ediel_sol  =         0.00000000
  ---------------------------------------------------
  free energy    TOTEN  =      -485.72582321 eV

  energy without entropy =     -485.72582321  energy(sigma->0) =     -485.72582321


--------------------------------------------------------------------------------------------------------




--------------------------------------- Iteration      1(   9)  ---------------------------------------


    POTLOK:  cpu time    0.0743: real time    0.0750
    SETDIJ:  cpu time    0.0096: real time    0.0096
     EDDAV:  cpu time    7.5620: real time    7.5626
 BZINTS: Fermi energy: -2.420855;280.000000 electrons
         Band energy:***********;  BLOECHL correction:  0.000000
       DOS:  cpu time    0.0142: real time    0.0142
    CHARGE:  cpu time    0.1694: real time    0.1694
    MIXING:  cpu time    0.0016: real time    0.0016
    --------------------------------------------
      LOOP:  cpu time    7.8310: real time    7.8324

 eigenvalue-minimisations  :  3912
 total energy-change (2. order) :-0.8847161E-02  (-0.8435364E-01)
 number of electron     279.9999963 magnetization       0.0000000
 augmentation part       18.4431633 magnetization      -0.0007289

 Broyden mixing:
  rms(total) = 0.22257E+00    rms(broyden)= 0.22253E+00
  rms(prec ) = 0.24181E+00
  weight for this iteration     100.00

 eigenvalues of (default mixing * dielectric matrix)
  average eigenvalue GAMMA=   1.9135
  3.8482  1.0269  1.4779  1.3011

 Free energy of the ion-electron system (eV)
  ---------------------------------------------------
  alpha Z        PSCENC =       243.21195820
  Ewald energy   TEWEN  =     14966.79122306
  -Hartree energ DENC   =    -27986.09688465
  -exchange      EXHF   =         0.00000000
  -V(xc)+E(xc)   XCENC  =      1104.18872108
  PAW double counting   =     29709.08904684   -30210.31881622
  entropy T*S    EENTRO =         0.00000000
  eigenvalues    EBANDS =     -3484.33607088
  atomic energy  EATOM  =     15171.73615219
  Solvation  Ediel_sol  =         0.00000000
  ---------------------------------------------------
  free energy    TOTEN  =      -485.73467037 eV

  energy without entropy =     -485.73467037  energy(sigma->0) =     -485.73467037


--------------------------------------------------------------------------------------------------------




--------------------------------------- Iteration      1(  10)  ---------------------------------------


    POTLOK:  cpu time    0.0721: real time    0.0726
    SETDIJ:  cpu time    0.0091: real time    0.0091
     EDDAV:  cpu time    7.5803: real time    7.5822
 BZINTS: Fermi energy: -2.465866;280.000000 electrons
         Band energy:***********;  BLOECHL correction:  0.000000
       DOS:  cpu time    0.0148: real time    0.0148
    CHARGE:  cpu time    0.1664: real time    0.1664
    MIXING:  cpu time    0.0016: real time    0.0016
    --------------------------------------------
      LOOP:  cpu time    7.8442: real time    7.8467

 eigenvalue-minimisations  :  4056
 total energy-change (2. order) : 0.5043889E-01  (-0.1894705E-01)
 number of electron     279.9999962 magnetization       0.0000000
 augmentation part       18.4529946 magnetization      -0.0002926

 Broyden mixing:
  rms(total) = 0.10644E+00    rms(broyden)= 0.10642E+00
  rms(prec ) = 0.11509E+00
  weight for this iteration     100.00

 eigenvalues of (default mixing * dielectric matrix)
  average eigenvalue GAMMA=   1.8848
  3.8783  2.2226  1.1722  1.1722  0.9787

 Free energy of the ion-electron system (eV)
  ---------------------------------------------------
  alpha Z        PSCENC =       243.21195820
  Ewald energy   TEWEN  =     14966.79122306
  -Hartree energ DENC   =    -27960.58194636
  -exchange      EXHF   =         0.00000000
  -V(xc)+E(xc)   XCENC  =      1103.38308728
  PAW double counting   =     30298.70823836   -30799.59130609
  entropy T*S    EENTRO =         0.00000000
  eigenvalues    EBANDS =     -3509.34163813
  atomic energy  EATOM  =     15171.73615219
  Solvation  Ediel_sol  =         0.00000000
  ---------------------------------------------------
  free energy    TOTEN  =      -485.68423148 eV

  energy without entropy =     -485.68423148  energy(sigma->0) =     -485.68423148


--------------------------------------------------------------------------------------------------------




--------------------------------------- Iteration      1(  11)  ---------------------------------------


    POTLOK:  cpu time    0.0724: real time    0.0729
    SETDIJ:  cpu time    0.0092: real time    0.0092
     EDDAV:  cpu time    7.3550: real time    7.3555
 BZINTS: Fermi energy: -2.505876;280.000000 electrons
         Band energy:***********;  BLOECHL correction:  0.000000
       DOS:  cpu time    0.0146: real time    0.0146
    CHARGE:  cpu time    0.1663: real time    0.1663
    MIXING:  cpu time    0.0018: real time    0.0018
    --------------------------------------------
      LOOP:  cpu time    7.6192: real time    7.6203

 eigenvalue-minimisations  :  3856
 total energy-change (2. order) : 0.1141928E-01  (-0.5489098E-02)
 number of electron     279.9999962 magnetization      -0.0000000
 augmentation part       18.4697381 magnetization       0.0000501

 Broyden mixing:
  rms(total) = 0.42581E-01    rms(broyden)= 0.42565E-01
  rms(prec ) = 0.46409E-01
  weight for this iteration     100.00

 eigenvalues of (default mixing * dielectric matrix)
  average eigenvalue GAMMA=   1.8262
  3.8500  2.5143  1.3401  0.9907  1.1311  1.1311

 Free energy of the ion-electron system (eV)
  ---------------------------------------------------
  alpha Z        PSCENC =       243.21195820
  Ewald energy   TEWEN  =     14966.79122306
  -Hartree energ DENC   =    -27947.64415799
  -exchange      EXHF   =         0.00000000
  -V(xc)+E(xc)   XCENC  =      1102.83493954
  PAW double counting   =     30531.82801169   -31032.47176348
  entropy T*S    EENTRO =         0.00000000
  eigenvalues    EBANDS =     -3521.95917542
  atomic energy  EATOM  =     15171.73615219
  Solvation  Ediel_sol  =         0.00000000
  ---------------------------------------------------
  free energy    TOTEN  =      -485.67281220 eV

  energy without entropy =     -485.67281220  energy(sigma->0) =     -485.67281220


--------------------------------------------------------------------------------------------------------




--------------------------------------- Iteration      1(  12)  ---------------------------------------


    POTLOK:  cpu time    0.0767: real time    0.0772
    SETDIJ:  cpu time    0.0092: real time    0.0092
     EDDAV:  cpu time    8.6977: real time    8.7008
 BZINTS: Fermi energy: -2.520880;280.000000 electrons
         Band energy:***********;  BLOECHL correction:  0.000000
       DOS:  cpu time    0.0157: real time    0.0157
    CHARGE:  cpu time    0.1814: real time    0.1814
    MIXING:  cpu time    0.0020: real time    0.0020
    --------------------------------------------
      LOOP:  cpu time    8.9829: real time    8.9865

 eigenvalue-minimisations  :  4336
 total energy-change (2. order) : 0.1832420E-02  (-0.7897212E-03)
 number of electron     279.9999962 magnetization       0.0000000
 augmentation part       18.4712451 magnetization       0.0000150

 Broyden mixing:
  rms(total) = 0.18827E-01    rms(broyden)= 0.18822E-01
  rms(prec ) = 0.19979E-01
  weight for this iteration     100.00

 eigenvalues of (default mixing * dielectric matrix)
  average eigenvalue GAMMA=   1.8175
  3.8477  2.8081  1.5528  0.9658  1.0300  1.2590  1.2590

 Free energy of the ion-electron system (eV)
  ---------------------------------------------------
  alpha Z        PSCENC =       243.21195820
  Ewald energy   TEWEN  =     14966.79122306
  -Hartree energ DENC   =    -27945.38681254
  -exchange      EXHF   =         0.00000000
  -V(xc)+E(xc)   XCENC  =      1102.70550008
  PAW double counting   =     30582.37268303   -31082.89394508
  entropy T*S    EENTRO =         0.00000000
  eigenvalues    EBANDS =     -3524.20773873
  atomic energy  EATOM  =     15171.73615219
  Solvation  Ediel_sol  =         0.00000000
  ---------------------------------------------------
  free energy    TOTEN  =      -485.67097978 eV

  energy without entropy =     -485.67097978  energy(sigma->0) =     -485.67097978


--------------------------------------------------------------------------------------------------------




--------------------------------------- Iteration      1(  13)  ---------------------------------------


    POTLOK:  cpu time    0.0738: real time    0.0745
    SETDIJ:  cpu time    0.0097: real time    0.0097
     EDDAV:  cpu time    8.1118: real time    8.1124
 BZINTS: Fermi energy: -2.520880;280.000000 electrons
         Band energy:***********;  BLOECHL correction:  0.000000
       DOS:  cpu time    0.0152: real time    0.0152
    CHARGE:  cpu time    0.1823: real time    0.1823
    MIXING:  cpu time    0.0019: real time    0.0019
    --------------------------------------------
      LOOP:  cpu time    8.3945: real time    8.3958

 eigenvalue-minimisations  :  3888
 total energy-change (2. order) : 0.1639302E-04  (-0.2330258E-03)
 number of electron     279.9999962 magnetization       0.0000000
 augmentation part       18.4706341 magnetization       0.0000123

 Broyden mixing:
  rms(total) = 0.95974E-02    rms(broyden)= 0.95942E-02
  rms(prec ) = 0.10100E-01
  weight for this iteration     100.00

 eigenvalues of (default mixing * dielectric matrix)
  average eigenvalue GAMMA=   1.7682
  3.7923  2.9280  1.5306  1.3905  1.3905  1.0229  1.0453  1.0453

 Free energy of the ion-electron system (eV)
  ---------------------------------------------------
  alpha Z        PSCENC =       243.21195820
  Ewald energy   TEWEN  =     14966.79122306
  -Hartree energ DENC   =    -27945.37192470
  -exchange      EXHF   =         0.00000000
  -V(xc)+E(xc)   XCENC  =      1102.68246992
  PAW double counting   =     30610.35820474   -31110.85088885
  entropy T*S    EENTRO =         0.00000000
  eigenvalues    EBANDS =     -3524.22815795
  atomic energy  EATOM  =     15171.73615219
  Solvation  Ediel_sol  =         0.00000000
  ---------------------------------------------------
  free energy    TOTEN  =      -485.67096339 eV

  energy without entropy =     -485.67096339  energy(sigma->0) =     -485.67096339


--------------------------------------------------------------------------------------------------------




--------------------------------------- Iteration      1(  14)  ---------------------------------------


    POTLOK:  cpu time    0.0766: real time    0.0774
    SETDIJ:  cpu time    0.0095: real time    0.0095
     EDDAV:  cpu time    6.0220: real time    6.0227
 BZINTS: Fermi energy: -2.520880;280.000000 electrons
         Band energy:***********;  BLOECHL correction:  0.000000
       DOS:  cpu time    0.0156: real time    0.0156
    --------------------------------------------
      LOOP:  cpu time    6.1237: real time    6.1252

 eigenvalue-minimisations  :  2552
 total energy-change (2. order) : 0.9676041E-05  (-0.2863330E-04)
 number of electron     279.9999962 magnetization       0.0000000
 augmentation part       18.4706341 magnetization       0.0000123

 Free energy of the ion-electron system (eV)
  ---------------------------------------------------
  alpha Z        PSCENC =       243.21195820
  Ewald energy   TEWEN  =     14966.79122306
  -Hartree energ DENC   =    -27945.62009438
  -exchange      EXHF   =         0.00000000
  -V(xc)+E(xc)   XCENC  =      1102.68638225
  PAW double counting   =     30607.09525169   -31107.58719348
  entropy T*S    EENTRO =         0.00000000
  eigenvalues    EBANDS =     -3523.98463325
  atomic energy  EATOM  =     15171.73615219
  Solvation  Ediel_sol  =         0.00000000
  ---------------------------------------------------
  free energy    TOTEN  =      -485.67095371 eV

  energy without entropy =     -485.67095371  energy(sigma->0) =     -485.67095371


--------------------------------------------------------------------------------------------------------




 average (electrostatic) potential at core
  the test charge radii are     0.6991  0.7089  0.9911  0.6991  0.7215
  (the norm of the test charge is              1.0000)
       1 -59.9401       2 -59.6134       3 -59.2154       4 -59.9383       5 -59.3712
       6 -59.8674       7 -59.3051       8 -59.8018       9 -59.6405      10 -59.7069
      11 -60.4570      12 -59.2212      13 -59.8574      14 -60.0907      15 -59.2820
      16 -60.0288      17 -59.6222      18 -60.1201      19 -58.7995      20 -59.8033
      21 -60.4977      22 -59.4744      23 -59.8987      24 -59.1952      25 -73.0514
      26 -71.5043      27 -71.5024      28 -70.9329      29 -71.1694      30 -71.5048
      31 -71.5924      32 -74.1229      33 -72.5573      34 -70.9040      35 -71.3854
      36 -72.5781      37 -72.0204      38 -71.5293      39 -70.8074      40 -73.1663
      41 -73.1247      42 -71.7346      43 -71.7210      44 -71.2219      45 -71.5306
      46 -71.6395      47 -71.7591      48 -74.0908      49 -73.7128      50 -70.8478
      51 -70.9929      52 -71.5088      53 -71.4791      54 -71.1106      55 -71.2034
      56 -73.4162      57 -81.4933      58 -58.9758      59 -80.7301



 E-fermi :  -2.5209     XC(G=0):  -4.6939     alpha+bet : -3.6529


 spin component 1

 k-point     1 :       0.0000    0.0000    0.0000
  band No.  band energies     occupation 
      1     -26.9010      1.00000
      2     -26.8759      1.00000
      3     -26.7551      1.00000
      4     -26.7450      1.00000
      5     -26.6830      1.00000
      6     -26.4596      1.00000
      7     -25.8525      1.00000
      8     -25.4644      1.00000
      9     -25.2619      1.00000
     10     -24.7378      1.00000
     11     -24.5414      1.00000
     12     -24.3553      1.00000
     13     -24.2319      1.00000
     14     -23.3458      1.00000
     15     -23.3061      1.00000
     16     -23.1687      1.00000
     17     -22.9684      1.00000
     18     -22.7099      1.00000
     19     -22.6634      1.00000
     20     -22.0735      1.00000
     21     -21.9513      1.00000
     22     -21.8754      1.00000
     23     -21.2926      1.00000
     24     -21.2323      1.00000
     25     -21.0170      1.00000
     26     -20.9372      1.00000
     27     -20.8643      1.00000
     28     -20.7380      1.00000
     29     -20.6606      1.00000
     30     -20.4023      1.00000
     31     -20.2061      1.00000
     32     -20.0866      1.00000
     33     -20.0444      1.00000
     34     -19.8332      1.00000
     35     -19.6712      1.00000
     36     -19.6325      1.00000
     37     -19.3372      1.00000
     38     -19.1120      1.00000
     39     -16.5012      1.00000
     40     -16.4516      1.00000
     41     -16.1675      1.00000
     42     -16.0925      1.00000
     43     -16.0190      1.00000
     44     -15.8606      1.00000
     45     -15.6660      1.00000
     46     -15.2032      1.00000
     47     -14.8246      1.00000
     48     -14.3841      1.00000
     49     -14.3264      1.00000
     50     -14.1016      1.00000
     51     -13.7682      1.00000
     52     -13.5674      1.00000
     53     -13.4582      1.00000
     54     -13.2617      1.00000
     55     -13.0790      1.00000
     56     -13.0318      1.00000
     57     -13.0076      1.00000
     58     -12.7401      1.00000
     59     -12.6222      1.00000
     60     -12.5566      1.00000
     61     -12.4675      1.00000
     62     -12.3481      1.00000
     63     -12.2651      1.00000
     64     -12.0571      1.00000
     65     -11.7670      1.00000
     66     -11.6351      1.00000
     67     -11.5885      1.00000
     68     -11.4897      1.00000
     69     -11.2115      1.00000
     70     -11.1933      1.00000
     71     -11.0093      1.00000
     72     -10.9316      1.00000
     73     -10.7082      1.00000
     74     -10.6102      1.00000
     75     -10.3199      1.00000
     76     -10.1929      1.00000
     77     -10.0738      1.00000
     78     -10.0277      1.00000
     79      -9.8537      1.00000
     80      -9.7370      1.00000
     81      -9.6160      1.00000
     82      -9.4066      1.00000
     83      -9.0930      1.00000
     84      -8.9306      1.00000
     85      -8.9283      1.00000
     86      -8.9133      1.00000
     87      -8.6819      1.00000
     88      -8.6488      1.00000
     89      -8.2381      1.00000
     90      -8.2120      1.00000
     91      -8.1334      1.00000
     92      -8.1112      1.00000
     93      -7.9332      1.00000
     94      -7.6079      1.00000
     95      -7.2576      1.00000
     96      -7.1721      1.00000
     97      -6.9670      1.00000
     98      -6.8353      1.00000
     99      -6.7339      1.00000
    100      -6.6695      1.00000
    101      -6.6272      1.00000
    102      -6.5653      1.00000
    103      -6.5151      1.00000
    104      -6.4518      1.00000
    105      -6.3328      1.00000
    106      -6.3063      1.00000
    107      -6.2380      1.00000
    108      -6.1792      1.00000
    109      -6.1235      1.00000
    110      -6.0770      1.00000
    111      -5.9037      1.00000
    112      -5.8562      1.00000
    113      -5.8200      1.00000
    114      -5.7205      1.00000
    115      -5.5354      1.00000
    116      -5.4416      1.00000
    117      -5.2876      1.00000
    118      -5.2228      1.00000
    119      -5.1241      1.00000
    120      -4.9918      1.00000
    121      -4.7949      1.00000
    122      -4.6495      1.00000
    123      -4.5384      1.00000
    124      -4.4837      1.00000
    125      -4.4313      1.00000
    126      -4.3733      1.00000
    127      -4.3246      1.00000
    128      -4.3120      1.00000
    129      -4.1840      1.00000
    130      -4.1082      1.00000
    131      -4.0327      1.00000
    132      -4.0075      1.00000
    133      -3.8717      1.00000
    134      -3.8144      1.00000
    135      -3.7007      1.00000
    136      -3.6109      1.00000
    137      -3.5306      1.00000
    138      -3.1987      1.00000
    139      -2.8903      1.00000
    140      -2.5242      1.00000
    141      -1.1936      0.00000
    142      -1.0240      0.00000
    143      -0.7196      0.00000
    144      -0.6167      0.00000
    145      -0.4079      0.00000
    146      -0.3127      0.00000
    147      -0.1923      0.00000
    148       0.0186      0.00000
    149       0.0550      0.00000
    150       0.2590      0.00000
    151       0.3948      0.00000
    152       0.5552      0.00000
    153       0.5890      0.00000
    154       0.7436      0.00000
    155       0.8671      0.00000
    156       1.2119      0.00000
    157       1.3136      0.00000
    158       1.6786      0.00000
    159       1.9494      0.00000
    160       1.9880      0.00000
    161       2.1448      0.00000
    162       2.2881      0.00000
    163       2.4157      0.00000
    164       2.6767      0.00000
    165       2.8586      0.00000
    166       2.9910      0.00000
    167       3.0620      0.00000
    168       3.3017      0.00000
    169       3.5733      0.00000
    170       3.5942      0.00000
    171       3.6929      0.00000
    172       3.7717      0.00000

 k-point     2 :       0.3333    0.0000    0.0000
  band No.  band energies     occupation 
      1     -26.9010      1.00000
      2     -26.8758      1.00000
      3     -26.7551      1.00000
      4     -26.7450      1.00000
      5     -26.6830      1.00000
      6     -26.4595      1.00000
      7     -25.8416      1.00000
      8     -25.4924      1.00000
      9     -25.2544      1.00000
     10     -24.7894      1.00000
     11     -24.5152      1.00000
     12     -24.2486      1.00000
     13     -24.1461      1.00000
     14     -23.7188      1.00000
     15     -23.3339      1.00000
     16     -23.0862      1.00000
     17     -22.9114      1.00000
     18     -22.6718      1.00000
     19     -22.4800      1.00000
     20     -22.1288      1.00000
     21     -21.9575      1.00000
     22     -21.8765      1.00000
     23     -21.2971      1.00000
     24     -21.1936      1.00000
     25     -21.0555      1.00000
     26     -21.0016      1.00000
     27     -20.8869      1.00000
     28     -20.7419      1.00000
     29     -20.6918      1.00000
     30     -20.4569      1.00000
     31     -20.1521      1.00000
     32     -20.1016      1.00000
     33     -19.9360      1.00000
     34     -19.8473      1.00000
     35     -19.6665      1.00000
     36     -19.6415      1.00000
     37     -19.3388      1.00000
     38     -19.1071      1.00000
     39     -16.4900      1.00000
     40     -16.3689      1.00000
     41     -16.2201      1.00000
     42     -16.1044      1.00000
     43     -15.9936      1.00000
     44     -15.9294      1.00000
     45     -15.6009      1.00000
     46     -15.3396      1.00000
     47     -14.7646      1.00000
     48     -14.4516      1.00000
     49     -14.3556      1.00000
     50     -14.2141      1.00000
     51     -13.5264      1.00000
     52     -13.4475      1.00000
     53     -13.3258      1.00000
     54     -13.3178      1.00000
     55     -13.1228      1.00000
     56     -13.0468      1.00000
     57     -12.9785      1.00000
     58     -12.7912      1.00000
     59     -12.6544      1.00000
     60     -12.5583      1.00000
     61     -12.4566      1.00000
     62     -12.3852      1.00000
     63     -12.2124      1.00000
     64     -12.1177      1.00000
     65     -11.9307      1.00000
     66     -11.7677      1.00000
     67     -11.5639      1.00000
     68     -11.3244      1.00000
     69     -11.2044      1.00000
     70     -11.0971      1.00000
     71     -11.0178      1.00000
     72     -10.9711      1.00000
     73     -10.6801      1.00000
     74     -10.5578      1.00000
     75     -10.3727      1.00000
     76     -10.3092      1.00000
     77     -10.1761      1.00000
     78     -10.0046      1.00000
     79      -9.8518      1.00000
     80      -9.6498      1.00000
     81      -9.5005      1.00000
     82      -9.3607      1.00000
     83      -9.1768      1.00000
     84      -9.0194      1.00000
     85      -8.9302      1.00000
     86      -8.9272      1.00000
     87      -8.6382      1.00000
     88      -8.5379      1.00000
     89      -8.3174      1.00000
     90      -8.2380      1.00000
     91      -8.1163      1.00000
     92      -8.0480      1.00000
     93      -7.8640      1.00000
     94      -7.6552      1.00000
     95      -7.2602      1.00000
     96      -7.1621      1.00000
     97      -6.9576      1.00000
     98      -6.8606      1.00000
     99      -6.8202      1.00000
    100      -6.6620      1.00000
    101      -6.6469      1.00000
    102      -6.5514      1.00000
    103      -6.5088      1.00000
    104      -6.4396      1.00000
    105      -6.3349      1.00000
[...]
   -.149E+02 0.128E+02 0.172E+03   0.158E+02 -.144E+02 -.175E+03   -.931E+00 0.156E+01 0.206E+01   0.314E-02 -.559E-02 -.495E-02
   -.650E+02 -.612E+01 0.113E+03   0.676E+02 0.703E+01 -.115E+03   -.258E+01 -.877E+00 0.155E+01   0.792E-02 0.252E-02 -.407E-02
   0.346E+02 0.122E+02 -.589E+02   -.342E+02 -.147E+02 0.560E+02   -.363E+00 0.241E+01 0.288E+01   0.263E-03 0.115E-02 0.107E-02
   0.440E+02 0.253E+02 -.728E+02   -.420E+02 -.245E+02 0.720E+02   -.198E+01 -.631E+00 0.790E+00   -.448E-02 0.147E-02 -.419E-02
   -.190E+02 -.513E+02 -.143E+03   0.162E+02 0.521E+02 0.142E+03   0.270E+01 -.686E+00 0.796E+00   0.438E-02 -.435E-03 0.132E-03
   0.251E+02 -.302E+02 0.867E+02   -.268E+02 0.318E+02 -.875E+02   0.175E+01 -.167E+01 0.726E+00   -.161E-02 0.522E-02 -.420E-02
   0.119E+03 -.983E+02 -.300E+03   -.120E+03 0.962E+02 0.301E+03   0.141E+01 0.210E+01 -.888E+00   -.575E-02 0.380E-02 0.461E-02
   -.304E+02 -.318E+01 -.341E+02   0.322E+02 0.261E+01 0.368E+02   -.189E+01 0.593E+00 -.267E+01   0.260E-02 -.238E-02 0.435E-02
   -.284E+02 0.267E+00 0.593E+02   0.283E+02 -.354E+01 -.580E+02   0.116E+00 0.315E+01 -.120E+01   -.141E-04 0.270E-02 -.278E-02
   0.109E+03 0.513E+02 0.297E+03   -.108E+03 -.495E+02 -.299E+03   -.119E+01 -.168E+01 0.206E+01   -.593E-02 -.190E-02 -.257E-02
   0.124E+02 0.463E+02 -.605E+02   -.158E+02 -.442E+02 0.611E+02   0.335E+01 -.209E+01 -.744E+00   -.196E-02 -.365E-02 0.457E-03
   0.649E+02 0.330E+02 0.134E+03   -.678E+02 -.327E+02 -.135E+03   0.288E+01 -.235E+00 0.150E+01   -.372E-02 0.246E-02 -.410E-02
   0.982E+01 -.760E+01 0.364E+03   -.885E+01 0.588E+01 -.367E+03   -.958E+00 0.173E+01 0.236E+01   0.396E-02 -.235E-02 -.469E-02
   -.169E+02 -.169E+03 -.210E+03   0.196E+02 0.171E+03 0.210E+03   -.269E+01 -.217E+01 0.688E+00   0.163E-02 0.909E-02 -.441E-04
   -.105E+03 0.414E+02 -.151E+03   0.103E+03 -.464E+02 0.157E+03   0.221E+01 0.492E+01 -.564E+01   0.698E-02 0.164E-02 -.935E-02
   -.372E+02 0.126E+01 -.633E+02   0.401E+02 0.497E+00 0.619E+02   -.268E+01 -.172E+01 0.150E+01   -.976E-03 -.176E-02 -.776E-03
   -.106E+03 -.754E+02 -.378E+03   0.106E+03 0.771E+02 0.379E+03   0.763E+00 -.164E+01 -.102E+01   0.277E-02 0.439E-02 0.844E-02
   0.599E+02 -.143E+03 0.188E+03   -.624E+02 0.145E+03 -.187E+03   0.255E+01 -.142E+01 -.174E+01   -.474E-02 0.498E-02 0.143E-02
   -.314E+02 -.517E+02 -.232E+03   0.316E+02 0.510E+02 0.235E+03   -.185E+00 0.708E+00 -.338E+01   0.249E-02 0.234E-03 0.449E-02
   -.595E+02 0.540E+02 -.140E+03   0.614E+02 -.530E+02 0.141E+03   -.178E+01 -.115E+01 -.183E+01   0.526E-02 0.247E-03 -.123E-02
   -.649E+02 0.157E+02 0.407E+03   0.677E+02 -.143E+02 -.423E+03   -.288E+01 -.135E+01 0.160E+02   0.212E-02 0.123E-02 -.412E-02
   -.207E+03 0.507E+02 0.358E+03   0.238E+03 -.409E+02 -.377E+03   -.309E+02 -.982E+01 0.187E+02   0.173E-01 0.414E-02 -.120E-01
   0.326E+02 0.305E+02 0.341E+03   -.462E+02 -.383E+02 -.375E+03   0.136E+02 0.781E+01 0.342E+02   -.788E-02 -.610E-02 -.185E-01
   0.249E+02 0.175E+03 0.310E+03   -.158E+02 -.200E+03 -.336E+03   -.916E+01 0.248E+02 0.264E+02   0.551E-02 -.154E-01 -.592E-02
   -.111E+03 0.772E+02 0.466E+03   0.119E+03 -.101E+03 -.495E+03   -.877E+01 0.238E+02 0.290E+02   0.820E-02 -.881E-02 -.161E-01
   0.671E+02 0.640E+02 0.388E+03   -.805E+02 -.629E+02 -.423E+03   0.134E+02 -.113E+01 0.350E+02   -.490E-02 0.278E-02 -.191E-01
   -.169E+03 -.796E+02 0.195E+03   0.199E+03 0.793E+02 -.215E+03   -.301E+02 0.354E+00 0.200E+02   0.193E-01 0.261E-02 -.881E-02
   -.927E+01 -.223E+02 -.941E+01   0.917E+01 0.229E+02 0.955E+01   0.115E+00 -.518E+00 -.143E+00   0.279E-02 0.814E-03 -.250E-03
   0.539E+02 0.456E+02 -.243E+03   -.568E+02 -.525E+02 0.259E+03   0.290E+01 0.685E+01 -.161E+02   -.338E-02 -.430E-03 0.150E-02
   -.915E+02 0.650E+02 -.273E+03   0.115E+03 -.657E+02 0.301E+03   -.231E+02 0.659E+00 -.284E+02   0.624E-02 -.196E-02 0.106E-01
   0.116E+03 -.151E+03 0.175E+03   -.148E+03 0.165E+03 -.175E+03   0.317E+02 -.134E+02 -.628E+00   -.146E-01 0.432E-02 -.736E-02
   0.403E+02 -.440E+02 -.608E+03   -.431E+02 0.280E+02 0.634E+03   0.276E+01 0.160E+02 -.260E+02   -.730E-03 0.155E-02 0.173E-01
   0.226E+03 0.486E+02 -.455E+03   -.243E+03 -.669E+02 0.480E+03   0.169E+02 0.183E+02 -.247E+02   -.184E-01 0.132E-02 0.111E-01
   0.993E+02 -.574E+02 0.124E+03   -.118E+03 0.774E+02 -.126E+03   0.192E+02 -.200E+02 0.205E+01   -.232E-02 0.117E-01 -.864E-02
   -.616E+02 0.934E+02 -.176E+03   0.824E+02 -.107E+03 0.204E+03   -.209E+02 0.133E+02 -.273E+02   0.378E-02 -.124E-01 0.119E-01
   -.392E+02 -.140E+03 0.278E+03   0.431E+02 0.146E+03 -.282E+03   -.394E+01 -.676E+01 0.456E+01   0.610E-02 0.354E-02 -.120E-02
   -.370E+02 0.530E+02 0.156E+02   0.460E+02 -.483E+02 -.793E+01   -.899E+01 -.478E+01 -.775E+01   0.334E-02 0.308E-03 0.639E-02
   -.134E+03 -.221E+03 -.241E+03   0.154E+03 0.250E+03 0.249E+03   -.195E+02 -.288E+02 -.796E+01   0.973E-02 0.174E-01 0.308E-02
   0.137E+03 0.296E+02 0.250E+03   -.168E+03 -.316E+02 -.268E+03   0.309E+02 0.208E+01 0.176E+02   -.172E-01 -.227E-03 -.122E-01
   -.284E+02 0.484E+02 0.584E+03   0.373E+02 -.597E+02 -.617E+03   -.886E+01 0.113E+02 0.335E+02   0.467E-02 -.143E-03 -.156E-01
   0.102E+03 0.218E+03 0.547E+03   -.106E+03 -.246E+03 -.569E+03   0.453E+01 0.284E+02 0.221E+02   -.624E-02 -.124E-01 -.113E-01
   0.182E+03 0.805E+02 0.338E+03   -.211E+03 -.703E+02 -.354E+03   0.289E+02 -.103E+02 0.162E+02   -.135E-01 0.699E-02 -.119E-01
   -.190E+03 -.283E+03 -.475E+03   0.216E+03 0.303E+03 0.489E+03   -.258E+02 -.191E+02 -.146E+02   0.134E-01 0.130E-01 0.147E-01
   0.101E+03 -.146E+03 -.171E+03   -.103E+03 0.150E+03 0.171E+03   0.236E+01 -.447E+01 0.346E+00   -.712E-02 0.854E-02 -.371E-03
   -.135E+03 0.219E+02 -.155E+03   0.136E+03 -.282E+02 0.149E+03   -.346E+00 0.628E+01 0.621E+01   0.421E-02 -.664E-02 -.115E-01
   -.233E+03 0.432E+02 -.369E+03   0.257E+03 -.336E+02 0.393E+03   -.237E+02 -.967E+01 -.246E+02   0.122E-01 0.142E-01 0.210E-02
   0.235E+03 -.212E+03 0.380E+03   -.266E+03 0.227E+03 -.385E+03   0.311E+02 -.149E+02 0.473E+01   -.189E-01 0.697E-02 -.451E-02
   -.367E+02 0.147E+01 -.513E+03   0.418E+02 -.165E+02 0.548E+03   -.512E+01 0.150E+02 -.351E+02   0.933E-02 -.425E-02 0.185E-01
   -.973E+02 -.590E+01 -.476E+03   0.957E+02 -.549E+01 0.512E+03   0.154E+01 0.114E+02 -.365E+02   0.124E-02 -.109E-02 0.215E-01
   0.175E+03 -.155E+03 0.109E+03   -.198E+03 0.180E+03 -.106E+03   0.229E+02 -.248E+02 -.268E+01   -.106E-01 0.110E-01 0.545E-03
   -.132E+03 0.787E+01 -.372E+03   0.157E+03 -.208E+01 0.398E+03   -.256E+02 -.583E+01 -.259E+02   0.133E-01 -.551E-02 0.712E-02
   -.218E+02 0.128E+02 0.215E+02   0.230E+02 -.123E+02 -.192E+02   -.114E+01 -.447E+00 -.229E+01   0.510E-02 -.202E-02 -.376E-02
   0.281E+03 0.601E+03 -.107E+04   -.289E+03 -.619E+03 0.108E+04   0.825E+01 0.182E+02 -.119E+02   -.361E-01 -.181E-01 -.164E-01
   -.105E+03 -.418E+02 0.690E+02   0.117E+03 0.511E+02 -.918E+02   -.115E+02 -.934E+01 0.228E+02   0.312E-02 -.240E-04 0.494E-02
   0.731E+02 0.717E+02 -.125E+03   -.986E+02 -.924E+02 0.175E+03   0.255E+02 0.207E+02 -.507E+02   -.459E-02 -.534E-02 0.183E-01
 -----------------------------------------------------------------------------------------------
   0.297E+01 -.413E+02 0.384E+02   0.313E-12 -.369E-12 0.568E-13   -.298E+01 0.413E+02 -.384E+02   -.657E-02 0.346E-01 -.679E-01


 POSITION                                       TOTAL-FORCE (eV/Angst)
 -----------------------------------------------------------------------------------
     -0.04195      1.89234      4.41903        -0.003903     -0.029859      0.029882
      0.93742      4.13125      4.50964        -0.020632      0.031319      0.038520
     -1.39363      3.72926      4.25262        -0.048265     -0.005929      0.006768
      5.67869     -0.06121      6.37517         0.028703      0.000472      0.016742
      3.05581      4.06940      5.08188        -0.027860     -0.026387     -0.023050
      1.16600      0.45540      5.58205         0.027885      0.036846      0.001498
     -3.31144      6.93242      6.43786         0.009343     -0.020604     -0.023644
     -1.64658      8.46094      7.24062         0.067779      0.014791      0.033429
     -3.84049      9.13588      7.04182         0.030730      0.020617     -0.039937
      1.57810      5.67973      6.07634         0.022034      0.005084     -0.006502
     -0.00545      9.05984      8.58207        -0.009373     -0.005742      0.006115
     -2.43990      5.05639      5.64496        -0.007008     -0.027750     -0.005888
      6.61261      1.95194      6.07784        -0.006904     -0.021854     -0.018715
      6.55931      3.86113      4.36156        -0.018345     -0.016501     -0.052609
      5.06035      3.77462      5.99551         0.000227     -0.060605     -0.055014
     10.66841      0.23196      5.64780        -0.008695      0.015073      0.026173
      8.51228      4.00344      3.64285         0.006520      0.006611     -0.012681
      7.32994      0.88631      7.91230        -0.007923     -0.016312     -0.006587
      2.49430      6.95174      7.90376         0.056746     -0.078011      0.014158
      3.84538      9.10956      7.36240         0.037593     -0.028218      0.021799
      2.09314      9.16224      8.85357         0.017528     -0.019315      0.005576
      7.34434      5.74630      4.88972         0.023374     -0.013372     -0.004051
      6.00688      9.46488      7.53901         0.013585      0.012583      0.017058
      3.82020      5.26439      7.09781         0.024953     -0.024863      0.005802
     -0.09092      3.23563      4.04992        -0.021124      0.065669      0.009746
      1.14930      1.33848      4.60432        -0.022804      0.002679      0.034945
     -1.14709      9.02259      6.13293        -0.002067     -0.012203     -0.000894
      4.19964      3.43925      5.03254        -0.039747     -0.026071     -0.001982
      2.13655      3.71346      4.18616        -0.008324     -0.037661      0.012644
      5.94955      0.92996      5.52613        -0.004577     -0.031865      0.024666
     -3.70065      9.85638      5.94891        -0.040552      0.029821      0.001756
     -0.01312      0.15096      6.27705         0.025238      0.065443     -0.004755
     -2.97919      8.03658      7.16982        -0.006422     -0.008436     -0.001980
     -2.42064      5.94229      6.61707         0.019138     -0.012756     -0.012061
      0.62978      5.20645      5.26380        -0.014707      0.014215      0.010747
      0.95664      8.59787      9.40292        -0.039298      0.011294     -0.023099
     -1.15148      8.41594      8.46783         0.022671      0.014812      0.000757
      1.41659      6.70307      6.93715         0.035427      0.003478      0.027267
     -1.57115      4.06534      5.53805        -0.042715     -0.003290      0.017398
      8.53146      5.02658      4.61651        -0.029764      0.005144      0.010767
      6.33097      3.24563      5.54365        -0.012965     -0.016773     -0.032214
      7.35640      2.00618      7.17906        -0.010807     -0.007714     -0.022744
      3.64410      9.60852      6.14141         0.011076      0.038089     -0.001223
     -2.18448      3.77951      3.20556         0.019456      0.039027      0.002087
      7.39087      3.34886      3.44321         0.036400      0.026016     -0.032023
     10.65997      1.13252      4.67601         0.035406      0.017791      0.006895
      8.22177      0.45886      8.77852         0.007907      0.008100     -0.032951
      6.23722      0.00742      7.66753        -0.020058      0.025073      0.018559
      2.77205      8.40405      8.02475         0.032659      0.011507      0.006912
      3.67609      6.21913      7.94761        -0.016733     -0.004072      0.013282
      6.23377      5.20867      4.41272         0.006863      0.034312      0.002471
     -4.73854      9.19675      8.01406         0.004653      0.013788      0.016321
      4.88823      9.15325      8.17356        -0.024688     -0.039038      0.002560
      7.47990      6.80663      5.69645        -0.050152     -0.019203     -0.045880
      4.96337      4.51822      7.05724        -0.029780     -0.039102     -0.028085
      2.80890      4.99144      6.09052        -0.006605     -0.004156     -0.000033
      0.83133      6.41827      8.99772        -0.029196      0.064698      0.022912
      1.07347      5.68704     12.12103        -0.028010      0.009473      0.058339
      0.59132      5.29663      0.18004         0.036109      0.013837     -0.035946
 -----------------------------------------------------------------------------------
    total drift:                               -0.015944      0.004138     -0.030654


--------------------------------------------------------------------------------------------------------



  FREE ENERGIE OF THE ION-ELECTRON SYSTEM (eV)
  ---------------------------------------------------
  free  energy   TOTEN  =      -490.12190487 eV

  energy  without entropy=     -490.12190487  energy(sigma->0) =     -490.12190487



--------------------------------------------------------------------------------------------------------


    POTLOK:  cpu time    0.0900: real time    0.0900


--------------------------------------------------------------------------------------------------------


     LOOP+:  cpu time  121.8929: real time  121.9900
    4ORBIT:  cpu time    0.0000: real time    0.0000



 total charge     

# of ion       s       p       d       tot
------------------------------------------
    1        0.857   1.717   0.000   2.574
    2        0.857   1.726   0.000   2.584
    3        0.868   1.757   0.000   2.625
    4        0.866   1.727   0.000   2.592
    5        0.875   1.771   0.000   2.646
    6        0.870   1.759   0.000   2.629
    7        0.865   1.743   0.000   2.608
    8        0.863   1.740   0.000   2.603
    9        0.873   1.763   0.000   2.636
   10        0.851   1.715   0.000   2.566
   11        0.868   1.754   0.000   2.622
   12        0.875   1.761   0.000   2.637
   13        0.855   1.720   0.000   2.575
   14        0.872   1.698   0.000   2.570
   15        0.869   1.751   0.000   2.620
   16        0.857   1.722   0.000   2.578
   17        0.868   1.738   0.000   2.606
   18        0.863   1.728   0.000   2.590
   19        0.818   1.667   0.000   2.485
   20        0.860   1.729   0.000   2.589
   21        0.874   1.735   0.000   2.609
   22        0.860   1.728   0.000   2.588
   23        0.874   1.757   0.000   2.631
   24        0.860   1.732   0.000   2.591
   25        1.225   2.735   0.000   3.960
   26        1.278   2.663   0.000   3.941
   27        1.279   2.633   0.000   3.912
   28        1.291   2.671   0.000   3.963
   29        1.290   2.653   0.000   3.943
   30        1.276   2.632   0.000   3.907
   31        1.281   2.665   0.000   3.946
   32        1.230   2.760   0.000   3.990
   33        1.230   2.810   0.000   4.040
   34        1.276   2.661   0.000   3.937
   35        1.260   2.645   0.000   3.905
   36        1.257   2.636   0.000   3.894
   37        1.280   2.660   0.000   3.940
   38        1.245   2.598   0.000   3.842
   39        1.281   2.660   0.000   3.941
   40        1.230   2.760   0.000   3.990
   41        1.232   2.750   0.000   3.982
   42        1.272   2.637   0.000   3.909
   43        1.265   2.621   0.000   3.886
   44        1.278   2.643   0.000   3.921
   45        1.274   2.644   0.000   3.918
   46        1.261   2.639   0.000   3.900
   47        1.261   2.649   0.000   3.910
   48        1.227   2.753   0.000   3.980
   49        1.237   2.726   0.000   3.963
   50        1.272   2.647   0.000   3.919
   51        1.260   2.639   0.000   3.899
   52        1.289   2.639   0.000   3.927
   53        1.288   2.652   0.000   3.940
   54        1.258   2.660   0.000   3.918
   55        1.276   2.636   0.000   3.912
   56        1.218   2.737   0.000   3.956
   57        1.326   0.790  10.047  12.163
   58        1.035   1.448   0.000   2.483
   59        1.642   3.532   0.000   5.174
--------------------------------------------------
tot         65.096 132.923  10.047 208.066



 magnetization (x)

# of ion       s       p       d       tot
------------------------------------------
    1        0.000   0.000   0.000   0.000
    2        0.000   0.000   0.000   0.000
    3       -0.000   0.000   0.000   0.000
    4        0.000   0.000   0.000   0.000
    5        0.000   0.000   0.000   0.000
    6        0.000   0.000   0.000   0.000
    7       -0.000  -0.000   0.000  -0.000
    8        0.000  -0.000   0.000   0.000
    9        0.000   0.000   0.000   0.000
   10        0.000   0.000   0.000   0.000
   11        0.000   0.000   0.000   0.000
   12       -0.000  -0.000   0.000  -0.000
   13        0.000   0.000   0.000   0.000
   14       -0.000  -0.000   0.000  -0.000
   15        0.000   0.000   0.000   0.000
   16        0.000   0.000   0.000   0.000
   17       -0.000  -0.000   0.000  -0.000
   18        0.000   0.000   0.000   0.000
   19        0.000   0.000   0.000   0.000
   20        0.000   0.000   0.000   0.000
   21        0.000   0.000   0.000   0.000
   22       -0.000   0.000   0.000   0.000
   23        0.000   0.000   0.000   0.000
   24        0.000   0.000   0.000   0.000
   25        0.000  -0.000   0.000  -0.000
   26        0.000  -0.000   0.000  -0.000
   27       -0.000  -0.000   0.000  -0.000
   28       -0.000  -0.000   0.000  -0.000
   29       -0.000  -0.000   0.000  -0.000
   30        0.000  -0.000   0.000  -0.000
   31        0.000  -0.000   0.000  -0.000
   32        0.000   0.000   0.000   0.000
   33        0.000   0.000   0.000   0.000
   34        0.000   0.000   0.000   0.000
   35       -0.000  -0.000   0.000  -0.000
   36        0.000  -0.000   0.000  -0.000
   37        0.000  -0.000   0.000  -0.000
   38       -0.000  -0.000   0.000  -0.000
   39       -0.000  -0.000   0.000  -0.000
   40        0.000   0.000   0.000   0.000
   41       -0.000   0.000   0.000   0.000
   42       -0.000  -0.000   0.000  -0.000
   43        0.000  -0.000   0.000  -0.000
   44       -0.000   0.000   0.000   0.000
   45        0.000  -0.000   0.000   0.000
   46        0.000  -0.000   0.000  -0.000
   47        0.000  -0.000   0.000  -0.000
   48        0.000  -0.000   0.000  -0.000
   49        0.000   0.000   0.000   0.000
   50       -0.000  -0.000   0.000  -0.000
   51        0.000   0.000   0.000   0.000
   52        0.000  -0.000   0.000  -0.000
   53        0.000  -0.000   0.000  -0.000
   54        0.000  -0.000   0.000  -0.000
   55        0.000  -0.000   0.000  -0.000
   56        0.000   0.000   0.000   0.000
   57        0.000  -0.000   0.000  -0.000
   58       -0.000  -0.000   0.000  -0.000
   59       -0.000   0.000   0.000   0.000
--------------------------------------------------
tot          0.000  -0.000   0.000  -0.000

 BZINTS: Fermi energy: -2.520880;280.000000 electrons
         Band energy:***********;  BLOECHL correction:  0.000000

 total amount of memory used by VASP MPI-rank0    70875. kBytes
=======================================================================

   base      :      30000. kBytes
   nonl-proj :      12159. kBytes
   fftplans  :       2461. kBytes
   grid      :       7332. kBytes
   one-center:        155. kBytes
   wavefun   :      18768. kBytes

  
  
 General timing and accounting informations for this job:
 ========================================================
  
                  Total CPU time used (sec):      133.695
                            User time (sec):      132.711
                          System time (sec):        0.984
                         Elapsed time (sec):      134.109
  
                   Maximum memory used (kb):      161300.
                   Average memory used (kb):           0.
  
                          Minor page faults:        37826
                          Major page faults:            0
                 Voluntary context switches:          729
