 vasp.5.4.4.18Apr17-6-g9f103f2a35 (build Jan 14 2022 15:04:31) complex          
  
 executed on             LinuxIFC date 2023.01.23  17:52:24
 running on   48 total cores
 distrk:  each k-point on   48 cores,    1 groups
 distr:  one band on NCORES_PER_BAND=  12 cores,    4 groups


--------------------------------------------------------------------------------------------------------


 INCAR:
 POTCAR:    PAW_PBE C 08Apr2002                   
 POTCAR:    PAW_PBE N 08Apr2002                   
 POTCAR:    PAW_PBE C 08Apr2002                   
 POTCAR:    PAW_PBE Cr_pv 02Aug2007               
 POTCAR:    PAW_PBE C 08Apr2002                   
   SHA256 =  253f7b50bb8d59471dbedb8285d89021f4a42ed1a2c5d38a03a736e69125dd95 C/
   COPYR  = (c) Copyright 08Apr2002 Georg Kresse                                
   COPYR  = This file is part of the software VASP. Any use, copying, and all ot
   COPYR  = If you do not have a valid VASP license, you may not use, copy or di
   VRHFIN =C: s2p2                                                              
   LEXCH  = PE                                                                  
   EATOM  =   147.1560 eV,   10.8157 Ry                                         
                                                                                
   TITEL  = PAW_PBE C 08Apr2002                                                 
   LULTRA =        F    use ultrasoft PP ?                                      
   IUNSCR =        1    unscreen: 0-lin 1-nonlin 2-no                           
   RPACOR =    1.200    partial core radius                                     
   POMASS =   12.011; ZVAL   =    4.000    mass and valenz                      
   RCORE  =    1.500    outmost cutoff radius                                   
   RWIGS  =    1.630; RWIGS  =    0.863    wigner-seitz radius (au A)           
   ENMAX  =  400.000; ENMIN  =  300.000 eV                                      
   ICORE  =        2    local potential                                         
   LCOR   =        T    correct aug charges                                     
   LPAW   =        T    paw PP                                                  
   EAUG   =  644.873                                                            
   DEXC   =    0.000                                                            
   RMAX   =    1.529    core radius for proj-oper                               
   RAUG   =    1.300    factor for augmentation sphere                          
   RDEP   =    1.501    radius for radial grids                                 
   RDEPT  =    1.300    core radius for aug-charge                              
                                                                                
   Atomic configuration                                                         
    4 entries                                                                   
     n  l   j            E        occ.                                          
     1  0  0.50      -273.3789   2.0000                                         
     2  0  0.50       -13.7508   2.0000                                         
     2  1  0.50        -5.2854   2.0000                                         
     3  2  1.50        -5.4423   0.0000                                         
   Description                                                                  
     l       E           TYP  RCUT    TYP  RCUT                                 
     0    -13.7508458     23  1.200                                             
     0     -8.2022199     23  1.200                                             
     1     -5.2854383     23  1.500                                             
     1     34.0145650     23  1.500                                             
     2     -5.4423304      7  1.500                                             
  local pseudopotential read in
  partial core-charges read in
  partial kinetic energy density read in
  atomic valenz-charges read in
  non local Contribution for L=           0  read in
    real space projection operators read in
  non local Contribution for L=           0  read in
    real space projection operators read in
  non local Contribution for L=           1  read in
    real space projection operators read in
  non local Contribution for L=           1  read in
    real space projection operators read in
    PAW grid and wavefunctions read in
 
   number of l-projection  operators is LMAX  =           4
   number of lm-projection operators is LMMAX =           8
 
 POTCAR:    PAW_PBE N 08Apr2002                   
   SHA256 =  e053789ff3a61a86a1b75d8a110fcc91f86041011e7b0817c7c99e4e8a6349d7 N/
   COPYR  = (c) Copyright 08Apr2002 Georg Kresse                                
   COPYR  = This file is part of the software VASP. Any use, copying, and all ot
   COPYR  = If you do not have a valid VASP license, you may not use, copy or di
   VRHFIN =N: s2p3                                                              
   LEXCH  = PE                                                                  
   EATOM  =   264.5486 eV,   19.4438 Ry                                         
                                                                                
   TITEL  = PAW_PBE N 08Apr2002                                                 
   LULTRA =        F    use ultrasoft PP ?                                      
   IUNSCR =        1    unscreen: 0-lin 1-nonlin 2-no                           
   RPACOR =    1.200    partial core radius                                     
   POMASS =   14.001; ZVAL   =    5.000    mass and valenz                      
   RCORE  =    1.500    outmost cutoff radius                                   
   RWIGS  =    1.400; RWIGS  =    0.741    wigner-seitz radius (au A)           
   ENMAX  =  400.000; ENMIN  =  300.000 eV                                      
   ICORE  =        2    local potential                                         
   LCOR   =        T    correct aug charges                                     
   LPAW   =        T    paw PP                                                  
   EAUG   =  627.112                                                            
   DEXC   =    0.000                                                            
   RMAX   =    1.529    core radius for proj-oper                               
   RAUG   =    1.300    factor for augmentation sphere                          
   RDEP   =    1.514    radius for radial grids                                 
   RDEPT  =    1.338    core radius for aug-charge                              
                                                                                
   Atomic configuration                                                         
    4 entries                                                                   
     n  l   j            E        occ.                                          
     1  0  0.50      -384.7179   2.0000                                         
     2  0  0.50       -18.5828   2.0000                                         
     2  1  0.50        -7.0898   3.0000                                         
     3  2  1.50        -6.8029   0.0000                                         
   Description                                                                  
     l       E           TYP  RCUT    TYP  RCUT                                 
     0    -18.5828119     23  1.200                                             
     0    -13.5018863     23  1.200                                             
     1     -7.0897853     23  1.500                                             
     1      9.5240782     23  1.500                                             
     2     -6.8029130      7  1.500                                             
  local pseudopotential read in
  partial core-charges read in
  partial kinetic energy density read in
  atomic valenz-charges read in
  non local Contribution for L=           0  read in
    real space projection operators read in
  non local Contribution for L=           0  read in
    real space projection operators read in
  non local Contribution for L=           1  read in
    real space projection operators read in
  non local Contribution for L=           1  read in
    real space projection operators read in
    PAW grid and wavefunctions read in
 
   number of l-projection  operators is LMAX  =           4
   number of lm-projection operators is LMMAX =           8
 
 POTCAR:    PAW_PBE C 08Apr2002                   
   SHA256 =  253f7b50bb8d59471dbedb8285d89021f4a42ed1a2c5d38a03a736e69125dd95 C/
   COPYR  = (c) Copyright 08Apr2002 Georg Kresse                                
   COPYR  = This file is part of the software VASP. Any use, copying, and all ot
   COPYR  = If you do not have a valid VASP license, you may not use, copy or di
   VRHFIN =C: s2p2                                                              
   LEXCH  = PE                                                                  
   EATOM  =   147.1560 eV,   10.8157 Ry                                         
                                                                                
   TITEL  = PAW_PBE C 08Apr2002                                                 
   LULTRA =        F    use ultrasoft PP ?                                      
   IUNSCR =        1    unscreen: 0-lin 1-nonlin 2-no                           
   RPACOR =    1.200    partial core radius                                     
   POMASS =   12.011; ZVAL   =    4.000    mass and valenz                      
   RCORE  =    1.500    outmost cutoff radius                                   
   RWIGS  =    1.630; RWIGS  =    0.863    wigner-seitz radius (au A)           
   ENMAX  =  400.000; ENMIN  =  300.000 eV                                      
   ICORE  =        2    local potential                                         
   LCOR   =        T    correct aug charges                                     
   LPAW   =        T    paw PP                                                  
   EAUG   =  644.873                                                            
   DEXC   =    0.000                                                            
   RMAX   =    1.529    core radius for proj-oper                               
   RAUG   =    1.300    factor for augmentation sphere                          
   RDEP   =    1.501    radius for radial grids                                 
   RDEPT  =    1.300    core radius for aug-charge                              
                                                                                
   Atomic configuration                                                         
    4 entries                                                                   
     n  l   j            E        occ.                                          
     1  0  0.50      -273.3789   2.0000                                         
     2  0  0.50       -13.7508   2.0000                                         
     2  1  0.50        -5.2854   2.0000                                         
     3  2  1.50        -5.4423   0.0000                                         
   Description                                                                  
     l       E           TYP  RCUT    TYP  RCUT                                 
     0    -13.7508458     23  1.200                                             
     0     -8.2022199     23  1.200                                             
     1     -5.2854383     23  1.500                                             
     1     34.0145650     23  1.500                                             
     2     -5.4423304      7  1.500                                             
  local pseudopotential read in
  partial core-charges read in
  partial kinetic energy density read in
  atomic valenz-charges read in
  non local Contribution for L=           0  read in
    real space projection operators read in
  non local Contribution for L=           0  read in
    real space projection operators read in
  non local Contribution for L=           1  read in
    real space projection operators read in
  non local Contribution for L=           1  read in
    real space projection operators read in
    PAW grid and wavefunctions read in
 
   number of l-projection  operators is LMAX  =           4
   number of lm-projection operators is LMMAX =           8
 
 POTCAR:    PAW_PBE Cr_pv 02Aug2007               
   SHA256 =  c9a7df34d3cdbacf1090e328ef39c0b420964e11c23f63548d1ac9dd218cdba0 Cr
   COPYR  = (c) Copyright 02Aug2007 Georg Kresse                                
   COPYR  = This file is part of the software VASP. Any use, copying, and all ot
   COPYR  = If you do not have a valid VASP license, you may not use, copy or di
   VRHFIN =Cr : p6d5s1                                                          
   LEXCH  = PE                                                                  
   EATOM  =  1647.9177 eV,  121.1185 Ry                                         
                                                                                
   TITEL  = PAW_PBE Cr_pv 02Aug2007                                             
   LULTRA =        F    use ultrasoft PP ?                                      
   IUNSCR =        1    unscreen: 0-lin 1-nonlin 2-no                           
   RPACOR =    2.080    partial core radius                                     
   POMASS =   51.996; ZVAL   =   12.000    mass and valenz                      
   RCORE  =    2.300    outmost cutoff radius                                   
   RWIGS  =    2.500; RWIGS  =    1.323    wigner-seitz radius (au A)           
   ENMAX  =  265.681; ENMIN  =  199.261 eV                                      
   ICORE  =        3    local potential                                         
   LCOR   =        T    correct aug charges                                     
   LPAW   =        T    paw PP                                                  
   EAUG   =  519.424                                                            
   DEXC   =    0.000                                                            
   RMAX   =    2.356    core radius for proj-oper                               
   RAUG   =    1.300    factor for augmentation sphere                          
   RDEP   =    2.447    radius for radial grids                                 
   RDEPT  =    1.882    core radius for aug-charge                              
                                                                                
   Atomic configuration                                                         
    8 entries                                                                   
     n  l   j            E        occ.                                          
     1  0  0.50     -5880.4963   2.0000                                         
     2  0  0.50      -667.0865   2.0000                                         
     2  1  1.50      -560.6250   6.0000                                         
     3  0  0.50       -73.9860   2.0000                                         
     3  1  1.50       -45.4378   6.0000                                         
     3  2  2.50        -2.9137   5.0000                                         
     4  0  0.50        -4.0071   1.0000                                         
     4  3  2.50        -1.3606   0.0000                                         
   Description                                                                  
     l       E           TYP  RCUT    TYP  RCUT                                 
     1    -45.4377911     23  2.000                                             
     1      1.3605826     23  2.000                                             
     2     -2.9136672     23  2.300                                             
     2     -4.2742498     23  2.300                                             
     0     -4.0071320     23  2.300                                             
     0      9.4498803     23  2.300                                             
     3      2.7211652     23  2.300                                             
  local pseudopotential read in
  partial core-charges read in
  partial kinetic energy density read in
  atomic valenz-charges read in
  non local Contribution for L=           1  read in
    real space projection operators read in
  non local Contribution for L=           1  read in
    real space projection operators read in
  non local Contribution for L=           2  read in
    real space projection operators read in
  non local Contribution for L=           2  read in
    real space projection operators read in
  non local Contribution for L=           0  read in
    real space projection operators read in
  non local Contribution for L=           0  read in
    real space projection operators read in
    PAW grid and wavefunctions read in
 
   number of l-projection  operators is LMAX  =           6
   number of lm-projection operators is LMMAX =          18
 
 Optimization of the real space projectors (new method)

 maximal supplied QI-value         = 25.13
 optimisation between [QCUT,QGAM] = [ 10.56, 21.36] = [ 31.20,127.80] Ry 
 Optimized for a Real-space Cutoff    1.32 Angstroem

   l    n(q)    QCUT    max X(q) W(low)/X(q) W(high)/X(q)  e(spline) 
   0      8    10.556   115.676    0.17E-03    0.39E-03    0.26E-06
   0      8    10.556    87.132    0.17E-03    0.39E-03    0.26E-06
   1      8    10.556     4.429    0.24E-03    0.31E-03    0.16E-06
   1      8    10.556     2.733    0.17E-03    0.22E-03    0.19E-06
 Optimization of the real space projectors (new method)

 maximal supplied QI-value         = 25.13
 optimisation between [QCUT,QGAM] = [ 10.56, 21.36] = [ 31.20,127.80] Ry 
 Optimized for a Real-space Cutoff    1.40 Angstroem

   l    n(q)    QCUT    max X(q) W(low)/X(q) W(high)/X(q)  e(spline) 
   0      9    10.556    79.467    0.20E-03    0.22E-03    0.30E-06
   0      9    10.556    66.151    0.20E-03    0.22E-03    0.30E-06
   1      8    10.556    12.181    0.10E-03    0.78E-03    0.19E-05
   1      8    10.556     8.434    0.11E-03    0.81E-03    0.19E-05
 Optimization of the real space projectors (new method)

 maximal supplied QI-value         = 25.13
 optimisation between [QCUT,QGAM] = [ 10.56, 21.36] = [ 31.20,127.80] Ry 
 Optimized for a Real-space Cutoff    1.32 Angstroem

   l    n(q)    QCUT    max X(q) W(low)/X(q) W(high)/X(q)  e(spline) 
   0      8    10.556   115.676    0.17E-03    0.39E-03    0.26E-06
   0      8    10.556    87.132    0.17E-03    0.39E-03    0.26E-06
   1      8    10.556     4.429    0.24E-03    0.31E-03    0.16E-06
   1      8    10.556     2.733    0.17E-03    0.22E-03    0.19E-06
 Optimization of the real space projectors (new method)

 maximal supplied QI-value         = 16.25
 optimisation between [QCUT,QGAM] = [ 10.73, 21.45] = [ 32.22,128.87] Ry 
 Optimized for a Real-space Cutoff    1.53 Angstroem

   l    n(q)    QCUT    max X(q) W(low)/X(q) W(high)/X(q)  e(spline) 
   1      9    10.726     3.262    0.64E-04    0.35E-04    0.11E-06
   1      9    10.726     5.741    0.13E-03    0.48E-04    0.19E-06
   2      9    10.726    60.438    0.12E-03    0.29E-04    0.13E-06
   2      9    10.726    55.380    0.12E-03    0.29E-04    0.13E-06
   0     10    10.726    80.273    0.43E-04    0.74E-05    0.81E-07
   0     10    10.726    36.654    0.34E-04    0.61E-05    0.73E-07
  PAW_PBE C 08Apr2002                   :
 energy of atom  1       EATOM= -147.1560
 kinetic energy error for atom=    0.0132 (will be added to EATOM!!)
  PAW_PBE N 08Apr2002                   :
 energy of atom  2       EATOM= -264.5486
 kinetic energy error for atom=    0.0298 (will be added to EATOM!!)
  PAW_PBE C 08Apr2002                   :
 energy of atom  3       EATOM= -147.1560
 kinetic energy error for atom=    0.0132 (will be added to EATOM!!)
  PAW_PBE Cr_pv 02Aug2007               :
 energy of atom  4       EATOM=-1647.9177
 kinetic energy error for atom=    0.0134 (will be added to EATOM!!)
 
 
 POSCAR: POSCAR-clean                            
  positions in direct lattice
  velocities in cartesian coordinates
 exchange correlation table for  LEXCH =        8
   RHO(1)=    0.500       N(1)  =     2000
   RHO(2)=  100.500       N(2)  =     4000

 VTST: version 3.2, (02/03/18)

 CHAIN: initializing optimizer
 
 OPT: Using VASP Conjugate-Gradient optimizer
 CHAIN: Read ICHAIN            0
 
 POSCAR: POSCAR-clean                            
  positions in direct lattice
  velocities in cartesian coordinates
 


--------------------------------------------------------------------------------------------------------


 ion  position               nearest neighbor table
   1  0.000  0.999  0.498-   2 1.42  60 1.43  70 1.43
   2  0.056  0.111  0.498-   1 1.42  13 1.43  15 1.43
   3  0.168  0.002  0.498-  62 1.42   4 1.42  60 1.42
   4  0.224  0.113  0.498-  15 1.42   3 1.42  17 1.43
   5  0.334  0.002  0.498-   6 1.42  64 1.43  62 1.43
   6  0.390  0.113  0.498-   5 1.42  19 1.43  17 1.43
   7  0.500  1.000  0.498-   8 1.42  64 1.42  66 1.43
   8  0.556  0.111  0.498-   7 1.42  21 1.43  19 1.43
   9  0.666  0.998  0.498-  10 1.42  66 1.42  68 1.44
  10  0.722  0.109  0.498-   9 1.42  23 1.43  21 1.43
  11  0.832  0.998  0.498-  12 1.42  70 1.42  68 1.44
  12  0.888  0.109  0.498-  11 1.42  23 1.43  13 1.43
  13  0.999  0.166  0.498-  14 1.42   2 1.43  12 1.43
  14  0.054  0.277  0.498-  13 1.42  25 1.42  27 1.43
  15  0.167  0.168  0.498-   4 1.42  16 1.42   2 1.43
  16  0.223  0.280  0.500-  15 1.42  27 1.43  29 1.44
  17  0.335  0.170  0.499-  18 1.42   6 1.43   4 1.43
  18  0.391  0.281  0.502-  17 1.42  29 1.44  31 1.44
  19  0.501  0.168  0.498-   6 1.43  20 1.43   8 1.43
  20  0.557  0.280  0.500-  33 1.43  19 1.43  31 1.44
  21  0.667  0.166  0.498-  22 1.42   8 1.43  10 1.43
  22  0.723  0.277  0.498-  21 1.42  33 1.42  35 1.42
  23  0.833  0.165  0.498-  24 1.42  10 1.43  12 1.43
  24  0.888  0.276  0.498-  23 1.42  25 1.42  35 1.42
  25  0.999  0.333  0.498-  24 1.42  14 1.42  26 1.43
  26  0.055  0.445  0.499-  39 1.41  37 1.42  25 1.43
  27  0.165  0.333  0.500-  28 1.42  16 1.43  14 1.43
  28  0.219  0.444  0.502-  41 1.41  27 1.42  39 1.42
  29  0.335  0.338  0.503-  30 1.42  18 1.44  16 1.44
  30  0.388  0.449  0.509-  41 1.41  29 1.42  71 1.99
  31  0.503  0.338  0.504-  32 1.42  18 1.44  20 1.44
  32  0.562  0.449  0.510-  43 1.41  31 1.42  71 2.00
  33  0.668  0.333  0.500-  34 1.42  22 1.42  20 1.43
  34  0.726  0.445  0.501-  43 1.41  33 1.42  45 1.43
  35  0.833  0.332  0.498-  36 1.42  24 1.42  22 1.42
  36  0.890  0.444  0.498-  45 1.41  37 1.42  35 1.42
  37  1.000  0.501  0.498-  36 1.42  38 1.42  26 1.42
  38  0.055  0.612  0.498-  47 1.40  49 1.42  37 1.42
  39  0.164  0.500  0.500-  26 1.41  40 1.42  28 1.42
  40  0.220  0.611  0.500-  49 1.42  39 1.42  51 1.42
  41  0.329  0.499  0.505-  30 1.41  28 1.41  42 1.44
  42  0.385  0.612  0.505-  53 1.41  51 1.41  41 1.44
  43  0.671  0.499  0.505-  34 1.41  32 1.41  44 1.43
  44  0.728  0.612  0.505-  55 1.41  57 1.41  43 1.43
  45  0.837  0.501  0.500-  36 1.41  46 1.42  34 1.43
  46  0.892  0.612  0.500-  47 1.40  57 1.42  45 1.42
  47  0.001  0.667  0.498-  46 1.40  38 1.40  48 1.41
  48  0.056  0.778  0.498-  47 1.41  59 1.42  61 1.42
  49  0.166  0.668  0.499-  38 1.42  40 1.42  50 1.42
  50  0.223  0.779  0.498-  63 1.42  61 1.42  49 1.42
  51  0.330  0.667  0.502-  42 1.41  52 1.42  40 1.42
  52  0.388  0.778  0.500-  51 1.42  65 1.42  63 1.43
  53  0.494  0.663  0.509-  42 1.41  54 1.41  71 1.99
  54  0.553  0.773  0.503-  53 1.41  67 1.44  65 1.44
  55  0.669  0.662  0.510-  44 1.41  56 1.41  71 2.01
  56  0.720  0.773  0.504-  55 1.41  67 1.44  69 1.44
  57  0.838  0.668  0.501-  44 1.41  58 1.41  46 1.42
  58  0.890  0.778  0.500-  57 1.41  69 1.42  59 1.42
  59  0.001  0.833  0.498-  48 1.42  60 1.42  58 1.42
  60  0.057  0.945  0.498-  59 1.42   3 1.42   1 1.43
  61  0.167  0.834  0.498-  50 1.42  48 1.42  62 1.43
  62  0.223  0.946  0.498-   3 1.42  61 1.43   5 1.43
  63  0.333  0.834  0.498-  50 1.42  64 1.42  52 1.43
  64  0.389  0.946  0.498-  63 1.42   7 1.42   5 1.43
  65  0.499  0.831  0.500-  66 1.42  52 1.42  54 1.44
  66  0.555  0.943  0.498-  65 1.42   9 1.42   7 1.43
  67  0.665  0.830  0.503-  68 1.42  54 1.44  56 1.44
  68  0.721  0.941  0.499-  67 1.42   9 1.44  11 1.44
  69  0.833  0.831  0.500-  58 1.42  70 1.43  56 1.44
  70  0.889  0.943  0.498-  11 1.42  69 1.43   1 1.43
  71  0.527  0.556  0.555-  30 1.99  53 1.99  32 2.00  55 2.01
 

IMPORTANT INFORMATION: All symmetrisations will be switched off!
NOSYMM: (Re-)initialisation of all symmetry stuff for point group C_1.

 
 
 KPOINTS: K-Points                                

Automatic generation of k-mesh.
Space group operators:
 irot       det(A)        alpha          n_x          n_y          n_z        tau_x        tau_y        tau_z
    1     1.000000     0.000000     1.000000     0.000000     0.000000     0.000000     0.000000     0.000000
 
 Subroutine IBZKPT returns following result:
 ===========================================
 
 Found      4 irreducible k-points:
 
 Following reciprocal coordinates:
            Coordinates               Weight
  0.000000  0.000000  0.000000      1.000000
  0.500000 -0.000000  0.000000      1.000000
 -0.000000  0.500000  0.000000      1.000000
  0.500000  0.500000  0.000000      1.000000
 
 Following cartesian coordinates:
            Coordinates               Weight
  0.000000  0.000000  0.000000      1.000000
  0.033640  0.019603  0.000000      1.000000
 -0.000008  0.039207  0.000000      1.000000
  0.033631  0.058810  0.000000      1.000000
 


--------------------------------------------------------------------------------------------------------




 Dimension of arrays:
   k-points           NKPTS =      4   k-points in BZ     NKDIM =      4   number of bands    NBANDS=    184
   number of dos      NEDOS =    301   number of ions     NIONS =     71
   non local maximal  LDIM  =      6   non local SUM 2l+1 LMDIM =     18
   total plane-waves  NPLWV = ******
   max r-space proj   IRMAX =   6644   max aug-charges    IRDMAX=  15616
   dimension x,y,z NGX =   108 NGY =  108 NGZ =  108
   dimension x,y,z NGXF=   216 NGYF=  216 NGZF=  216
   support grid    NGXF=   216 NGYF=  216 NGZF=  216
   ions per type =              46   1  23   1
   NGX,Y,Z   is equivalent  to a cutoff of  12.08, 12.17, 11.97 a.u.
   NGXF,Y,Z  is equivalent  to a cutoff of  24.16, 24.33, 23.94 a.u.

 SYSTEM =  unknown system                          
 POSCAR =  POSCAR-clean                            

 Startparameter for this run:
   NWRITE =      2    write-flag & timer
   PREC   = accura    normal or accurate (medium, high low for compatibility)
   ISTART =      0    job   : 0-new  1-cont  2-samecut
   ICHARG =      2    charge: 1-file 2-atom 10-const
   ISPIN  =      2    spin polarized calculation?
   LNONCOLLINEAR =      F non collinear calculations
   LSORBIT =      F    spin-orbit coupling
   INIWAV =      1    electr: 0-lowe 1-rand  2-diag
   LASPH  =      F    aspherical Exc in radial PAW
   METAGGA=      F    non-selfconsistent MetaGGA calc.

 Electronic Relaxation 1
   ENCUT  =  440.0 eV  32.34 Ry    5.69 a.u.  25.42 25.24 25.66*2*pi/ulx,y,z
   ENINI  =  440.0     initial cutoff
   ENAUG  =  644.9 eV  augmentation charge cutoff
   NELM   =     50;   NELMIN=  2; NELMDL= -5     # of ELM steps 
   EDIFF  = 0.1E-04   stopping-criterion for ELM
   LREAL  =      T    real-space projection
   NLSPLINE    = F    spline interpolate recip. space projectors
   LCOMPAT=      F    compatible to vasp.4.4
   GGA_COMPAT  = T    GGA compatible to vasp.4.4-vasp.4.6
   LMAXPAW     = -100 max onsite density
   LMAXMIX     =    2 max onsite mixed and CHGCAR
   VOSKOWN=      0    Vosko Wilk Nusair interpolation
   ROPT   =   -0.00025  -0.00025  -0.00025  -0.00025
 Ionic relaxation
   EDIFFG = -.5E-01   stopping-criterion for IOM
   NSW    =    400    number of steps for IOM
   NBLOCK =      1;   KBLOCK =    400    inner block; outer block 
   IBRION =      2    ionic relax: 0-MD 1-quasi-New 2-CG
   NFREE  =      1    steps in history (QN), initial steepest desc. (CG)
   ISIF   =      2    stress and relaxation
   IWAVPR =     11    prediction:  0-non 1-charg 2-wave 3-comb
   ISYM   =      0    0-nonsym 1-usesym 2-fastsym
   LCORR  =      T    Harris-Foulkes like correction to forces

   POTIM  = 0.3000    time-step for ionic-motion
   TEIN   =    0.0    initial temperature
   TEBEG  =    0.0;   TEEND  =   0.0 temperature during run
   SMASS  =  -3.00    Nose mass-parameter (am)
   estimated Nose-frequenzy (Omega)   =  0.10E-29 period in steps =****** mass=  -0.505E-26a.u.
   SCALEE = 1.0000    scale energy and forces
   NPACO  =    256;   APACO  = 16.0  distance and # of slots for P.C.
   PSTRESS=    0.0 pullay stress

  Mass of Ions in am
   POMASS =  12.01 14.00 12.01 52.00
  Ionic Valenz
   ZVAL   =   4.00  5.00  4.00 12.00
  Atomic Wigner-Seitz radii
   RWIGS  =  -1.00 -1.00 -1.00 -1.00
  virtual crystal weights 
   VCA    =   1.00  1.00  1.00  1.00
   NELECT =     293.0000    total number of electrons
   NUPDOWN=      -1.0000    fix difference up-down

 DOS related values:
   EMIN   =  10.00;   EMAX   =-10.00  energy-range for DOS
   EFERMI =   0.00
   ISMEAR =     0;   SIGMA  =   0.10  broadening in eV -4-tet -1-fermi 0-gaus

 Electronic relaxation 2 (details)
   IALGO  =     68    algorithm
   LDIAG  =      T    sub-space diagonalisation (order eigenvalues)
   LSUBROT=      F    optimize rotation matrix (better conditioning)
   TURBO    =      0    0=normal 1=particle mesh
   IRESTART =      0    0=no restart 2=restart with 2 vectors
   NREBOOT  =      0    no. of reboots
   NMIN     =      0    reboot dimension
   EREF     =   0.00    reference energy to select bands
   IMIX   =      4    mixing-type and parameters
     AMIX     =   0.40;   BMIX     =  1.00
     AMIX_MAG =   1.60;   BMIX_MAG =  1.00
     AMIN     =   0.10
     WC   =   100.;   INIMIX=   1;  MIXPRE=   1;  MAXMIX= -45

 Intra band minimization:
   WEIMIN = 0.0010     energy-eigenvalue tresh-hold
   EBREAK =  0.14E-07  absolut break condition
   DEPER  =   0.30     relativ break condition  

   TIME   =   0.40     timestep for ELM

  volume/ion in A,a.u.               =      40.04       270.21
  Fermi-wavevector in a.u.,A,eV,Ry     =   0.767554  1.450467  8.015729  0.589139
  Thomas-Fermi vector in A             =   1.868136
 
 Write flags
   LWAVE        =      F    write WAVECAR
   LDOWNSAMPLE  =      F    k-point downsampling of WAVECAR
   LCHARG       =      F    write CHGCAR
   LVTOT        =      F    write LOCPOT, total local potential
   LVHAR        =      F    write LOCPOT, Hartree potential only
   LELF         =      F    write electronic localiz. function (ELF)
   LORBIT       =      0    0 simple, 1 ext, 2 COOP (PROOUT), +10 PAW based schemes


 Dipole corrections
   LMONO  =      F    monopole corrections only (constant potential shift)
   LDIPOL =      F    correct potential (dipole corrections)
   IDIPOL =      0    1-x, 2-y, 3-z, 4-all directions 
   EPSILON=  1.0000000 bulk dielectric constant

 Exchange correlation treatment:
   GGA     =    --    GGA type
   LEXCH   =     8    internal setting for exchange type
   VOSKOWN=      0    Vosko Wilk Nusair interpolation
   LHFCALC =     F    Hartree Fock is set to
   LHFONE  =     F    Hartree Fock one center treatment
   AEXX    =    0.0000 exact exchange contribution

 Linear response parameters
   LEPSILON=     F    determine dielectric tensor
   LRPA    =     F    only Hartree local field effects (RPA)
   LNABLA  =     F    use nabla operator in PAW spheres
   LVEL    =     F    velocity operator in full k-point grid
   LINTERFAST=   F  fast interpolation
   KINTER  =     0    interpolate to denser k-point grid
   CSHIFT  =0.1000    complex shift for real part using Kramers Kronig
   OMEGAMAX=  -1.0    maximum frequency
   DEG_THRESHOLD= 0.2000000E-02 threshold for treating states as degnerate
   RTIME   =   -0.100 relaxation time in fs
  (WPLASMAI=    0.000 imaginary part of plasma frequency in eV, 0.658/RTIME)
   DFIELD  = 0.0000000 0.0000000 0.0000000 field for delta impulse in time
 
 Orbital magnetization related:
   ORBITALMAG=     F  switch on orbital magnetization
   LCHIMAG   =     F  perturbation theory with respect to B field
   DQ        =  0.001000  dq finite difference perturbation B field
   LLRAUG    =     F  two centre corrections for induced B field



--------------------------------------------------------------------------------------------------------


 conjugate gradient relaxation of ions
 charge density and potential will be updated during run
 spin polarized calculation
 RMM-DIIS sequential band-by-band and
  variant of blocked Davidson during initial phase
 perform sub-space diagonalisation
    before iterative eigenvector-optimisation
 modified Broyden-mixing scheme, WC =      100.0
 initial mixing is a Kerker type mixing with AMIX =  0.4000 and BMIX =      1.0000
 Hartree-type preconditioning will be used
 using additional bands           37
 real space projection scheme for non local part
 use partial core corrections
 calculate Harris-corrections to forces 
   (improved forces if not selfconsistent)
 use gradient corrections 
 use of overlap-Matrix (Vanderbilt PP)
 Gauss-broadening in eV      SIGMA  =   0.10


--------------------------------------------------------------------------------------------------------


  energy-cutoff  :      440.00
  volume of cell :     2842.92
      direct lattice vectors                 reciprocal lattice vectors
    14.861552846  0.003181263  0.000000000     0.067279327  0.039206721  0.000000000
    -7.430776423 12.751325011  0.000000000    -0.000016785  0.078413441  0.000000000
     0.000000000  0.000000000 15.000000000     0.000000000  0.000000000  0.066666667

  length of vectors
    14.861553187 14.758479861 15.000000000     0.077869601  0.078413443  0.066666667


 
 k-points in units of 2pi/SCALE and weight: K-Points                                
   0.00000000  0.00000000  0.00000000       0.250
   0.03363966  0.01960336  0.00000000       0.250
  -0.00000839  0.03920672  0.00000000       0.250
   0.03363127  0.05881008  0.00000000       0.250
 
 k-points in reciprocal lattice and weights: K-Points                                
   0.00000000  0.00000000  0.00000000       0.250
   0.50000000 -0.00000000  0.00000000       0.250
  -0.00000000  0.50000000  0.00000000       0.250
   0.50000000  0.50000000  0.00000000       0.250
 
 position of ions in fractional coordinates (direct lattice) 
   0.00010658  0.99945342  0.49762472
   0.05577578  0.11113430  0.49772004
   0.16778638  0.00165680  0.49754319
   0.22350567  0.11329028  0.49825646
   0.33387188  0.00161131  0.49774203
   0.38988779  0.11319559  0.49839031
   0.49991527  0.99984946  0.49773258
   0.55572590  0.11139201  0.49764724
   0.66573485  0.99774366  0.49825003
   0.72160972  0.10929967  0.49753983
   0.83241816  0.99775271  0.49838969
   0.88801447  0.10925147  0.49774446
   0.99913494  0.16551108  0.49781758
   0.05442897  0.27697968  0.49848644
   0.16742546  0.16800587  0.49838205
   0.22306509  0.27969282  0.50008246
   0.33516304  0.17013935  0.49939540
   0.39083547  0.28145677  0.50246480
   0.50092831  0.16811301  0.49840354
   0.55714345  0.27998052  0.50004005
   0.66669176  0.16565502  0.49752572
   0.72256685  0.27689593  0.49803129
   0.83268938  0.16502698  0.49761538
   0.88844632  0.27649019  0.49775373
   0.99919889  0.33267736  0.49831530
   0.05464601  0.44458474  0.49877279
   0.16541898  0.33299686  0.50001736
   0.21918055  0.44399419  0.50173346
   0.33533302  0.33777933  0.50334715
   0.38759661  0.44859441  0.50944875
   0.50295849  0.33812253  0.50357183
   0.56154314  0.44890537  0.50992024
   0.66811465  0.33335741  0.49963780
   0.72555532  0.44469947  0.50116530
   0.83347898  0.33244979  0.49789550
   0.88951208  0.44370283  0.49822138
   0.99979776  0.50062291  0.49828395
   0.05525577  0.61194796  0.49833233
   0.16449083  0.50000694  0.50030259
   0.21957322  0.61124378  0.50029673
   0.32897458  0.49932493  0.50529296
   0.38497328  0.61188927  0.50527278
   0.67097890  0.49948899  0.50520752
   0.72769078  0.61171879  0.50519298
   0.83655286  0.50068676  0.49951138
   0.89240372  0.61187577  0.49962516
   0.00130670  0.66725046  0.49831374
   0.05615933  0.77785409  0.49791514
   0.16553455  0.66762983  0.49880232
   0.22263817  0.77907478  0.49831383
   0.33039364  0.66722132  0.50169742
   0.38794413  0.77813505  0.49998637
   0.49432267  0.66258551  0.50939635
   0.55301697  0.77322407  0.50338702
   0.66884275  0.66236076  0.50988049
   0.72047135  0.77296792  0.50358124
   0.83765146  0.66754246  0.50118458
   0.89031741  0.77835401  0.49960444
   0.00116112  0.83338020  0.49801637
   0.05683403  0.94500785  0.49752578
   0.16683445  0.83382476  0.49774227
   0.22250489  0.94563092  0.49761316
   0.33305186  0.83435902  0.49847293
   0.38904638  0.94569713  0.49781952
   0.49880499  0.83138849  0.50006901
   0.55482549  0.94304660  0.49838493
   0.66497728  0.82957328  0.50251372
   0.72060872  0.94084652  0.49939854
   0.83290175  0.83133057  0.49999474
   0.88860351  0.94313296  0.49838426
   0.52736667  0.55555306  0.55471755
 
 position of ions in cartesian coordinates  (Angst):
  -7.42513096 12.74435573  7.46437087
   0.00310052  1.41728703  7.46580055
   2.48125485  0.02166011  7.46314785
   2.47980650  1.44531227  7.47384695
   4.94988136  0.02160847  7.46613043
   4.95320680  1.44463411  7.47585462
  -0.00014061 12.75099577  7.46598863
   7.43122072  1.42216359  7.46470856
   2.47984365 12.72467156  7.47375042
   9.91205958  1.39601120  7.46309738
   4.95694914 12.72531722  7.47584541
  12.38545074  1.39592595  7.46616689
  13.61882089  2.11366412  7.46726363
  -1.24927500  3.53203105  7.47729667
   1.23978832  2.14283002  7.47573071
   1.23675885  3.56716362  7.50123693
   3.71677583  2.17056833  7.49093096
   3.71697965  3.59019016  7.53697203
   6.19536232  2.14525716  7.47605310
   6.19954411  3.57189507  7.50060069
   8.67712940  2.11444191  7.46288584
   8.68091369  3.53308861  7.47046934
  11.14877867  2.10696160  7.46423074
  11.14915520  3.52844268  7.46630601
  12.37759605  4.24525580  7.47472949
  -2.49148518  5.66921832  7.48159180
  -0.01604234  4.24667738  7.50026043
  -0.04185826  5.66221155  7.52600193
   2.47360666  4.30820083  7.55020732
   2.42688267  5.72140622  7.64173132
   4.96223116  4.31311036  7.55357742
   5.00968761  5.72592474  7.64880355
   7.45211675  4.25287411  7.49456707
   7.47841645  5.67281563  7.51747950
   9.91643184  4.24182687  7.46843257
   9.92247432  5.66062872  7.47332063
  11.13853033  6.38678605  7.47425925
  -3.72606194  7.80332317  7.47498498
  -1.27085063  6.37627428  7.50453880
  -1.27881684  7.79486661  7.50445101
   1.17870111  6.36810108  7.57939435
   1.17448838  7.80362368  7.57909168
   6.26019743  6.37128096  7.57811277
   6.26906939  7.80254008  7.57789466
   8.71198313  6.38708084  7.49267063
   8.71579306  7.80506578  7.49437747
  -4.93876935  8.50833168  7.47470614
  -4.94544489  9.91884893  7.46872704
  -2.50090750  8.51369157  7.48203478
  -2.48038157  9.93494405  7.47470748
  -0.04780995  8.50900699  7.52546133
  -0.01669544  9.92348711  7.49979559
   2.42287774  8.45041577  7.64094529
   2.47303572  9.86139073  7.55080535
   5.01818708  8.44810512  7.64820736
   4.96357127  9.85865719  7.55371858
   7.48844261  8.51471564  7.51776872
   7.44772459  9.92787727  7.49406655
  -6.17540590 10.62670554  7.47024551
  -6.17750013 12.05028300  7.46288674
  -3.71654641 10.63290128  7.46613402
  -3.72000384 12.05875507  7.46419741
  -1.25026757 10.64024261  7.47709393
  -1.24543058 12.06012919  7.46729277
   1.23515475 10.60289165  7.50103519
   1.23799987 12.02685872  7.47577397
   3.71822135 10.58027397  7.53770575
   3.71814441 11.99933222  7.49097806
   6.20078180 10.60321600  7.49992114
   6.19781782 12.02902180  7.47576393
   3.70929715  7.08571527  8.32076323
 


--------------------------------------------------------------------------------------------------------


 k-point  1 :   0.0000 0.0000 0.0000  plane waves:   59577
 k-point  2 :   0.5000-0.0000 0.0000  plane waves:   59562
 k-point  3 :  -0.0000 0.5000 0.0000  plane waves:   59646
 k-point  4 :   0.5000 0.5000 0.0000  plane waves:   59562

 maximum and minimum number of plane-waves per node :      4981     4946

 maximum number of plane-waves:     59646
 maximum index in each direction: 
   IXMAX=   25   IYMAX=   25   IZMAX=   25
   IXMIN=  -25   IYMIN=  -25   IZMIN=  -25


 real space projection operators:
  total allocation   :      18895.00 KBytes
  max/ min on nodes  :       1622.39       1538.77


 parallel 3D FFT for wavefunctions:
    minimum data exchange during FFTs selected (reduces bandwidth)
 parallel 3D FFT for charge:
    minimum data exchange during FFTs selected (reduces bandwidth)


 total amount of memory used by VASP MPI-rank0   111577. kBytes
=======================================================================

   base      :      30000. kBytes
   nonlr-proj:       9915. kBytes
   fftplans  :      10852. kBytes
   grid      :      30996. kBytes
   one-center:        186. kBytes
   wavefun   :      29628. kBytes
 
     INWAV:  cpu time    0.0000: real time    0.0000
 Broyden mixing: mesh for mixing (old mesh)
   NGX = 51   NGY = 51   NGZ = 51
  (NGX  =216   NGY  =216   NGZ  =216)
  gives a total of 132651 points

 initial charge density was supplied:
 charge density of overlapping atoms calculated
 number of electron     293.0000000 magnetization       1.0000000
 keeping initial charge density in first step


--------------------------------------------------------------------------------------------------------


 Maximum index for non-local projection operator          552
 Maximum index for augmentation-charges          334 (set IRDMAX)


--------------------------------------------------------------------------------------------------------


 First call to EWALD:  gamma=   0.125
 Maximum number of real-space cells 3x 3x 3
 Maximum number of reciprocal cells 3x 3x 3

    FEWALD:  cpu time    0.0296: real time    0.0314


--------------------------------------- Iteration      1(   1)  ---------------------------------------


    POTLOK:  cpu time    0.3947: real time    0.4262
    SETDIJ:  cpu time    0.0128: real time    0.0130
     EDDAV:  cpu time   11.4758: real time   11.6045
       DOS:  cpu time    0.0015: real time    0.0015
    --------------------------------------------
      LOOP:  cpu time   11.8848: real time   12.0452

 eigenvalue-minimisations  :  3360
 total energy-change (2. order) : 0.2477053E+04  (-0.1079059E+05)
 number of electron     293.0000000 magnetization       1.0000000
 augmentation part      293.0000000 magnetization       1.0000000

 Free energy of the ion-electron system (eV)
  ---------------------------------------------------
  alpha Z        PSCENC =       157.24233376
  Ewald energy   TEWEN  =     30449.82602250
  -Hartree energ DENC   =    -39611.74895980
  -exchange      EXHF   =         0.00000000
  -V(xc)+E(xc)   XCENC  =       982.95240382
  PAW double counting   =      9000.30529238    -9089.18527416
  entropy T*S    EENTRO =        -0.09833858
  eigenvalues    EBANDS =     -1477.51814067
  atomic energy  EATOM  =     12065.27733323
  Solvation  Ediel_sol  =         0.00000000
  ---------------------------------------------------
  free energy    TOTEN  =      2477.05267247 eV

  energy without entropy =     2477.15101105  energy(sigma->0) =     2477.10184176


--------------------------------------------------------------------------------------------------------




--------------------------------------- Iteration      1(   2)  ---------------------------------------


     EDDAV:  cpu time   14.8789: real time   15.0539
       DOS:  cpu time    0.0010: real time    0.0010
    --------------------------------------------
      LOOP:  cpu time   14.8799: real time   15.0549

 eigenvalue-minimisations  :  4224
 total energy-change (2. order) :-0.2704313E+04  (-0.2583191E+04)
 number of electron     293.0000000 magnetization       1.0000000
 augmentation part      293.0000000 magnetization       1.0000000

 Free energy of the ion-electron system (eV)
  ---------------------------------------------------
  alpha Z        PSCENC =       157.24233376
  Ewald energy   TEWEN  =     30449.82602250
  -Hartree energ DENC   =    -39611.74895980
  -exchange      EXHF   =         0.00000000
  -V(xc)+E(xc)   XCENC  =       982.95240382
  PAW double counting   =      9000.30529238    -9089.18527416
  entropy T*S    EENTRO =        -0.02393133
  eigenvalues    EBANDS =     -4181.90555497
  atomic energy  EATOM  =     12065.27733323
  Solvation  Ediel_sol  =         0.00000000
  ---------------------------------------------------
  free energy    TOTEN  =      -227.26033459 eV

  energy without entropy =     -227.23640325  energy(sigma->0) =     -227.24836892


--------------------------------------------------------------------------------------------------------




--------------------------------------- Iteration      1(   3)  ---------------------------------------


     EDDAV:  cpu time   12.6689: real time   12.8650
       DOS:  cpu time    0.0010: real time    0.0010
    --------------------------------------------
      LOOP:  cpu time   12.6699: real time   12.8660

 eigenvalue-minimisations  :  3560
 total energy-change (2. order) :-0.4598523E+03  (-0.4570176E+03)
 number of electron     293.0000000 magnetization       1.0000000
 augmentation part      293.0000000 magnetization       1.0000000

 Free energy of the ion-electron system (eV)
  ---------------------------------------------------
  alpha Z        PSCENC =       157.24233376
  Ewald energy   TEWEN  =     30449.82602250
  -Hartree energ DENC   =    -39611.74895980
  -exchange      EXHF   =         0.00000000
  -V(xc)+E(xc)   XCENC  =       982.95240382
  PAW double counting   =      9000.30529238    -9089.18527416
  entropy T*S    EENTRO =        -0.03823733
  eigenvalues    EBANDS =     -4641.74359724
  atomic energy  EATOM  =     12065.27733323
  Solvation  Ediel_sol  =         0.00000000
  ---------------------------------------------------
  free energy    TOTEN  =      -687.11268285 eV

  energy without entropy =     -687.07444552  energy(sigma->0) =     -687.09356418


--------------------------------------------------------------------------------------------------------




--------------------------------------- Iteration      1(   4)  ---------------------------------------


     EDDAV:  cpu time   12.8550: real time   13.0326
       DOS:  cpu time    0.0010: real time    0.0010
    --------------------------------------------
      LOOP:  cpu time   12.8560: real time   13.0336

 eigenvalue-minimisations  :  3552
 total energy-change (2. order) :-0.1689364E+02  (-0.1675223E+02)
 number of electron     293.0000000 magnetization       1.0000000
 augmentation part      293.0000000 magnetization       1.0000000

 Free energy of the ion-electron system (eV)
  ---------------------------------------------------
  alpha Z        PSCENC =       157.24233376
  Ewald energy   TEWEN  =     30449.82602250
  -Hartree energ DENC   =    -39611.74895980
  -exchange      EXHF   =         0.00000000
  -V(xc)+E(xc)   XCENC  =       982.95240382
  PAW double counting   =      9000.30529238    -9089.18527416
  entropy T*S    EENTRO =        -0.03748912
  eigenvalues    EBANDS =     -4658.63798277
  atomic energy  EATOM  =     12065.27733323
  Solvation  Ediel_sol  =         0.00000000
  ---------------------------------------------------
  free energy    TOTEN  =      -704.00632016 eV

  energy without entropy =     -703.96883105  energy(sigma->0) =     -703.98757560


--------------------------------------------------------------------------------------------------------




--------------------------------------- Iteration      1(   5)  ---------------------------------------


     EDDAV:  cpu time   14.0519: real time   14.2769
       DOS:  cpu time    0.0010: real time    0.0010
    CHARGE:  cpu time    0.4986: real time    0.5077
    MIXING:  cpu time    0.0074: real time    0.0084
    --------------------------------------------
      LOOP:  cpu time   14.5589: real time   14.7941

 eigenvalue-minimisations  :  4024
 total energy-change (2. order) :-0.5482936E+00  (-0.5461633E+00)
 number of electron     292.9999979 magnetization       0.7759094
 augmentation part       11.6635499 magnetization       0.7571969

 Broyden mixing:
  rms(total) = 0.46855E+01    rms(broyden)= 0.46850E+01
  rms(prec ) = 0.54424E+01
  weight for this iteration     100.00

 Free energy of the ion-electron system (eV)
  ---------------------------------------------------
  alpha Z        PSCENC =       157.24233376
  Ewald energy   TEWEN  =     30449.82602250
  -Hartree energ DENC   =    -39611.74895980
  -exchange      EXHF   =         0.00000000
  -V(xc)+E(xc)   XCENC  =       982.95240382
  PAW double counting   =      9000.30529238    -9089.18527416
  entropy T*S    EENTRO =        -0.03764640
  eigenvalues    EBANDS =     -4659.18611906
  atomic energy  EATOM  =     12065.27733323
  Solvation  Ediel_sol  =         0.00000000
  ---------------------------------------------------
  free energy    TOTEN  =      -704.55461374 eV

  energy without entropy =     -704.51696734  energy(sigma->0) =     -704.53579054


--------------------------------------------------------------------------------------------------------




--------------------------------------- Iteration      1(   6)  ---------------------------------------


    POTLOK:  cpu time    0.3935: real time    0.4066
    SETDIJ:  cpu time    0.0114: real time    0.0128
    EDDIAG:  cpu time    2.0864: real time    2.1109
  RMM-DIIS:  cpu time   11.5174: real time   11.6147
    ORTHCH:  cpu time    0.1786: real time    0.1854
       DOS:  cpu time    0.0010: real time    0.0010
    CHARGE:  cpu time    0.4831: real time    0.4935
    MIXING:  cpu time    0.0074: real time    0.0116
    --------------------------------------------
      LOOP:  cpu time   14.6787: real time   14.8364

 eigenvalue-minimisations  :  4096
 total energy-change (2. order) :-0.2716299E+02  (-0.5253719E+02)
 number of electron     292.9999979 magnetization       0.7232125
 augmentation part       17.3536459 magnetization       0.8618443

 Broyden mixing:
  rms(total) = 0.83921E+01    rms(broyden)= 0.83918E+01
  rms(prec ) = 0.92750E+01
  weight for this iteration     100.00

 eigenvalues of (default mixing * dielectric matrix)
  average eigenvalue GAMMA=   0.2164
  0.2164

 Free energy of the ion-electron system (eV)
  ---------------------------------------------------
  alpha Z        PSCENC =       157.24233376
  Ewald energy   TEWEN  =     30449.82602250
  -Hartree energ DENC   =    -39904.97502867
  -exchange      EXHF   =         0.00000000
  -V(xc)+E(xc)   XCENC  =       996.77375518
  PAW double counting   =     15333.77746353   -15422.41885070
  entropy T*S    EENTRO =        -0.05587076
  eigenvalues    EBANDS =     -4407.16476534
  atomic energy  EATOM  =     12065.27733323
  Solvation  Ediel_sol  =         0.00000000
  ---------------------------------------------------
  free energy    TOTEN  =      -731.71760727 eV

  energy without entropy =     -731.66173651  energy(sigma->0) =     -731.68967189


--------------------------------------------------------------------------------------------------------




--------------------------------------- Iteration      1(   7)  ---------------------------------------


    POTLOK:  cpu time    0.3786: real time    0.3836
    SETDIJ:  cpu time    0.0124: real time    0.0124
    EDDIAG:  cpu time    2.0290: real time    2.0451
  RMM-DIIS:  cpu time    8.7893: real time    8.8553
    ORTHCH:  cpu time    0.5457: real time    0.5649
       DOS:  cpu time    0.0009: real time    0.0009
    CHARGE:  cpu time    0.4900: real time    0.4966
    MIXING:  cpu time    0.0094: real time    0.0103
    --------------------------------------------
      LOOP:  cpu time   12.2552: real time   12.3690

 eigenvalue-minimisations  :  3046
 total energy-change (2. order) : 0.6950170E+02  (-0.5536664E+01)
 number of electron     292.9999979 magnetization       0.6167598
 augmentation part       15.2263864 magnetization       0.6054008

 Broyden mixing:
  rms(total) = 0.31860E+01    rms(broyden)= 0.31857E+01
  rms(prec ) = 0.38191E+01
  weight for this iteration     100.00

 eigenvalues of (default mixing * dielectric matrix)
  average eigenvalue GAMMA=   0.4690
  0.5238  0.4143

 Free energy of the ion-electron system (eV)
  ---------------------------------------------------
  alpha Z        PSCENC =       157.24233376
  Ewald energy   TEWEN  =     30449.82602250
  -Hartree energ DENC   =    -40027.19913025
  -exchange      EXHF   =         0.00000000
  -V(xc)+E(xc)   XCENC  =      1001.38552416
  PAW double counting   =     16961.45601788   -17056.91199215
  entropy T*S    EENTRO =        -0.00003153
  eigenvalues    EBANDS =     -4213.29198855
  atomic energy  EATOM  =     12065.27733323
  Solvation  Ediel_sol  =         0.00000000
  ---------------------------------------------------
  free energy    TOTEN  =      -662.21591095 eV

  energy without entropy =     -662.21587942  energy(sigma->0) =     -662.21589519


--------------------------------------------------------------------------------------------------------




--------------------------------------- Iteration      1(   8)  ---------------------------------------


    POTLOK:  cpu time    0.3747: real time    0.3780
    SETDIJ:  cpu time    0.0123: real time    0.0123
    EDDIAG:  cpu time    2.0645: real time    2.0798
  RMM-DIIS:  cpu time    8.9117: real time    8.9802
    ORTHCH:  cpu time    0.2263: real time    0.2341
       DOS:  cpu time    0.0011: real time    0.0011
    CHARGE:  cpu time    0.4873: real time    0.4946
    MIXING:  cpu time    0.0078: real time    0.0084
    --------------------------------------------
      LOOP:  cpu time   12.0857: real time   12.1884

 eigenvalue-minimisations  :  3117
 total energy-change (2. order) :-0.2128568E+00  (-0.2201791E+01)
 number of electron     292.9999979 magnetization       0.3420526
 augmentation part       11.2336105 magnetization       0.3187711

 Broyden mixing:
  rms(total) = 0.28380E+01    rms(broyden)= 0.28371E+01
  rms(prec ) = 0.34750E+01
  weight for this iteration     100.00

 eigenvalues of (default mixing * dielectric matrix)
  average eigenvalue GAMMA=   0.8606
  1.9008  0.3404  0.3404

 Free energy of the ion-electron system (eV)
  ---------------------------------------------------
  alpha Z        PSCENC =       157.24233376
  Ewald energy   TEWEN  =     30449.82602250
  -Hartree energ DENC   =    -40209.59858150
  -exchange      EXHF   =         0.00000000
  -V(xc)+E(xc)   XCENC  =      1008.15956304
  PAW double counting   =     19996.15498250   -20095.59621740
  entropy T*S    EENTRO =        -0.02804834
  eigenvalues    EBANDS =     -4033.86615551
  atomic energy  EATOM  =     12065.27733323
  Solvation  Ediel_sol  =         0.00000000
  ---------------------------------------------------
  free energy    TOTEN  =      -662.42876772 eV

  energy without entropy =     -662.40071937  energy(sigma->0) =     -662.41474354


--------------------------------------------------------------------------------------------------------




--------------------------------------- Iteration      1(   9)  ---------------------------------------


    POTLOK:  cpu time    0.3985: real time    0.4027
    SETDIJ:  cpu time    0.0121: real time    0.0121
    EDDIAG:  cpu time    2.0476: real time    2.0639
  RMM-DIIS:  cpu time    8.5259: real time    8.5904
    ORTHCH:  cpu time    0.5047: real time    0.5214
       DOS:  cpu time    0.0009: real time    0.0009
    CHARGE:  cpu time    0.4524: real time    0.4585
    MIXING:  cpu time    0.0091: real time    0.0091
    --------------------------------------------
      LOOP:  cpu time   11.9512: real time   12.0591

 eigenvalue-minimisations  :  2965
 total energy-change (2. order) : 0.1508826E+02  (-0.2030934E+01)
 number of electron     292.9999980 magnetization       0.2556632
 augmentation part       12.1975510 magnetization       0.2710173

 Broyden mixing:
  rms(total) = 0.11492E+01    rms(broyden)= 0.11486E+01
  rms(prec ) = 0.12928E+01
  weight for this iteration     100.00

 eigenvalues of (default mixing * dielectric matrix)
  average eigenvalue GAMMA=   0.9224
  2.2342  0.7530  0.3512  0.3512

 Free energy of the ion-electron system (eV)
  ---------------------------------------------------
  alpha Z        PSCENC =       157.24233376
  Ewald energy   TEWEN  =     30449.82602250
  -Hartree energ DENC   =    -40517.79888843
  -exchange      EXHF   =         0.00000000
  -V(xc)+E(xc)   XCENC  =      1021.07353056
  PAW double counting   =     28524.34378376   -28626.54786888
  entropy T*S    EENTRO =        -0.00498518
  eigenvalues    EBANDS =     -3720.75177283
  atomic energy  EATOM  =     12065.27733323
  Solvation  Ediel_sol  =         0.00000000
  ---------------------------------------------------
  free energy    TOTEN  =      -647.34051150 eV

  energy without entropy =     -647.33552632  energy(sigma->0) =     -647.33801891


--------------------------------------------------------------------------------------------------------




--------------------------------------- Iteration      1(  10)  ---------------------------------------


    POTLOK:  cpu time    0.4664: real time    0.4705
    SETDIJ:  cpu time    0.0150: real time    0.0151
    EDDIAG:  cpu time    2.0525: real time    2.0685
  RMM-DIIS:  cpu time    8.5800: real time    8.6460
    ORTHCH:  cpu time    0.3671: real time    0.3680
       DOS:  cpu time    0.0009: real time    0.0009
    CHARGE:  cpu time    0.4816: real time    0.4882
    MIXING:  cpu time    0.0094: real time    0.0095
    --------------------------------------------
      LOOP:  cpu time   11.9730: real time   12.0668

 eigenvalue-minimisations  :  3005
 total energy-change (2. order) :-0.4659805E+00  (-0.3061505E+00)
 number of electron     292.9999980 magnetization       0.1996974
 augmentation part       13.7745327 magnetization       0.2196248

 Broyden mixing:
  rms(total) = 0.14544E+01    rms(broyden)= 0.14524E+01
  rms(prec ) = 0.18077E+01
  weight for this iteration     100.00

 eigenvalues of (default mixing * dielectric matrix)
  average eigenvalue GAMMA=   0.9299
  2.3558  1.0982  0.3487  0.3487  0.4979

 Free energy of the ion-electron system (eV)
  ---------------------------------------------------
  alpha Z        PSCENC =       157.24233376
  Ewald energy   TEWEN  =     30449.82602250
  -Hartree energ DENC   =    -40560.04015708
  -exchange      EXHF   =         0.00000000
  -V(xc)+E(xc)   XCENC  =      1021.93396282
  PAW double counting   =     30045.73369259   -30146.76478614
  entropy T*S    EENTRO =        -0.00134169
  eigenvalues    EBANDS =     -3681.01355196
  atomic energy  EATOM  =     12065.27733323
  Solvation  Ediel_sol  =         0.00000000
  ---------------------------------------------------
  free energy    TOTEN  =      -647.80649197 eV

  energy without entropy =     -647.80515028  energy(sigma->0) =     -647.80582113


--------------------------------------------------------------------------------------------------------




--------------------------------------- Iteration      1(  11)  ---------------------------------------


    POTLOK:  cpu time    0.4019: real time    0.4095
    SETDIJ:  cpu time    0.0125: real time    0.0126
    EDDIAG:  cpu time    2.0605: real time    2.0865
  RMM-DIIS:  cpu time    8.9036: real time    8.9681
    ORTHCH:  cpu time    0.2948: real time    0.3155
       DOS:  cpu time    0.0011: real time    0.0011
    CHARGE:  cpu time    0.4839: real time    0.4919
    MIXING:  cpu time    0.0098: real time    0.0098
    --------------------------------------------
      LOOP:  cpu time   12.1681: real time   12.2951

 eigenvalue-minimisations  :  3099
 total energy-change (2. order) : 0.1065648E+01  (-0.4274705E-01)
 number of electron     292.9999980 magnetization       0.1323296
 augmentation part       12.5213890 magnetization       0.1137659

 Broyden mixing:
  rms(total) = 0.77244E+00    rms(broyden)= 0.76979E+00
  rms(prec ) = 0.82455E+00
  weight for this iteration     100.00

 eigenvalues of (default mixing * dielectric matrix)
  average eigenvalue GAMMA=   0.9827
  2.0864  2.0864  0.6698  0.3462  0.3462  0.3615

 Free energy of the ion-electron system (eV)
  ---------------------------------------------------
  alpha Z        PSCENC =       157.24233376
  Ewald energy   TEWEN  =     30449.82602250
  -Hartree energ DENC   =    -40593.71475382
  -exchange      EXHF   =         0.00000000
  -V(xc)+E(xc)   XCENC  =      1022.37351426
  PAW double counting   =     30726.86342052   -30827.22133617
  entropy T*S    EENTRO =        -0.02909277
  eigenvalues    EBANDS =     -3647.35828584
  atomic energy  EATOM  =     12065.27733323
  Solvation  Ediel_sol  =         0.00000000
  ---------------------------------------------------
  free energy    TOTEN  =      -646.74084433 eV

  energy without entropy =     -646.71175156  energy(sigma->0) =     -646.72629795


--------------------------------------------------------------------------------------------------------




--------------------------------------- Iteration      1(  12)  ---------------------------------------


    POTLOK:  cpu time    0.4060: real time    0.4122
    SETDIJ:  cpu time    0.0121: real time    0.0124
    EDDIAG:  cpu time    2.1743: real time    2.1945
  RMM-DIIS:  cpu time    8.2996: real time    8.3556
    ORTHCH:  cpu time    0.2397: real time    0.2404
       DOS:  cpu time    0.0010: real time    0.0010
    CHARGE:  cpu time    0.4744: real time    0.4873
    MIXING:  cpu time    0.0094: real time    0.0094
    --------------------------------------------
      LOOP:  cpu time   11.6165: real time   11.7128

 eigenvalue-minimisations  :  2944
 total energy-change (2. order) : 0.1301634E+00  (-0.1605540E-01)
 number of electron     292.9999980 magnetization       0.1515469
 augmentation part       12.8807010 magnetization      -0.1579786

 Broyden mixing:
  rms(total) = 0.59635E+00    rms(broyden)= 0.59525E+00
  rms(prec ) = 0.61570E+00
  weight for this iteration     100.00

 eigenvalues of (default mixing * dielectric matrix)
  average eigenvalue GAMMA=   0.8728
  2.1383  2.1383  0.5815  0.3478  0.3478  0.3715  0.1847

 Free energy of the ion-electron system (eV)
  ---------------------------------------------------
  alpha Z        PSCENC =       157.24233376
  Ewald energy   TEWEN  =     30449.82602250
  -Hartree energ DENC   =    -40619.69647397
  -exchange      EXHF   =         0.00000000
  -V(xc)+E(xc)   XCENC  =      1021.93165817
  PAW double counting   =     31160.53072630   -31259.39660503
  entropy T*S    EENTRO =        -0.05768350
  eigenvalues    EBANDS =     -3622.26799237
  atomic energy  EATOM  =     12065.27733323
  Solvation  Ediel_sol  =         0.00000000
  ---------------------------------------------------
  free energy    TOTEN  =      -646.61068092 eV

  energy without entropy =     -646.55299742  energy(sigma->0) =     -646.58183917


--------------------------------------------------------------------------------------------------------




--------------------------------------- Iteration      1(  13)  ---------------------------------------


    POTLOK:  cpu time    0.3830: real time    0.3863
    SETDIJ:  cpu time    0.0122: real time    0.0123
    EDDIAG:  cpu time    2.0687: real time    2.0827
  RMM-DIIS:  cpu time    8.3869: real time    8.4449
    ORTHCH:  cpu time    0.2486: real time    0.2493
       DOS:  cpu time    0.0010: real time    0.0010
    CHARGE:  cpu time    0.4504: real time    0.4575
    MIXING:  cpu time    0.0090: real time    0.0093
    --------------------------------------------
      LOOP:  cpu time   11.5599: real time   11.6432

 eigenvalue-minimisations  :  2976
 total energy-change (2. order) :-0.9426986E-01  (-0.2612458E-02)
 number of electron     292.9999980 magnetization       0.0775579
 augmentation part       12.9445761 magnetization      -0.3882222

 Broyden mixing:
  rms(total) = 0.72004E+00    rms(broyden)= 0.71971E+00
  rms(prec ) = 0.74729E+00
  weight for this iteration     100.00

 eigenvalues of (default mixing * dielectric matrix)
  average eigenvalue GAMMA=   0.8758
  2.2093  2.2093  0.7230  0.3466  0.3466  0.5511  0.3377  0.2826

 Free energy of the ion-electron system (eV)
  ---------------------------------------------------
  alpha Z        PSCENC =       157.24233376
  Ewald energy   TEWEN  =     30449.82602250
  -Hartree energ DENC   =    -40622.31987431
  -exchange      EXHF   =         0.00000000
  -V(xc)+E(xc)   XCENC  =      1021.95795750
  PAW double counting   =     31165.80113970   -31264.57553070
  entropy T*S    EENTRO =        -0.02939423
  eigenvalues    EBANDS =     -3619.88493824
  atomic energy  EATOM  =     12065.27733323
  Solvation  Ediel_sol  =         0.00000000
  ---------------------------------------------------
  free energy    TOTEN  =      -646.70495078 eV

  energy without entropy =     -646.67555655  energy(sigma->0) =     -646.69025367


--------------------------------------------------------------------------------------------------------




--------------------------------------- Iteration      1(  14)  ---------------------------------------


    POTLOK:  cpu time    0.3887: real time    0.3921
    SETDIJ:  cpu time    0.0124: real time    0.0125
    EDDIAG:  cpu time    2.0560: real time    2.0707
  RMM-DIIS:  cpu time    8.4903: real time    8.5524
    ORTHCH:  cpu time    0.2395: real time    0.2404
       DOS:  cpu time    0.0010: real time    0.0010
    CHARGE:  cpu time    0.4502: real time    0.4571
    MIXING:  cpu time    0.0091: real time    0.0092
    --------------------------------------------
      LOOP:  cpu time   11.6472: real time   11.7353

 eigenvalue-minimisations  :  2977
 total energy-change (2. order) : 0.1660287E+00  (-0.2618079E-02)
 number of electron     292.9999980 magnetization       0.0538898
 augmentation part       13.0324584 magnetization      -0.3402153

 Broyden mixing:
  rms(total) = 0.74390E+00    rms(broyden)= 0.74388E+00
  rms(prec ) = 0.79453E+00
  weight for this iteration     100.00

 eigenvalues of (default mixing * dielectric matrix)
  average eigenvalue GAMMA=   0.8202
  2.2323  2.2323  0.7186  0.3464  0.3464  0.5385  0.3409  0.3130  0.3130

 Free energy of the ion-electron system (eV)
  ---------------------------------------------------
  alpha Z        PSCENC =       157.24233376
  Ewald energy   TEWEN  =     30449.82602250
  -Hartree energ DENC   =    -40627.43850009
  -exchange      EXHF   =         0.00000000
  -V(xc)+E(xc)   XCENC  =      1022.02756204
  PAW double counting   =     31235.84777304   -31334.52706846
  entropy T*S    EENTRO =        -0.04840595
  eigenvalues    EBANDS =     -3614.74597220
  atomic energy  EATOM  =     12065.27733323
  Solvation  Ediel_sol  =         0.00000000
  ---------------------------------------------------
  free energy    TOTEN  =      -646.53892213 eV

  energy without entropy =     -646.49051618  energy(sigma->0) =     -646.51471916


--------------------------------------------------------------------------------------------------------




--------------------------------------- Iteration      1(  15)  ---------------------------------------


    POTLOK:  cpu time    0.3865: real time    0.3904
    SETDIJ:  cpu time    0.0126: real time    0.0126
    EDDIAG:  cpu time    2.0509: real time    2.0715
  RMM-DIIS:  cpu time    8.7869: real time    8.8486
    ORTHCH:  cpu time    0.2296: real time    0.2565
       DOS:  cpu time    0.0010: real time    0.0010
    CHARGE:  cpu time    0.4879: real time    0.4952
    MIXING:  cpu time    0.0085: real time    0.0087
    --------------------------------------------
      LOOP:  cpu time   11.9638: real time   12.0846

 eigenvalue-minimisations  :  3110
 total energy-change (2. order) : 0.1585211E-01  (-0.4503570E-03)
 number of electron     292.9999980 magnetization       0.0144186
 augmentation part       13.0251586 magnetization      -0.2476750

 Broyden mixing:
  rms(total) = 0.63440E+00    rms(broyden)= 0.63426E+00
  rms(prec ) = 0.69038E+00
  weight for this iteration     100.00

 eigenvalues of (default mixing * dielectric matrix)
  average eigenvalue GAMMA=   0.8243
  2.2152  2.2152  0.7465  0.5400  0.5400  0.5479  0.3462  0.3462  0.3456  0.4004

 Free energy of the ion-electron system (eV)
  ---------------------------------------------------
  alpha Z        PSCENC =       157.24233376
  Ewald energy   TEWEN  =     30449.82602250
  -Hartree energ DENC   =    -40628.70060338
  -exchange      EXHF   =         0.00000000
  -V(xc)+E(xc)   XCENC  =      1022.04524935
  PAW double counting   =     31234.60213705   -31333.30078738
  entropy T*S    EENTRO =        -0.06695779
  eigenvalues    EBANDS =     -3613.44779735
  atomic energy  EATOM  =     12065.27733323
  Solvation  Ediel_sol  =         0.00000000
  ---------------------------------------------------
  free energy    TOTEN  =      -646.52307002 eV

  energy without entropy =     -646.45611222  energy(sigma->0) =     -646.48959112


--------------------------------------------------------------------------------------------------------




--------------------------------------- Iteration      1(  16)  ---------------------------------------


    POTLOK:  cpu time    0.3831: real time    0.3865
    SETDIJ:  cpu time    0.0106: real time    0.0123
    EDDIAG:  cpu time    2.0452: real time    2.0642
  RMM-DIIS:  cpu time    8.3041: real time    8.3615
    ORTHCH:  cpu time    0.2591: real time    0.2601
       DOS:  cpu time    0.0010: real time    0.0010
    CHARGE:  cpu time    0.4514: real time    0.4575
    MIXING:  cpu time    0.0094: real time    0.0101
    --------------------------------------------
      LOOP:  cpu time   11.4639: real time   11.5531

 eigenvalue-minimisations  :  2946
 total energy-change (2. order) :-0.1374400E-01  (-0.1802796E-02)
 number of electron     292.9999980 magnetization      -0.0444869
 augmentation part       12.9266137 magnetization      -0.2687602

 Broyden mixing:
  rms(total) = 0.50937E+00    rms(broyden)= 0.50926E+00
  rms(prec ) = 0.54151E+00
  weight for this iteration     100.00

 eigenvalues of (default mixing * dielectric matrix)
  average eigenvalue GAMMA=   0.7653
  2.2157  2.2157  0.4112  0.7471  0.5819  0.5819  0.3462  0.3462  0.5397  0.3457
  0.0868

 Free energy of the ion-electron system (eV)
  ---------------------------------------------------
  alpha Z        PSCENC =       157.24233376
  Ewald energy   TEWEN  =     30449.82602250
  -Hartree energ DENC   =    -40645.26585848
  -exchange      EXHF   =         0.00000000
  -V(xc)+E(xc)   XCENC  =      1022.29005101
  PAW double counting   =     31188.08036840   -31286.79950146
  entropy T*S    EENTRO =        -0.06207341
  eigenvalues    EBANDS =     -3597.12548956
  atomic energy  EATOM  =     12065.27733323
  Solvation  Ediel_sol  =         0.00000000
  ---------------------------------------------------
  free energy    TOTEN  =      -646.53681401 eV

  energy without entropy =     -646.47474060  energy(sigma->0) =     -646.50577731


--------------------------------------------------------------------------------------------------------




--------------------------------------- Iteration      1(  17)  ---------------------------------------


    POTLOK:  cpu time    0.4020: real time    0.4057
    SETDIJ:  cpu time    0.0122: real time    0.0122
    EDDIAG:  cpu time    1.9707: real time    1.9852
  RMM-DIIS:  cpu time    8.3539: real time    8.4161
    ORTHCH:  cpu time    0.3347: real time    0.3360
       DOS:  cpu time    0.0023: real time    0.0026
    CHARGE:  cpu time    0.4495: real time    0.4561
    MIXING:  cpu time    0.0093: real time    0.0094
    --------------------------------------------
      LOOP:  cpu time   11.5345: real time   11.6233

 eigenvalue-minimisations  :  2950
 total energy-change (2. order) :-0.1718634E-01  (-0.4758668E-02)
 number of electron     292.9999980 magnetization      -0.0581131
 augmentation part       12.7368124 magnetization      -0.3320721

 Broyden mixing:
  rms(total) = 0.38251E+00    rms(broyden)= 0.38224E+00
  rms(prec ) = 0.38795E+00
  weight for this iteration     100.00

 eigenvalues of (default mixing * dielectric matrix)
  average eigenvalue GAMMA=   0.8133
  2.2185  2.2185  0.8554  0.8554  0.4407  0.7358  0.5774  0.3456  0.3456  0.3459
  0.4107  0.4107

 Free energy of the ion-electron system (eV)
  ---------------------------------------------------
  alpha Z        PSCENC =       157.24233376
  Ewald energy   TEWEN  =     30449.82602250
  -Hartree energ DENC   =    -40671.60319893
  -exchange      EXHF   =         0.00000000
  -V(xc)+E(xc)   XCENC  =      1022.59696232
  PAW double counting   =     31116.33244687   -31214.95082050
  entropy T*S    EENTRO =        -0.04036481
  eigenvalues    EBANDS =     -3571.23471479
  atomic energy  EATOM  =     12065.27733323
  Solvation  Ediel_sol  =         0.00000000
  ---------------------------------------------------
  free energy    TOTEN  =      -646.55400035 eV

  energy without entropy =     -646.51363554  energy(sigma->0) =     -646.53381795


--------------------------------------------------------------------------------------------------------




--------------------------------------- Iteration      1(  18)  ---------------------------------------


    POTLOK:  cpu time    0.4068: real time    0.4114
    SETDIJ:  cpu time    0.0124: real time    0.0124
    EDDIAG:  cpu time    2.0506: real time    2.0656
  RMM-DIIS:  cpu time    8.5349: real time    8.5946
    ORTHCH:  cpu time    0.2560: real time    0.2571
       DOS:  cpu time    0.0009: real time    0.0009
    CHARGE:  cpu time    0.4882: real time    0.4954
    MIXING:  cpu time    0.0097: real time    0.0098
    --------------------------------------------
      LOOP:  cpu time   11.7595: real time   11.8471

 eigenvalue-minimisations  :  3041
 total energy-change (2. order) :-0.3519364E-01  (-0.3228640E-02)
 number of electron     292.9999980 magnetization      -0.0822525
 augmentation part       12.8450538 magnetization      -0.4264901

 Broyden mixing:
  rms(total) = 0.41827E+00    rms(broyden)= 0.41817E+00
  rms(prec ) = 0.43132E+00
  weight for this iteration     100.00

 eigenvalues of (default mixing * dielectric matrix)
  average eigenvalue GAMMA=   0.8183
  2.2195  2.2195  1.0917  1.0917  0.4478  0.7317  0.5740  0.3460  0.3460  0.4724
  0.4724  0.3431  0.2819

 Free energy of the ion-electron system (eV)
  ---------------------------------------------------
  alpha Z        PSCENC =       157.24233376
  Ewald energy   TEWEN  =     30449.82602250
  -Hartree energ DENC   =    -40681.19044464
  -exchange      EXHF   =         0.00000000
  -V(xc)+E(xc)   XCENC  =      1022.67782710
  PAW double counting   =     31095.48681180   -31194.02612204
  entropy T*S    EENTRO =        -0.03679796
  eigenvalues    EBANDS =     -3561.84615775
  atomic energy  EATOM  =     12065.27733323
  Solvation  Ediel_sol  =         0.00000000
  ---------------------------------------------------
  free energy    TOTEN  =      -646.58919399 eV

  energy without entropy =     -646.55239603  energy(sigma->0) =     -646.57079501


--------------------------------------------------------------------------------------------------------




--------------------------------------- Iteration      1(  19)  ---------------------------------------


    POTLOK:  cpu time    0.3946: real time    0.3984
    SETDIJ:  cpu time    0.0123: real time    0.0125
    EDDIAG:  cpu time    2.0490: real time    2.0632
  RMM-DIIS:  cpu time    8.7891: real time    8.8599
    ORTHCH:  cpu time    0.2196: real time    0.2205
       DOS:  cpu time    0.0010: real time    0.0010
    CHARGE:  cpu time    0.4497: real time    0.4565
    MIXING:  cpu time    0.0105: real time    0.0106
    --------------------------------------------
      LOOP:  cpu time   11.9258: real time   12.0225

 eigenvalue-minimisations  :  3122
 total energy-change (2. order) : 0.9587969E-02  (-0.1491191E-02)
 number of electron     292.9999980 magnetization      -0.0884872
 augmentation part       12.8062844 magnetization      -0.3853790

 Broyden mixing:
  rms(total) = 0.35312E+00    rms(broyden)= 0.35304E+00
  rms(prec ) = 0.36033E+00
  weight for this iteration     100.00

 eigenvalues of (default mixing * dielectric matrix)
  average eigenvalue GAMMA=   0.9200
  2.1927  2.1927  1.7357  1.7357  0.4519  0.7133  0.7133  0.6645  0.6147  0.3459
  0.3459  0.4121  0.4121  0.3495

 Free energy of the ion-electron system (eV)
  ---------------------------------------------------
  alpha Z        PSCENC =       157.24233376
  Ewald energy   TEWEN  =     30449.82602250
  -Hartree energ DENC   =    -40686.60189351
  -exchange      EXHF   =         0.00000000
  -V(xc)+E(xc)   XCENC  =      1022.71643430
  PAW double counting   =     31092.72554090   -31191.21378259
  entropy T*S    EENTRO =        -0.04157862
  eigenvalues    EBANDS =     -3556.51001599
  atomic energy  EATOM  =     12065.27733323
  Solvation  Ediel_sol  =         0.00000000
  ---------------------------------------------------
  free energy    TOTEN  =      -646.57960602 eV

  energy without entropy =     -646.53802740  energy(sigma->0) =     -646.55881671


--------------------------------------------------------------------------------------------------------




--------------------------------------- Iteration      1(  20)  ---------------------------------------


    POTLOK:  cpu time    0.4182: real time    0.4228
    SETDIJ:  cpu time    0.0122: real time    0.0122
    EDDIAG:  cpu time    2.0161: real time    2.0313
  RMM-DIIS:  cpu time    8.8239: real time    8.8844
    ORTHCH:  cpu time    0.2355: real time    0.2551
       DOS:  cpu time    0.0010: real time    0.0010
    CHARGE:  cpu time    0.4789: real time    0.4860
    MIXING:  cpu time    0.0096: real time    0.0097
    --------------------------------------------
      LOOP:  cpu time   11.9955: real time   12.1025

 eigenvalue-minimisations  :  3149
 total energy-change (2. order) :-0.4864242E-02  (-0.3876887E-03)
 number of electron     292.9999980 magnetization      -0.0657110
 augmentation part       12.7968842 magnetization      -0.3120499

 Broyden mixing:
  rms(total) = 0.31155E+00    rms(broyden)= 0.31149E+00
  rms(prec ) = 0.31845E+00
  weight for this iteration     100.00

 eigenvalues of (default mixing * dielectric matrix)
  average eigenvalue GAMMA=   0.9529
  1.6696  2.1798  2.1798  1.5349  1.5349  0.4526  0.7385  0.7385  0.7701  0.3459
  0.3459  0.5897  0.4318  0.4318  0.3499

 Free energy of the ion-electron system (eV)
  ---------------------------------------------------
  alpha Z        PSCENC =       157.24233376
  Ewald energy   TEWEN  =     30449.82602250
  -Hartree energ DENC   =    -40687.07057214
  -exchange      EXHF   =         0.00000000
  -V(xc)+E(xc)   XCENC  =      1022.72189879
  PAW double counting   =     31094.74788363   -31193.25279047
  entropy T*S    EENTRO =        -0.04594682
  eigenvalues    EBANDS =     -3556.03063275
[...]
  Kinetic  4375.58658  4367.18224  4991.20548     0.08376     0.09585    -0.01885
  Fock        0.00000     0.00000     0.00000     0.00000     0.00000     0.00000
  vdW        -1.55306    -1.69099    -0.04073    -0.00238     0.00046     0.01428
  -------------------------------------------------------------------------------------
  Total      -5.88217    -3.23726    -3.52150    -0.10985     0.00173    -0.03461
  in kB      -3.31500    -1.82441    -1.98460    -0.06191     0.00097    -0.01951
  external pressure =       -2.37 kB  Pullay stress =        0.00 kB


 VOLUME and BASIS-vectors are now :
 -----------------------------------------------------------------------------
  energy-cutoff  :      440.00
  volume of cell :     2842.92
      direct lattice vectors                 reciprocal lattice vectors
    14.861552846  0.003181263  0.000000000     0.067279327  0.039206721  0.000000000
    -7.430776423 12.751325011  0.000000000    -0.000016785  0.078413441  0.000000000
     0.000000000  0.000000000 15.000000000     0.000000000  0.000000000  0.066666667

  length of vectors
    14.861553187 14.758479861 15.000000000     0.077869601  0.078413443  0.066666667


 FORCES acting on ions
    electron-ion (+dipol)            ewald-force                    non-local-force                 convergence-correction
 -----------------------------------------------------------------------------------------------
   0.189E+01 -.193E+01 0.811E+01   -.210E+01 0.204E+01 -.814E+01   0.222E+00 -.131E+00 0.306E-01   -.157E-03 0.366E-03 -.354E-04
   -.120E+01 -.466E+00 0.758E+01   0.125E+01 0.617E+00 -.760E+01   -.450E-01 -.135E+00 0.177E-01   0.690E-04 -.156E-03 0.402E-05
   0.365E+00 -.400E+01 0.736E+01   -.391E+00 0.439E+01 -.738E+01   0.184E-01 -.434E+00 0.219E-01   0.788E-05 0.363E-03 -.833E-04
   -.187E+01 0.374E+00 0.747E+01   0.192E+01 -.936E-01 -.748E+01   -.513E-01 -.303E+00 0.129E-01   -.908E-04 0.992E-04 -.589E-04
   0.471E-01 -.155E+01 0.681E+01   0.119E+00 0.181E+01 -.683E+01   -.161E+00 -.305E+00 0.198E-01   0.153E-03 0.338E-03 -.138E-03
   0.785E+00 0.463E+00 0.697E+01   -.798E+00 -.258E+00 -.697E+01   0.212E-01 -.221E+00 0.205E-02   0.766E-04 -.105E-03 -.138E-03
   -.280E+01 -.583E+00 0.761E+01   0.292E+01 0.608E+00 -.763E+01   -.128E+00 -.324E-01 0.206E-01   0.604E-04 0.131E-03 0.206E-04
   0.113E+01 0.488E-01 0.793E+01   -.124E+01 0.216E-01 -.795E+01   0.109E+00 -.543E-01 0.294E-01   -.124E-03 -.286E-03 -.216E-04
   -.196E+01 -.132E+01 0.753E+01   0.200E+01 0.123E+01 -.755E+01   -.453E-01 0.115E+00 0.193E-01   -.125E-03 -.504E-04 -.362E-04
   0.186E+00 0.280E+00 0.734E+01   -.201E+00 -.400E+00 -.737E+01   0.111E-01 0.153E+00 0.266E-01   -.217E-04 -.346E-03 -.877E-04
   0.287E+01 -.149E+01 0.700E+01   -.295E+01 0.146E+01 -.700E+01   0.946E-01 0.440E-01 0.214E-02   0.568E-04 0.114E-03 -.137E-03
   0.540E+00 -.192E+00 0.679E+01   -.491E+00 0.120E+00 -.681E+01   -.367E-01 0.111E+00 0.204E-01   0.991E-04 -.327E-03 -.157E-03
   0.125E+01 0.342E+01 0.712E+01   -.130E+01 -.348E+01 -.713E+01   0.360E-01 0.431E-01 0.762E-02   0.307E-03 -.497E-04 -.736E-04
   0.170E+01 0.437E+01 0.692E+01   -.158E+01 -.448E+01 -.695E+01   -.136E+00 0.102E+00 0.314E-01   0.289E-03 0.165E-03 0.247E-04
   0.293E+01 0.396E+01 0.799E+01   -.288E+01 -.377E+01 -.800E+01   -.558E-01 -.189E+00 0.123E-01   -.289E-04 -.132E-03 0.124E-04
   -.125E+01 0.750E+01 0.931E+01   0.173E+01 -.728E+01 -.941E+01   -.468E+00 -.236E+00 0.977E-01   -.150E-03 -.122E-03 -.911E-04
   -.325E+00 0.540E+01 0.730E+01   0.340E+00 -.500E+01 -.734E+01   -.127E-01 -.413E+00 0.354E-01   -.119E-03 -.105E-03 -.191E-03
   -.132E+01 0.864E+01 0.658E+01   0.133E+01 -.802E+01 -.624E+01   -.795E-02 -.612E+00 -.359E+00   -.265E-03 -.313E-03 -.481E-03
   -.173E+01 0.376E+01 0.824E+01   0.169E+01 -.361E+01 -.826E+01   0.502E-01 -.144E+00 0.198E-01   0.714E-04 -.403E-03 -.993E-04
   0.211E+01 0.827E+01 0.924E+01   -.266E+01 -.810E+01 -.933E+01   0.540E+00 -.180E+00 0.792E-01   0.257E-03 -.562E-04 -.169E-03
   -.161E+01 0.501E+01 0.773E+01   0.162E+01 -.516E+01 -.773E+01   0.809E-02 0.133E+00 0.448E-02   -.295E-03 -.108E-03 -.492E-04
   -.138E+01 0.514E+01 0.803E+01   0.124E+01 -.533E+01 -.806E+01   0.164E+00 0.183E+00 0.301E-01   -.264E-03 -.214E-04 -.321E-04
   -.457E-01 0.312E+01 0.611E+01   0.716E-01 -.330E+01 -.610E+01   -.280E-01 0.170E+00 -.171E-01   0.477E-04 -.175E-03 -.168E-03
   -.333E+00 0.425E+01 0.634E+01   0.419E+00 -.443E+01 -.637E+01   -.801E-01 0.190E+00 0.213E-01   0.768E-04 -.997E-04 -.182E-03
   0.553E+00 0.441E+01 0.576E+01   -.407E+00 -.466E+01 -.574E+01   -.164E+00 0.253E+00 -.247E-01   0.455E-03 0.126E-03 -.107E-03
   0.249E+01 0.734E+01 0.642E+01   -.188E+01 -.771E+01 -.645E+01   -.621E+00 0.368E+00 0.328E-01   0.259E-03 0.107E-03 0.269E-04
   0.397E+01 0.110E+02 0.648E+01   -.373E+01 -.111E+02 -.647E+01   -.241E+00 0.114E+00 -.182E-02   -.121E-03 -.120E-03 0.233E-03
   0.110E+02 0.683E+01 0.347E+01   -.107E+02 -.685E+01 -.354E+01   -.349E+00 0.270E-01 0.701E-01   -.287E-03 -.254E-03 0.422E-03
   0.523E+00 0.182E+02 0.137E+02   -.266E+00 -.174E+02 -.140E+02   -.268E+00 -.796E+00 0.260E+00   -.122E-03 -.450E-03 -.574E-03
   -.577E+01 0.383E+02 0.324E+02   0.117E+02 -.351E+02 -.317E+02   -.599E+01 -.325E+01 -.657E+00   -.521E-03 -.689E-03 -.741E-03
   0.991E-01 0.182E+02 0.111E+02   -.371E+00 -.173E+02 -.113E+02   0.280E+00 -.911E+00 0.223E+00   0.206E-04 -.306E-03 -.437E-03
   0.647E+01 0.353E+02 0.247E+02   -.125E+02 -.318E+02 -.238E+02   0.611E+01 -.346E+01 -.890E+00   0.449E-03 -.798E-03 -.750E-03
   -.295E+01 0.112E+02 0.758E+01   0.263E+01 -.115E+02 -.755E+01   0.317E+00 0.250E+00 -.217E-01   0.110E-04 -.240E-03 -.658E-05
   -.106E+02 0.989E+01 0.673E+01   0.977E+01 -.101E+02 -.685E+01   0.843E+00 0.242E+00 0.125E+00   0.123E-03 -.165E-03 -.328E-05
   -.169E+01 0.732E+01 0.691E+01   0.163E+01 -.786E+01 -.690E+01   0.695E-01 0.542E+00 -.149E-01   -.171E-03 0.131E-03 -.107E-03
   -.336E+01 0.124E+02 0.782E+01   0.330E+01 -.132E+02 -.786E+01   0.854E-01 0.862E+00 0.382E-01   -.596E-04 0.183E-03 -.214E-04
   -.679E+01 0.943E+01 0.690E+01   0.713E+01 -.108E+02 -.693E+01   -.329E+00 0.140E+01 0.237E-01   0.593E-04 0.175E-03 -.630E-04
   -.238E+02 0.133E+02 0.641E+01   0.292E+02 -.164E+02 -.640E+01   -.543E+01 0.308E+01 -.155E-01   0.440E-04 -.186E-03 -.250E-06
   0.195E+01 0.307E+01 0.383E+01   -.162E+01 -.323E+01 -.378E+01   -.325E+00 0.152E+00 -.452E-01   -.466E-04 0.495E-04 0.402E-03
   0.201E+01 -.130E+01 0.382E+01   -.138E+01 0.102E+01 -.375E+01   -.624E+00 0.288E+00 -.594E-01   -.101E-03 -.333E-04 0.415E-03
   0.267E+02 0.112E+02 0.122E+02   -.260E+02 -.117E+02 -.129E+02   -.702E+00 0.485E+00 0.770E+00   -.475E-03 -.244E-03 -.469E-04
   0.268E+02 -.109E+02 0.127E+02   -.261E+02 0.113E+02 -.134E+02   -.723E+00 -.448E+00 0.765E+00   -.468E-03 0.291E-03 -.709E-04
   -.209E+02 0.125E+02 0.122E+02   0.198E+02 -.130E+02 -.127E+02   0.109E+01 0.553E+00 0.579E+00   0.517E-03 -.216E-03 -.357E-03
   -.210E+02 -.105E+02 0.120E+02   0.196E+02 0.106E+02 -.125E+02   0.140E+01 -.110E+00 0.509E+00   0.532E-03 0.220E-03 -.330E-03
   0.155E+01 0.102E+02 0.620E+01   -.200E+01 -.116E+02 -.619E+01   0.444E+00 0.139E+01 -.808E-02   0.288E-03 0.162E-03 0.124E-03
   0.184E+02 0.127E+02 0.500E+01   -.240E+02 -.158E+02 -.482E+01   0.553E+01 0.310E+01 -.178E+00   0.296E-03 -.200E-03 0.171E-03
   -.409E+01 -.512E+01 0.859E+01   0.408E+01 0.543E+01 -.871E+01   0.310E-01 -.301E+00 0.129E+00   -.659E-04 -.281E-03 0.145E-03
   -.183E+01 -.299E+02 0.675E+01   0.175E+01 0.362E+02 -.678E+01   0.100E+00 -.630E+01 0.320E-01   -.240E-03 -.129E-03 0.114E-04
   -.733E+01 -.244E+01 0.590E+01   0.875E+01 0.290E+01 -.591E+01   -.143E+01 -.448E+00 0.140E-01   0.314E-03 -.132E-03 0.105E-03
   -.534E+01 -.731E+01 0.569E+01   0.610E+01 0.777E+01 -.567E+01   -.776E+00 -.467E+00 -.230E-01   0.454E-03 -.126E-03 -.169E-04
   0.101E+02 -.544E+01 0.387E+01   -.974E+01 0.539E+01 -.394E+01   -.411E+00 0.523E-01 0.737E-01   -.235E-03 0.254E-03 0.401E-03
   0.260E+01 -.113E+02 0.671E+01   -.222E+01 0.113E+02 -.670E+01   -.382E+00 -.556E-01 -.534E-02   -.807E-04 0.151E-03 0.230E-03
   -.609E+01 -.375E+02 0.327E+02   0.121E+02 0.341E+02 -.321E+02   -.602E+01 0.333E+01 -.635E+00   -.573E-03 0.726E-03 -.749E-03
   0.463E-01 -.192E+02 0.133E+02   0.217E+00 0.184E+02 -.136E+02   -.278E+00 0.827E+00 0.269E+00   -.139E-03 0.432E-03 -.541E-03
   0.795E+01 -.333E+02 0.242E+02   -.142E+02 0.297E+02 -.233E+02   0.627E+01 0.362E+01 -.848E+00   0.430E-03 0.830E-03 -.694E-03
   0.172E+01 -.186E+02 0.109E+02   -.213E+01 0.176E+02 -.111E+02   0.419E+00 0.978E+00 0.213E+00   0.219E-04 0.293E-03 -.381E-03
   -.681E+00 -.489E+01 0.608E+01   -.964E+00 0.519E+01 -.619E+01   0.164E+01 -.305E+00 0.111E+00   0.827E-04 0.184E-03 0.562E-04
   0.252E+01 -.143E+02 0.781E+01   -.347E+01 0.148E+02 -.777E+01   0.950E+00 -.458E+00 -.387E-01   0.132E-04 0.186E-03 0.492E-04
   0.285E+01 -.132E+02 0.820E+01   -.393E+01 0.142E+02 -.823E+01   0.109E+01 -.967E+00 0.406E-01   -.179E-03 -.454E-04 0.336E-04
   0.809E+00 -.692E+01 0.786E+01   -.816E+00 0.761E+01 -.787E+01   0.183E-01 -.675E+00 0.581E-02   -.240E-03 0.834E-04 -.397E-04
   -.393E+01 -.123E+02 0.641E+01   0.496E+01 0.133E+02 -.644E+01   -.102E+01 -.967E+00 0.248E-01   0.117E-03 0.813E-04 -.799E-04
   -.264E+01 -.511E+01 0.621E+01   0.266E+01 0.581E+01 -.619E+01   -.180E-01 -.705E+00 -.177E-01   0.289E-04 0.161E-03 -.127E-03
   -.185E+01 -.537E+01 0.698E+01   0.229E+01 0.567E+01 -.701E+01   -.457E+00 -.276E+00 0.319E-01   0.308E-03 -.207E-03 0.603E-04
   -.132E+00 -.524E+01 0.718E+01   0.198E+00 0.545E+01 -.718E+01   -.775E-01 -.200E+00 0.616E-02   0.333E-03 0.102E-03 -.533E-04
   -.230E+01 -.800E+01 0.930E+01   0.285E+01 0.781E+01 -.940E+01   -.542E+00 0.199E+00 0.935E-01   -.183E-03 0.763E-04 -.728E-04
   0.188E+01 -.533E+01 0.806E+01   -.180E+01 0.523E+01 -.808E+01   -.867E-01 0.108E+00 0.133E-01   -.731E-04 0.133E-03 0.333E-04
   -.227E+00 -.878E+01 0.605E+01   0.185E+00 0.818E+01 -.570E+01   0.458E-01 0.599E+00 -.363E+00   -.267E-03 0.288E-03 -.415E-03
   0.335E+00 -.694E+01 0.729E+01   -.364E+00 0.661E+01 -.733E+01   0.257E-01 0.356E+00 0.367E-01   -.626E-04 0.947E-04 -.151E-03
   0.590E+01 -.946E+01 0.957E+01   -.680E+01 0.944E+01 -.965E+01   0.892E+00 0.249E-01 0.775E-01   0.212E-03 0.335E-04 -.143E-03
   -.599E+00 -.545E+01 0.848E+01   0.452E+00 0.546E+01 -.850E+01   0.151E+00 -.122E-01 0.976E-02   0.224E-04 0.403E-03 -.103E-03
   -.489E+01 -.120E+01 -.638E+03   0.592E+01 0.110E+01 0.619E+03   -.109E+01 0.108E+00 0.194E+02   -.137E-02 -.234E-04 -.203E-02
 -----------------------------------------------------------------------------------------------
   0.529E+00 -.352E-01 -.203E+02   0.506E-13 -.391E-12 -.227E-12   -.528E+00 0.327E-01 0.203E+02   -.757E-03 -.165E-03 -.866E-02
 
 
 POSITION                                       TOTAL-FORCE (eV/Angst)
 -----------------------------------------------------------------------------------
     -7.42660     12.74330      7.46407         0.004817     -0.023731      0.002412
      0.00365      1.41684      7.46603        -0.004365      0.015372      0.002719
      2.48108      0.02140      7.46287        -0.006409     -0.038856     -0.001586
      2.48065      1.44532      7.47402        -0.007824     -0.021215      0.002015
      4.95090      0.02203      7.46511         0.005042     -0.035685     -0.003292
      4.95303      1.44554      7.47536         0.007388     -0.014557      0.001570
      0.00010     12.75162      7.46607        -0.004309     -0.006846      0.003669
      7.42994      1.42372      7.46466         0.001749      0.015180      0.002642
      2.48045     12.72448      7.47397        -0.004811      0.018550      0.003283
      9.91177      1.39650      7.46291        -0.003744      0.030841     -0.001670
      4.95690     12.72450      7.47521         0.008214      0.012930      0.001894
     12.38613      1.39566      7.46509         0.011476      0.037238     -0.003890
     13.61997      2.11423      7.46632        -0.011321     -0.020566     -0.001700
     -1.24650      3.53315      7.47636        -0.014965     -0.016316      0.003319
      1.24076      2.14322      7.47732        -0.001718     -0.004797     -0.000794
      1.23941      3.56853      7.50276         0.008336     -0.011843     -0.005754
      3.71715      2.16948      7.49043         0.002854     -0.013082     -0.001809
      3.71775      3.59024      7.53525         0.000522      0.010101     -0.015923
      6.19371      2.14810      7.47638         0.002522      0.004155     -0.002254
      6.19591      3.57640      7.50202        -0.011830     -0.010416     -0.003215
      8.67630      2.11611      7.46291         0.009144     -0.013659      0.000172
      8.67897      3.53510      7.47035         0.025566     -0.013531      0.004189
     11.14892      2.10743      7.46338        -0.002087     -0.004217     -0.004780
     11.14931      3.52945      7.46487         0.005762      0.007645     -0.007070
     12.37958      4.24545      7.47295        -0.017730      0.007012     -0.003834
     -2.48845      5.66942      7.47974        -0.011956     -0.011009     -0.000037
     -0.01337      4.24755      7.50241        -0.002796     -0.005810      0.006883
     -0.03585      5.66285      7.53270        -0.001006      0.000141      0.011291
      2.47788      4.30890      7.54643         0.001334     -0.012408     -0.008035
      2.44178      5.72532      7.63155        -0.010569     -0.019734     -0.017668
      4.95743      4.31855      7.55315        -0.004072     -0.002318      0.007067
      4.99395      5.73636      7.64476         0.014672     -0.002080      0.008895
      7.44962      4.25436      7.49587         0.005043      0.004602      0.004068
      7.47303      5.67365      7.52072         0.005718     -0.002392      0.001148
      9.91554      4.24272      7.46759         0.007481      0.004719     -0.001566
      9.92123      5.66196      7.47297         0.020959     -0.006278      0.000723
     11.13933      6.38652      7.47263         0.004030      0.007263     -0.003615
     -3.72521      7.80323      7.47422         0.005831     -0.011916     -0.002226
     -1.26590      6.37604      7.50649        -0.007102     -0.003853      0.012407
     -1.27363      7.79496      7.50646         0.003158      0.004476      0.013101
      1.18730      6.36982      7.58353         0.013833      0.007705      0.004084
      1.18325      7.80188      7.58203         0.009072     -0.009078      0.002833
      6.25304      6.37347      7.57972        -0.010212      0.009496      0.005952
      6.26189      7.80102      7.57968        -0.015607     -0.006534      0.006889
      8.70865      6.38722      7.49495        -0.003417     -0.008965      0.007336
      8.71263      7.80469      7.49714         0.003881      0.007006      0.007911
     -4.93976      8.50734      7.47576         0.012839      0.007491      0.003096
     -4.94617      9.91790      7.46891         0.020324     -0.001975      0.000465
     -2.49840      8.51255      7.48102        -0.017184      0.012895      0.001443
     -2.47887      9.93407      7.47349        -0.012188     -0.012181     -0.001745
     -0.04180      8.50832      7.53140        -0.004547      0.004487      0.011193
     -0.01440      9.92241      7.50172        -0.003648     -0.001320      0.005933
      2.43765      8.44678      7.63013        -0.006080      0.017879     -0.018707
      2.47705      9.86087      7.54746        -0.002435      0.011471     -0.008229
      5.00272      8.43838      7.64418         0.014062     -0.000116      0.010581
      4.95921      9.85361      7.55375        -0.005674      0.003575      0.007577
      7.48387      8.51300      7.52144         0.005098      0.001869      0.001471
      7.44598      9.92596      7.49546         0.007421     -0.004101      0.004908
     -6.17705     10.62505      7.47031         0.017032      0.014803      0.005370
     -6.17857     12.04916      7.46256         0.009287      0.018236     -0.000113
     -3.71651     10.63184      7.46530        -0.004166     -0.006219     -0.004531
     -3.71947     12.05872      7.46333         0.005667      0.006659     -0.004173
     -1.24809     10.63877      7.47620        -0.018655      0.020809      0.003524
     -1.24440     12.05945      7.46624        -0.010294      0.013344     -0.001346
      1.23745     10.60131      7.50278         0.010895      0.016481     -0.006412
      1.23878     12.02648      7.47721        -0.000225      0.004697     -0.000453
      3.71889     10.57981      7.53674         0.003732     -0.007525     -0.015860
      3.71856     11.99997      7.49072        -0.003114      0.015865     -0.001056
      6.19790     10.59870      7.50113        -0.009202      0.010215     -0.003628
      6.19660     12.02618      7.47561         0.001839     -0.001185     -0.002607
      3.69287      7.08647      8.32566        -0.041336      0.001108     -0.024450
 -----------------------------------------------------------------------------------
    total drift:                               -0.000017     -0.002686     -0.000811


--------------------------------------------------------------------------------------------------------



  FREE ENERGIE OF THE ION-ELECTRON SYSTEM (eV)
  ---------------------------------------------------
  free  energy   TOTEN  =      -653.06502791 eV

  energy  without entropy=     -653.01657721  energy(sigma->0) =     -653.04080256
 
 d Force = 0.4641836E-03[ 0.601E-04, 0.868E-03]  d Energy = 0.4653202E-03-0.114E-05
 d Force =-0.8550297E+00[-0.855E+00,-0.855E+00]  d Ewald  =-0.8550297E+00 0.614E-07


--------------------------------------------------------------------------------------------------------


    POTLOK:  cpu time    0.4537: real time    0.4566


--------------------------------------------------------------------------------------------------------


 stress matrix after NEB project (eV)
     -5.88217     -0.10985     -0.03461
     -0.10985     -3.23726      0.00173
     -0.03461      0.00173     -3.52150
  FORCES: max atom, RMS     0.048039    0.018815
  FORCE total and by dimension    0.158536    0.041336
  Stress total and by dimension    7.583356    5.882168
 Conjugate gradient step on ions:
 trial-energy change:   -0.000465  1 .order   -0.000464   -0.000868   -0.000060
  (g-gl).g = 0.899E-03      g.g   = 0.905E-03  gl.gl    = 0.120E-02
 g(Force)  = 0.905E-03   g(Stress)= 0.000E+00 ortho     = 0.322E-05
 gamma     =   0.75223
 trial     =   0.95730
 opt step  =   1.02846  (harmonic =   1.02846) maximal distance =0.00142833
 next E    =  -653.065029   (d E  =  -0.00047)


--------------------------------------------------------------------------------------------------------


  
 reached required accuracy - stopping structural energy minimisation
     LOOP+:  cpu time  120.4117: real time  121.2924
    4ORBIT:  cpu time    0.0000: real time    0.0000

 total amount of memory used by VASP MPI-rank0   111577. kBytes
=======================================================================

   base      :      30000. kBytes
   nonlr-proj:       9915. kBytes
   fftplans  :      10852. kBytes
   grid      :      30996. kBytes
   one-center:        186. kBytes
   wavefun   :      29628. kBytes
 
  
  
 General timing and accounting informations for this job:
 ========================================================
  
                  Total CPU time used (sec):     1674.208
                            User time (sec):     1662.961
                          System time (sec):       11.247
                         Elapsed time (sec):     1694.228
  
                   Maximum memory used (kb):      486916.
                   Average memory used (kb):           0.
  
                          Minor page faults:      2064384
                          Major page faults:            0
                 Voluntary context switches:        12171
