 vasp.5.4.4.18Apr17-6-g9f103f2a35 (build Sep 02 2021 13:24:58) complex          
  
 executed on             LinuxIFC date 2023.01.15  13:02:12
 running on   48 total cores
 distrk:  each k-point on   48 cores,    1 groups
 distr:  one band on NCORES_PER_BAND=  12 cores,    4 groups


--------------------------------------------------------------------------------------------------------


 INCAR:
 POTCAR:    PAW_PBE C 08Apr2002                   
 POTCAR:    PAW_PBE N 08Apr2002                   
 POTCAR:    PAW_PBE C 08Apr2002                   
 POTCAR:    PAW_PBE Cr_pv 02Aug2007               
 POTCAR:    PAW_PBE C 08Apr2002                   
   SHA256 =  253f7b50bb8d59471dbedb8285d89021f4a42ed1a2c5d38a03a736e69125dd95 C/
   COPYR  = (c) Copyright 08Apr2002 Georg Kresse                                
   COPYR  = This file is part of the software VASP. Any use, copying, and all ot
   COPYR  = If you do not have a valid VASP license, you may not use, copy or di
   VRHFIN =C: s2p2                                                              
   LEXCH  = PE                                                                  
   EATOM  =   147.1560 eV,   10.8157 Ry                                         
                                                                                
   TITEL  = PAW_PBE C 08Apr2002                                                 
   LULTRA =        F    use ultrasoft PP ?                                      
   IUNSCR =        1    unscreen: 0-lin 1-nonlin 2-no                           
   RPACOR =    1.200    partial core radius                                     
   POMASS =   12.011; ZVAL   =    4.000    mass and valenz                      
   RCORE  =    1.500    outmost cutoff radius                                   
   RWIGS  =    1.630; RWIGS  =    0.863    wigner-seitz radius (au A)           
   ENMAX  =  400.000; ENMIN  =  300.000 eV                                      
   ICORE  =        2    local potential                                         
   LCOR   =        T    correct aug charges                                     
   LPAW   =        T    paw PP                                                  
   EAUG   =  644.873                                                            
   DEXC   =    0.000                                                            
   RMAX   =    1.529    core radius for proj-oper                               
   RAUG   =    1.300    factor for augmentation sphere                          
   RDEP   =    1.501    radius for radial grids                                 
   RDEPT  =    1.300    core radius for aug-charge                              
                                                                                
   Atomic configuration                                                         
    4 entries                                                                   
     n  l   j            E        occ.                                          
     1  0  0.50      -273.3789   2.0000                                         
     2  0  0.50       -13.7508   2.0000                                         
     2  1  0.50        -5.2854   2.0000                                         
     3  2  1.50        -5.4423   0.0000                                         
   Description                                                                  
     l       E           TYP  RCUT    TYP  RCUT                                 
     0    -13.7508458     23  1.200                                             
     0     -8.2022199     23  1.200                                             
     1     -5.2854383     23  1.500                                             
     1     34.0145650     23  1.500                                             
     2     -5.4423304      7  1.500                                             
  local pseudopotential read in
  partial core-charges read in
  partial kinetic energy density read in
  atomic valenz-charges read in
  non local Contribution for L=           0  read in
    real space projection operators read in
  non local Contribution for L=           0  read in
    real space projection operators read in
  non local Contribution for L=           1  read in
    real space projection operators read in
  non local Contribution for L=           1  read in
    real space projection operators read in
    PAW grid and wavefunctions read in
 
   number of l-projection  operators is LMAX  =           4
   number of lm-projection operators is LMMAX =           8
 
 POTCAR:    PAW_PBE N 08Apr2002                   
   SHA256 =  e053789ff3a61a86a1b75d8a110fcc91f86041011e7b0817c7c99e4e8a6349d7 N/
   COPYR  = (c) Copyright 08Apr2002 Georg Kresse                                
   COPYR  = This file is part of the software VASP. Any use, copying, and all ot
   COPYR  = If you do not have a valid VASP license, you may not use, copy or di
   VRHFIN =N: s2p3                                                              
   LEXCH  = PE                                                                  
   EATOM  =   264.5486 eV,   19.4438 Ry                                         
                                                                                
   TITEL  = PAW_PBE N 08Apr2002                                                 
   LULTRA =        F    use ultrasoft PP ?                                      
   IUNSCR =        1    unscreen: 0-lin 1-nonlin 2-no                           
   RPACOR =    1.200    partial core radius                                     
   POMASS =   14.001; ZVAL   =    5.000    mass and valenz                      
   RCORE  =    1.500    outmost cutoff radius                                   
   RWIGS  =    1.400; RWIGS  =    0.741    wigner-seitz radius (au A)           
   ENMAX  =  400.000; ENMIN  =  300.000 eV                                      
   ICORE  =        2    local potential                                         
   LCOR   =        T    correct aug charges                                     
   LPAW   =        T    paw PP                                                  
   EAUG   =  627.112                                                            
   DEXC   =    0.000                                                            
   RMAX   =    1.529    core radius for proj-oper                               
   RAUG   =    1.300    factor for augmentation sphere                          
   RDEP   =    1.514    radius for radial grids                                 
   RDEPT  =    1.338    core radius for aug-charge                              
                                                                                
   Atomic configuration                                                         
    4 entries                                                                   
     n  l   j            E        occ.                                          
     1  0  0.50      -384.7179   2.0000                                         
     2  0  0.50       -18.5828   2.0000                                         
     2  1  0.50        -7.0898   3.0000                                         
     3  2  1.50        -6.8029   0.0000                                         
   Description                                                                  
     l       E           TYP  RCUT    TYP  RCUT                                 
     0    -18.5828119     23  1.200                                             
     0    -13.5018863     23  1.200                                             
     1     -7.0897853     23  1.500                                             
     1      9.5240782     23  1.500                                             
     2     -6.8029130      7  1.500                                             
  local pseudopotential read in
  partial core-charges read in
  partial kinetic energy density read in
  atomic valenz-charges read in
  non local Contribution for L=           0  read in
    real space projection operators read in
  non local Contribution for L=           0  read in
    real space projection operators read in
  non local Contribution for L=           1  read in
    real space projection operators read in
  non local Contribution for L=           1  read in
    real space projection operators read in
    PAW grid and wavefunctions read in
 
   number of l-projection  operators is LMAX  =           4
   number of lm-projection operators is LMMAX =           8
 
 POTCAR:    PAW_PBE C 08Apr2002                   
   SHA256 =  253f7b50bb8d59471dbedb8285d89021f4a42ed1a2c5d38a03a736e69125dd95 C/
   COPYR  = (c) Copyright 08Apr2002 Georg Kresse                                
   COPYR  = This file is part of the software VASP. Any use, copying, and all ot
   COPYR  = If you do not have a valid VASP license, you may not use, copy or di
   VRHFIN =C: s2p2                                                              
   LEXCH  = PE                                                                  
   EATOM  =   147.1560 eV,   10.8157 Ry                                         
                                                                                
   TITEL  = PAW_PBE C 08Apr2002                                                 
   LULTRA =        F    use ultrasoft PP ?                                      
   IUNSCR =        1    unscreen: 0-lin 1-nonlin 2-no                           
   RPACOR =    1.200    partial core radius                                     
   POMASS =   12.011; ZVAL   =    4.000    mass and valenz                      
   RCORE  =    1.500    outmost cutoff radius                                   
   RWIGS  =    1.630; RWIGS  =    0.863    wigner-seitz radius (au A)           
   ENMAX  =  400.000; ENMIN  =  300.000 eV                                      
   ICORE  =        2    local potential                                         
   LCOR   =        T    correct aug charges                                     
   LPAW   =        T    paw PP                                                  
   EAUG   =  644.873                                                            
   DEXC   =    0.000                                                            
   RMAX   =    1.529    core radius for proj-oper                               
   RAUG   =    1.300    factor for augmentation sphere                          
   RDEP   =    1.501    radius for radial grids                                 
   RDEPT  =    1.300    core radius for aug-charge                              
                                                                                
   Atomic configuration                                                         
    4 entries                                                                   
     n  l   j            E        occ.                                          
     1  0  0.50      -273.3789   2.0000                                         
     2  0  0.50       -13.7508   2.0000                                         
     2  1  0.50        -5.2854   2.0000                                         
     3  2  1.50        -5.4423   0.0000                                         
   Description                                                                  
     l       E           TYP  RCUT    TYP  RCUT                                 
     0    -13.7508458     23  1.200                                             
     0     -8.2022199     23  1.200                                             
     1     -5.2854383     23  1.500                                             
     1     34.0145650     23  1.500                                             
     2     -5.4423304      7  1.500                                             
  local pseudopotential read in
  partial core-charges read in
  partial kinetic energy density read in
  atomic valenz-charges read in
  non local Contribution for L=           0  read in
    real space projection operators read in
  non local Contribution for L=           0  read in
    real space projection operators read in
  non local Contribution for L=           1  read in
    real space projection operators read in
  non local Contribution for L=           1  read in
    real space projection operators read in
    PAW grid and wavefunctions read in
 
   number of l-projection  operators is LMAX  =           4
   number of lm-projection operators is LMMAX =           8
 
 POTCAR:    PAW_PBE Cr_pv 02Aug2007               
   SHA256 =  c9a7df34d3cdbacf1090e328ef39c0b420964e11c23f63548d1ac9dd218cdba0 Cr
   COPYR  = (c) Copyright 02Aug2007 Georg Kresse                                
   COPYR  = This file is part of the software VASP. Any use, copying, and all ot
   COPYR  = If you do not have a valid VASP license, you may not use, copy or di
   VRHFIN =Cr : p6d5s1                                                          
   LEXCH  = PE                                                                  
   EATOM  =  1647.9177 eV,  121.1185 Ry                                         
                                                                                
   TITEL  = PAW_PBE Cr_pv 02Aug2007                                             
   LULTRA =        F    use ultrasoft PP ?                                      
   IUNSCR =        1    unscreen: 0-lin 1-nonlin 2-no                           
   RPACOR =    2.080    partial core radius                                     
   POMASS =   51.996; ZVAL   =   12.000    mass and valenz                      
   RCORE  =    2.300    outmost cutoff radius                                   
   RWIGS  =    2.500; RWIGS  =    1.323    wigner-seitz radius (au A)           
   ENMAX  =  265.681; ENMIN  =  199.261 eV                                      
   ICORE  =        3    local potential                                         
   LCOR   =        T    correct aug charges                                     
   LPAW   =        T    paw PP                                                  
   EAUG   =  519.424                                                            
   DEXC   =    0.000                                                            
   RMAX   =    2.356    core radius for proj-oper                               
   RAUG   =    1.300    factor for augmentation sphere                          
   RDEP   =    2.447    radius for radial grids                                 
   RDEPT  =    1.882    core radius for aug-charge                              
                                                                                
   Atomic configuration                                                         
    8 entries                                                                   
     n  l   j            E        occ.                                          
     1  0  0.50     -5880.4963   2.0000                                         
     2  0  0.50      -667.0865   2.0000                                         
     2  1  1.50      -560.6250   6.0000                                         
     3  0  0.50       -73.9860   2.0000                                         
     3  1  1.50       -45.4378   6.0000                                         
     3  2  2.50        -2.9137   5.0000                                         
     4  0  0.50        -4.0071   1.0000                                         
     4  3  2.50        -1.3606   0.0000                                         
   Description                                                                  
     l       E           TYP  RCUT    TYP  RCUT                                 
     1    -45.4377911     23  2.000                                             
     1      1.3605826     23  2.000                                             
     2     -2.9136672     23  2.300                                             
     2     -4.2742498     23  2.300                                             
     0     -4.0071320     23  2.300                                             
     0      9.4498803     23  2.300                                             
     3      2.7211652     23  2.300                                             
  local pseudopotential read in
  partial core-charges read in
  partial kinetic energy density read in
  atomic valenz-charges read in
  non local Contribution for L=           1  read in
    real space projection operators read in
  non local Contribution for L=           1  read in
    real space projection operators read in
  non local Contribution for L=           2  read in
    real space projection operators read in
  non local Contribution for L=           2  read in
    real space projection operators read in
  non local Contribution for L=           0  read in
    real space projection operators read in
  non local Contribution for L=           0  read in
    real space projection operators read in
    PAW grid and wavefunctions read in
 
   number of l-projection  operators is LMAX  =           6
   number of lm-projection operators is LMMAX =          18
 
 Optimization of the real space projectors (new method)

 maximal supplied QI-value         = 25.13
 optimisation between [QCUT,QGAM] = [ 11.81, 23.88] = [ 39.08,159.64] Ry 
 Optimized for a Real-space Cutoff    1.18 Angstroem

   l    n(q)    QCUT    max X(q) W(low)/X(q) W(high)/X(q)  e(spline) 
   0      8    11.813   115.676    0.10E-03    0.16E-03    0.35E-06
   0      8    11.813    87.132    0.10E-03    0.16E-03    0.35E-06
   1      8    11.813     4.429    0.16E-03    0.13E-04    0.22E-06
   1      8    11.813     2.733    0.13E-03    0.10E-04    0.18E-06
 Optimization of the real space projectors (new method)

 maximal supplied QI-value         = 25.13
 optimisation between [QCUT,QGAM] = [ 11.81, 23.88] = [ 39.08,159.64] Ry 
 Optimized for a Real-space Cutoff    1.41 Angstroem

   l    n(q)    QCUT    max X(q) W(low)/X(q) W(high)/X(q)  e(spline) 
   0     10    11.813    79.467    0.48E-04    0.30E-04    0.67E-06
   0     10    11.813    66.151    0.47E-04    0.30E-04    0.67E-06
   1     10    11.813    20.169    0.11E-03    0.17E-03    0.11E-05
   1     10    11.813    14.454    0.11E-03    0.17E-03    0.11E-05
 Optimization of the real space projectors (new method)

 maximal supplied QI-value         = 25.13
 optimisation between [QCUT,QGAM] = [ 11.81, 23.88] = [ 39.08,159.64] Ry 
 Optimized for a Real-space Cutoff    1.18 Angstroem

   l    n(q)    QCUT    max X(q) W(low)/X(q) W(high)/X(q)  e(spline) 
   0      8    11.813   115.676    0.10E-03    0.16E-03    0.35E-06
   0      8    11.813    87.132    0.10E-03    0.16E-03    0.35E-06
   1      8    11.813     4.429    0.16E-03    0.13E-04    0.22E-06
   1      8    11.813     2.733    0.13E-03    0.10E-04    0.18E-06
 Optimization of the real space projectors (new method)

 maximal supplied QI-value         = 16.25
 optimisation between [QCUT,QGAM] = [ 11.86, 23.89] = [ 39.41,159.82] Ry 
 Optimized for a Real-space Cutoff    1.33 Angstroem

   l    n(q)    QCUT    max X(q) W(low)/X(q) W(high)/X(q)  e(spline) 
   1      9    11.864     3.262    0.48E-04    0.16E-03    0.14E-06
   1      9    11.864     5.741    0.74E-04    0.40E-03    0.35E-06
   2      9    11.864    60.438    0.17E-03    0.21E-03    0.26E-06
   2      9    11.864    55.380    0.17E-03    0.21E-03    0.27E-06
   0      9    11.864    80.273    0.40E-04    0.47E-04    0.12E-06
   0      9    11.864    36.654    0.35E-04    0.41E-04    0.11E-06
  PAW_PBE C 08Apr2002                   :
 energy of atom  1       EATOM= -147.1560
 kinetic energy error for atom=    0.0066 (will be added to EATOM!!)
  PAW_PBE N 08Apr2002                   :
 energy of atom  2       EATOM= -264.5486
 kinetic energy error for atom=    0.0116 (will be added to EATOM!!)
  PAW_PBE C 08Apr2002                   :
 energy of atom  3       EATOM= -147.1560
 kinetic energy error for atom=    0.0066 (will be added to EATOM!!)
  PAW_PBE Cr_pv 02Aug2007               :
 energy of atom  4       EATOM=-1647.9177
 kinetic energy error for atom=    0.0054 (will be added to EATOM!!)
 
 
 POSCAR: POSCAR-clean                            
  positions in cartesian coordinates
  No initial velocities read in
 exchange correlation table for  LEXCH =        8
   RHO(1)=    0.500       N(1)  =     2000
   RHO(2)=  100.500       N(2)  =     4000
 


--------------------------------------------------------------------------------------------------------


 ion  position               nearest neighbor table
   1  0.000  1.000  0.498-   2 1.42  60 1.42  70 1.43
   2  0.056  0.111  0.498-   1 1.42  13 1.42  15 1.43
   3  0.168  0.002  0.498-   4 1.42  62 1.43  60 1.43
   4  0.224  0.113  0.498-   3 1.42  15 1.42  17 1.44
   5  0.334  0.002  0.498-   6 1.42  62 1.43  64 1.43
   6  0.390  0.113  0.498-   5 1.42  19 1.42  17 1.44
   7  0.500  1.000  0.498-   8 1.42  64 1.42  66 1.43
   8  0.556  0.111  0.498-   7 1.42  21 1.42  19 1.43
   9  0.666  0.998  0.498-  10 1.42  66 1.42  68 1.44
  10  0.722  0.109  0.498-   9 1.42  23 1.43  21 1.43
  11  0.832  0.998  0.498-  12 1.42  70 1.42  68 1.44
  12  0.888  0.109  0.498-  11 1.42  23 1.43  13 1.43
  13  0.999  0.165  0.498-  14 1.42   2 1.42  12 1.43
  14  0.054  0.277  0.499-  13 1.42  25 1.42  27 1.43
  15  0.167  0.168  0.498-  16 1.42   4 1.42   2 1.43
  16  0.223  0.280  0.500-  15 1.42  27 1.43  29 1.44
  17  0.335  0.170  0.499-  18 1.42   4 1.44   6 1.44
  18  0.391  0.281  0.503-  17 1.42  31 1.44  29 1.44
  19  0.501  0.168  0.498-  20 1.42   6 1.42   8 1.43
  20  0.557  0.280  0.500-  19 1.42  33 1.43  31 1.44
  21  0.667  0.165  0.498-  22 1.42   8 1.42  10 1.43
  22  0.723  0.277  0.498-  21 1.42  35 1.42  33 1.43
  23  0.833  0.165  0.498-  24 1.42  10 1.43  12 1.43
  24  0.888  0.276  0.498-  23 1.42  25 1.42  35 1.43
  25  0.999  0.332  0.498-  14 1.42  26 1.42  24 1.42
  26  0.054  0.444  0.499-  39 1.42  37 1.42  25 1.42
  27  0.165  0.333  0.500-  28 1.42  16 1.43  14 1.43
  28  0.219  0.444  0.502-  41 1.41  27 1.42  39 1.42
  29  0.335  0.338  0.503-  30 1.41  18 1.44  16 1.44
  30  0.387  0.448  0.510-  41 1.41  29 1.41  71 2.00
  31  0.503  0.338  0.504-  32 1.41  18 1.44  20 1.44
  32  0.562  0.448  0.510-  43 1.41  31 1.41  71 2.00
  33  0.668  0.333  0.500-  34 1.42  20 1.43  22 1.43
  34  0.725  0.444  0.501-  43 1.41  33 1.42  45 1.42
  35  0.833  0.332  0.498-  22 1.42  36 1.42  24 1.43
  36  0.890  0.444  0.498-  45 1.42  37 1.42  35 1.42
  37  0.000  0.500  0.498-  36 1.42  26 1.42  38 1.42
  38  0.056  0.611  0.498-  47 1.42  49 1.42  37 1.42
  39  0.165  0.500  0.500-  26 1.42  28 1.42  40 1.42
  40  0.220  0.611  0.500-  49 1.42  51 1.42  39 1.42
  41  0.329  0.499  0.505-  30 1.41  28 1.41  42 1.44
  42  0.385  0.612  0.505-  53 1.41  51 1.41  41 1.44
  43  0.671  0.499  0.505-  32 1.41  34 1.41  44 1.44
  44  0.727  0.612  0.505-  55 1.41  57 1.41  43 1.44
  45  0.836  0.500  0.499-  36 1.42  34 1.42  46 1.42
  46  0.891  0.611  0.499-  47 1.42  57 1.42  45 1.42
  47  0.001  0.667  0.498-  46 1.42  38 1.42  48 1.42
  48  0.057  0.779  0.498-  59 1.42  47 1.42  61 1.43
  49  0.166  0.667  0.499-  40 1.42  38 1.42  50 1.42
  50  0.222  0.779  0.498-  63 1.42  49 1.42  61 1.42
  51  0.331  0.667  0.502-  42 1.41  52 1.42  40 1.42
  52  0.388  0.778  0.500-  51 1.42  65 1.43  63 1.43
  53  0.494  0.663  0.510-  42 1.41  54 1.41  71 2.00
  54  0.553  0.773  0.503-  53 1.41  67 1.44  65 1.44
  55  0.669  0.663  0.510-  44 1.41  56 1.41  71 2.00
  56  0.721  0.773  0.504-  55 1.41  67 1.44  69 1.44
  57  0.837  0.667  0.501-  44 1.41  58 1.42  46 1.42
  58  0.891  0.778  0.500-  57 1.42  69 1.42  59 1.43
  59  0.002  0.835  0.498-  60 1.42  48 1.42  58 1.43
  60  0.057  0.946  0.498-  59 1.42   1 1.42   3 1.43
  61  0.168  0.835  0.498-  62 1.42  50 1.42  48 1.43
  62  0.223  0.946  0.498-  61 1.42   3 1.43   5 1.43
  63  0.333  0.835  0.499-  64 1.42  50 1.42  52 1.43
  64  0.389  0.946  0.498-  63 1.42   7 1.42   5 1.43
  65  0.499  0.832  0.500-  66 1.42  52 1.43  54 1.44
  66  0.555  0.943  0.498-  65 1.42   9 1.42   7 1.43
  67  0.665  0.830  0.503-  68 1.42  56 1.44  54 1.44
  68  0.721  0.941  0.499-  67 1.42   9 1.44  11 1.44
  69  0.833  0.832  0.500-  70 1.42  58 1.42  56 1.44
  70  0.889  0.943  0.498-  69 1.42  11 1.42   1 1.43
  71  0.528  0.556  0.554-  55 2.00  32 2.00  53 2.00  30 2.00
 

IMPORTANT INFORMATION: All symmetrisations will be switched off!
NOSYMM: (Re-)initialisation of all symmetry stuff for point group C_1.

 
 
 KPOINTS: K-Points                                

Automatic generation of k-mesh.
Space group operators:
 irot       det(A)        alpha          n_x          n_y          n_z        tau_x        tau_y        tau_z
    1     1.000000     0.000000     1.000000     0.000000     0.000000     0.000000     0.000000     0.000000
 
 Subroutine IBZKPT returns following result:
 ===========================================
 
 Found      4 irreducible k-points:
 
 Following reciprocal coordinates:
            Coordinates               Weight
  0.000000  0.000000  0.000000      1.000000
  0.500000  0.000000  0.000000      1.000000
 -0.000000  0.500000  0.000000      1.000000
  0.500000  0.500000  0.000000      1.000000
 
 Following cartesian coordinates:
            Coordinates               Weight
  0.000000  0.000000  0.000000      1.000000
  0.033606  0.019589  0.000000      1.000000
 -0.000000  0.039178  0.000000      1.000000
  0.033606  0.058767  0.000000      1.000000
 


--------------------------------------------------------------------------------------------------------




 Dimension of arrays:
   k-points           NKPTS =      4   k-points in BZ     NKDIM =      4   number of bands    NBANDS=    184
   number of dos      NEDOS =    301   number of ions     NIONS =     71
   non local maximal  LDIM  =      6   non local SUM 2l+1 LMDIM =     18
   total plane-waves  NPLWV = ******
   max r-space proj   IRMAX =   7110   max aug-charges    IRDMAX=  21308
   dimension x,y,z NGX =   120 NGY =  120 NGZ =  120
   dimension x,y,z NGXF=   240 NGYF=  240 NGZF=  240
   support grid    NGXF=   240 NGYF=  240 NGZF=  240
   ions per type =              59   1  10   1
   NGX,Y,Z   is equivalent  to a cutoff of  13.41, 13.50, 13.30 a.u.
   NGXF,Y,Z  is equivalent  to a cutoff of  26.82, 27.01, 26.60 a.u.

 SYSTEM =  unknown system                          
 POSCAR =  POSCAR-clean                            

 Startparameter for this run:
   NWRITE =      2    write-flag & timer
   PREC   = accura    normal or accurate (medium, high low for compatibility)
   ISTART =      0    job   : 0-new  1-cont  2-samecut
   ICHARG =      2    charge: 1-file 2-atom 10-const
   ISPIN  =      2    spin polarized calculation?
   LNONCOLLINEAR =      F non collinear calculations
   LSORBIT =      F    spin-orbit coupling
   INIWAV =      1    electr: 0-lowe 1-rand  2-diag
   LASPH  =      F    aspherical Exc in radial PAW
   METAGGA=      F    non-selfconsistent MetaGGA calc.

 Electronic Relaxation 1
   ENCUT  =  550.0 eV  40.42 Ry    6.36 a.u.  28.45 28.25 28.68*2*pi/ulx,y,z
   ENINI  =  550.0     initial cutoff
   ENAUG  =  644.9 eV  augmentation charge cutoff
   NELM   =     50;   NELMIN=  2; NELMDL= -5     # of ELM steps 
   EDIFF  = 0.1E-04   stopping-criterion for ELM
   LREAL  =      T    real-space projection
   NLSPLINE    = F    spline interpolate recip. space projectors
   LCOMPAT=      F    compatible to vasp.4.4
   GGA_COMPAT  = T    GGA compatible to vasp.4.4-vasp.4.6
   LMAXPAW     = -100 max onsite density
   LMAXMIX     =    2 max onsite mixed and CHGCAR
   VOSKOWN=      0    Vosko Wilk Nusair interpolation
   ROPT   =   -0.00025  -0.00025  -0.00025  -0.00025
 Ionic relaxation
   EDIFFG = -.5E-01   stopping-criterion for IOM
   NSW    =    400    number of steps for IOM
   NBLOCK =      1;   KBLOCK =    400    inner block; outer block 
   IBRION =      2    ionic relax: 0-MD 1-quasi-New 2-CG
   NFREE  =      1    steps in history (QN), initial steepest desc. (CG)
   ISIF   =      3    stress and relaxation
   IWAVPR =     11    prediction:  0-non 1-charg 2-wave 3-comb
   ISYM   =      0    0-nonsym 1-usesym 2-fastsym
   LCORR  =      T    Harris-Foulkes like correction to forces

   POTIM  = 0.3000    time-step for ionic-motion
   TEIN   =    0.0    initial temperature
   TEBEG  =    0.0;   TEEND  =   0.0 temperature during run
   SMASS  =  -3.00    Nose mass-parameter (am)
   estimated Nose-frequenzy (Omega)   =  0.10E-29 period in steps =****** mass=  -0.506E-26a.u.
   SCALEE = 1.0000    scale energy and forces
   NPACO  =    256;   APACO  = 16.0  distance and # of slots for P.C.
   PSTRESS=    0.0 pullay stress

  Mass of Ions in am
   POMASS =  12.01 14.00 12.01 52.00
  Ionic Valenz
   ZVAL   =   4.00  5.00  4.00 12.00
  Atomic Wigner-Seitz radii
   RWIGS  =  -1.00 -1.00 -1.00 -1.00
  virtual crystal weights 
   VCA    =   1.00  1.00  1.00  1.00
   NELECT =     293.0000    total number of electrons
   NUPDOWN=      -1.0000    fix difference up-down

 DOS related values:
   EMIN   =  10.00;   EMAX   =-10.00  energy-range for DOS
   EFERMI =   0.00
   ISMEAR =     0;   SIGMA  =   0.10  broadening in eV -4-tet -1-fermi 0-gaus

 Electronic relaxation 2 (details)
   IALGO  =     68    algorithm
   LDIAG  =      T    sub-space diagonalisation (order eigenvalues)
   LSUBROT=      F    optimize rotation matrix (better conditioning)
   TURBO    =      0    0=normal 1=particle mesh
   IRESTART =      0    0=no restart 2=restart with 2 vectors
   NREBOOT  =      0    no. of reboots
   NMIN     =      0    reboot dimension
   EREF     =   0.00    reference energy to select bands
   IMIX   =      4    mixing-type and parameters
     AMIX     =   0.40;   BMIX     =  1.00
     AMIX_MAG =   1.60;   BMIX_MAG =  1.00
     AMIN     =   0.10
     WC   =   100.;   INIMIX=   1;  MIXPRE=   1;  MAXMIX= -45

 Intra band minimization:
   WEIMIN = 0.0010     energy-eigenvalue tresh-hold
   EBREAK =  0.14E-07  absolut break condition
   DEPER  =   0.30     relativ break condition  

   TIME   =   0.40     timestep for ELM

  volume/ion in A,a.u.               =      40.12       270.71
  Fermi-wavevector in a.u.,A,eV,Ry     =   0.767079  1.449569  8.005805  0.588410
  Thomas-Fermi vector in A             =   1.867557
 
 Write flags
   LWAVE        =      F    write WAVECAR
   LDOWNSAMPLE  =      F    k-point downsampling of WAVECAR
   LCHARG       =      F    write CHGCAR
   LVTOT        =      F    write LOCPOT, total local potential
   LVHAR        =      F    write LOCPOT, Hartree potential only
   LELF         =      F    write electronic localiz. function (ELF)
   LORBIT       =      0    0 simple, 1 ext, 2 COOP (PROOUT), +10 PAW based schemes


 Dipole corrections
   LMONO  =      F    monopole corrections only (constant potential shift)
   LDIPOL =      F    correct potential (dipole corrections)
   IDIPOL =      0    1-x, 2-y, 3-z, 4-all directions 
   EPSILON=  1.0000000 bulk dielectric constant

 Exchange correlation treatment:
   GGA     =    --    GGA type
   LEXCH   =     8    internal setting for exchange type
   VOSKOWN=      0    Vosko Wilk Nusair interpolation
   LHFCALC =     F    Hartree Fock is set to
   LHFONE  =     F    Hartree Fock one center treatment
   AEXX    =    0.0000 exact exchange contribution

 Linear response parameters
   LEPSILON=     F    determine dielectric tensor
   LRPA    =     F    only Hartree local field effects (RPA)
   LNABLA  =     F    use nabla operator in PAW spheres
   LVEL    =     F    velocity operator in full k-point grid
   LINTERFAST=   F  fast interpolation
   KINTER  =     0    interpolate to denser k-point grid
   CSHIFT  =0.1000    complex shift for real part using Kramers Kronig
   OMEGAMAX=  -1.0    maximum frequency
   DEG_THRESHOLD= 0.2000000E-02 threshold for treating states as degnerate
   RTIME   =   -0.100 relaxation time in fs
  (WPLASMAI=    0.000 imaginary part of plasma frequency in eV, 0.658/RTIME)
   DFIELD  = 0.0000000 0.0000000 0.0000000 field for delta impulse in time
 
 Orbital magnetization related:
   ORBITALMAG=     F  switch on orbital magnetization
   LCHIMAG   =     F  perturbation theory with respect to B field
   DQ        =  0.001000  dq finite difference perturbation B field
   LLRAUG    =     F  two centre corrections for induced B field



--------------------------------------------------------------------------------------------------------


 conjugate gradient relaxation of ions
 charge density and potential will be updated during run
 spin polarized calculation
 RMM-DIIS sequential band-by-band and
  variant of blocked Davidson during initial phase
 perform sub-space diagonalisation
    before iterative eigenvector-optimisation
 modified Broyden-mixing scheme, WC =      100.0
 initial mixing is a Kerker type mixing with AMIX =  0.4000 and BMIX =      1.0000
 Hartree-type preconditioning will be used
 using additional bands           37
 real space projection scheme for non local part
 use partial core corrections
 calculate Harris-corrections to forces 
   (improved forces if not selfconsistent)
 use gradient corrections 
 use of overlap-Matrix (Vanderbilt PP)
 Gauss-broadening in eV      SIGMA  =   0.10


--------------------------------------------------------------------------------------------------------


  energy-cutoff  :      550.00
  volume of cell :     2848.21
      direct lattice vectors                 reciprocal lattice vectors
    14.878307727  0.000105424  0.000000000     0.067211667  0.039178051  0.000000000
    -7.439153864 12.762195204  0.000000000    -0.000000555  0.078356102  0.000000000
     0.000000000  0.000000000 15.000000000     0.000000000  0.000000000  0.066666667

  length of vectors
    14.878307728 14.772089786 15.000000000     0.077796709  0.078356102  0.066666667


 
 k-points in units of 2pi/SCALE and weight: K-Points                                
   0.00000000  0.00000000  0.00000000       0.250
   0.03360583  0.01958903  0.00000000       0.250
  -0.00000028  0.03917805  0.00000000       0.250
   0.03360556  0.05876708  0.00000000       0.250
 
 k-points in reciprocal lattice and weights: K-Points                                
   0.00000000  0.00000000  0.00000000       0.250
   0.50000000  0.00000000  0.00000000       0.250
  -0.00000000  0.50000000  0.00000000       0.250
   0.50000000  0.50000000  0.00000000       0.250
 
 position of ions in fractional coordinates (direct lattice) 
   0.00014703  0.99993181  0.49766807
   0.05571316  0.11129367  0.49774774
   0.16803225  0.00210520  0.49753985
   0.22355821  0.11343998  0.49825115
   0.33432830  0.00207694  0.49777234
   0.39014706  0.11341551  0.49841838
   0.50002407  0.99989044  0.49775648
   0.55582710  0.11125266  0.49767590
   0.66571506  0.99774295  0.49825147
   0.72152612  0.10907882  0.49753824
   0.83231512  0.99776674  0.49841003
   0.88783929  0.10910686  0.49776801
   0.99908442  0.16549374  0.49784405
   0.05430809  0.27667161  0.49853746
   0.16734775  0.16806595  0.49834347
   0.22284185  0.27957445  0.49997583
   0.33528932  0.17029644  0.49941211
   0.39084341  0.28141813  0.50254970
   0.50097822  0.16802960  0.49842000
   0.55697129  0.27954076  0.49998817
   0.66664919  0.16545038  0.49752014
   0.72257294  0.27663324  0.49802908
   0.83255361  0.16485921  0.49764969
   0.88821716  0.27620991  0.49780056
   0.99906908  0.33222521  0.49838447
   0.05442247  0.44382388  0.49884723
   0.16531768  0.33288444  0.50001215
   0.21898612  0.44382270  0.50165224
   0.33514858  0.33773328  0.50339031
   0.38694525  0.44827387  0.50958670
   0.50284791  0.33770682  0.50360105
   0.56160602  0.44823797  0.50998391
   0.66778145  0.33285443  0.49963749
   0.72504010  0.44380782  0.50114295
   0.83335701  0.33221195  0.49791518
   0.88957865  0.44380677  0.49825237
   0.00003314  0.49990030  0.49835048
   0.05573614  0.61130743  0.49834565
   0.16452790  0.49985599  0.50032235
   0.22027264  0.61134265  0.50031499
   0.32877881  0.49923631  0.50514604
   0.38513300  0.61194665  0.50514739
   0.67071104  0.49923365  0.50517220
   0.72707059  0.61195035  0.50517224
   0.83551700  0.49986026  0.49948453
   0.89125350  0.61133457  0.49948422
   0.00136430  0.66739252  0.49824937
   0.05673614  0.77898562  0.49790902
   0.16620335  0.66738054  0.49883406
   0.22244721  0.77897560  0.49837060
   0.33076298  0.66736579  0.50164604
   0.38803591  0.77830247  0.50000539
   0.49425975  0.66291375  0.50958718
   0.55300964  0.77344715  0.50338828
   0.66896610  0.66295341  0.50998288
   0.72073432  0.77348097  0.50359479
   0.83682433  0.66738081  0.50114212
   0.89051054  0.77833045  0.49963539
   0.00151950  0.83455528  0.49802741
   0.05677874  0.94573836  0.49751926
   0.16759972  0.83498348  0.49779087
   0.22328727  0.94632847  0.49764984
   0.33324173  0.83452222  0.49853136
   0.38919606  0.94569806  0.49784785
   0.49886656  0.83160652  0.49997424
   0.55488261  0.94311446  0.49834783
   0.66501623  0.82976534  0.50254304
   0.72058356  0.94088512  0.49940688
   0.83301728  0.83164625  0.49998031
   0.88852543  0.94315192  0.49840894
   0.52788678  0.55561308  0.55407295
 
 position of ions in cartesian coordinates  (Angst):
  -7.43645893 12.76132490  7.46502101
   0.00098677  1.42035737  7.46621609
   2.48437460  0.02688469  7.46309769
   2.48227038  1.44776676  7.47376727
   4.95878870  0.02654158  7.46658504
   4.96101252  1.44747206  7.47627575
   0.00117320 12.76084966  7.46634727
   7.44214093  1.41988678  7.46513856
   2.48235028 12.73346045  7.47377203
   9.92363354  1.39216125  7.46307356
   4.96090025 12.73378160  7.47615045
  12.39788345  1.39253665  7.46652020
  13.63355202  2.11216869  7.46766080
  -1.25019027  3.53094287  7.47806186
   1.23958287  2.14490807  7.47515208
   1.23571236  3.56800714  7.49963746
   3.72167632  2.17339173  7.49118168
   3.72157576  3.59155433  7.53824552
   6.20371007  2.14447940  7.47630003
   6.20724356  3.56761241  7.49982262
   8.68780104  2.11158030  7.46280215
   8.69274532  3.53052356  7.47043619
  11.16057575  2.10405319  7.46474541
  11.16040021  3.52513843  7.46700843
  12.39298273  4.24002833  7.47576708
  -2.49195986  5.66417272  7.48270852
  -0.01673121  4.24835367  7.50018218
  -0.04352248  5.66417505  7.52478359
   2.47399392  4.31025334  7.55085470
   2.42231217  5.72099937  7.64380057
   4.96927299  4.30993342  7.55401582
   5.02123589  5.72055973  7.64975858
   7.45930259  4.24802358  7.49456242
   7.48581505  5.66403852  7.51714419
   9.92756627  4.23984160  7.46872767
   9.93387816  5.66404236  7.47378561
  -3.71834223  6.37982525  7.47525727
  -3.71835051  7.80163060  7.47518475
  -1.27060894  6.37927707  7.50483528
  -1.27058799  7.80209747  7.50472492
   1.17777658  6.37138591  7.57719062
   1.17776199  7.80982318  7.57721079
   6.26516932  6.37138797  7.57758296
   6.26518706  7.80990654  7.57758361
   8.71254167  6.37940228  7.49226792
   8.71253189  7.80206507  7.49226324
  -4.94453714  8.51739379  7.47374059
  -4.95085604  9.94157246  7.46863529
  -2.49192199  8.51725823  7.48251084
  -2.48528121  9.94146208  7.47555906
  -0.04344336  8.51708741  7.52469062
  -0.01659412  9.93288892  7.50008080
   2.42223119  8.46028680  7.64380763
   2.47405524  9.87094181  7.55082413
   5.02127100  8.46081135  7.64974323
   4.96926315  9.87139105  7.55392179
   7.48578134  8.51733237  7.51713176
   7.45916989  9.93329897  7.49453080
  -6.18577746 10.65075751  7.47041111
  -6.19072161 12.06970350  7.46278894
  -3.71797037 10.65623981  7.46686302
  -3.71774635 12.07725221  7.46474766
  -1.25006613 10.65037063  7.47797042
  -1.24461459 12.06922431  7.46771775
   1.23584141 10.61317732  7.49961357
   1.23974067 12.03626939  7.47521740
   3.72156413 10.58969736  7.53814562
   3.72167477 12.00783549  7.49110317
   6.20714301 10.61371955  7.49970466
   6.20350242 12.03678263  7.47613410
   3.72077071  7.09089829  8.31109430
 


--------------------------------------------------------------------------------------------------------


 k-point  1 :   0.0000 0.0000 0.0000  plane waves:   83445
 k-point  2 :   0.5000 0.0000 0.0000  plane waves:   83448
 k-point  3 :  -0.0000 0.5000 0.0000  plane waves:   83436
 k-point  4 :   0.5000 0.5000 0.0000  plane waves:   83444

 maximum and minimum number of plane-waves per node :      6984     6935

 maximum number of plane-waves:     83448
 maximum index in each direction: 
   IXMAX=   28   IYMAX=   28   IZMAX=   28
   IXMIN=  -28   IYMIN=  -28   IZMIN=  -28


 real space projection operators:
  total allocation   :      18579.61 KBytes
  max/ min on nodes  :       1558.73       1535.03


 parallel 3D FFT for wavefunctions:
    minimum data exchange during FFTs selected (reduces bandwidth)
 parallel 3D FFT for charge:
    minimum data exchange during FFTs selected (reduces bandwidth)


 total amount of memory used by VASP MPI-rank0   135467. kBytes
=======================================================================

   base      :      30000. kBytes
   nonlr-proj:      10478. kBytes
   fftplans  :      14072. kBytes
   grid      :      39398. kBytes
   one-center:        186. kBytes
   wavefun   :      41333. kBytes
 
     INWAV:  cpu time    0.0000: real time    0.0001
 Broyden mixing: mesh for mixing (old mesh)
   NGX = 57   NGY = 57   NGZ = 57
  (NGX  =240   NGY  =240   NGZ  =240)
  gives a total of 185193 points

 initial charge density was supplied:
 charge density of overlapping atoms calculated
 number of electron     293.0000000 magnetization       1.0000000
 keeping initial charge density in first step


--------------------------------------------------------------------------------------------------------


 Maximum index for non-local projection operator          618
 Maximum index for augmentation-charges          402 (set IRDMAX)


--------------------------------------------------------------------------------------------------------


 First call to EWALD:  gamma=   0.125
 Maximum number of real-space cells 3x 3x 3
 Maximum number of reciprocal cells 3x 3x 3

    FEWALD:  cpu time    0.0039: real time    0.0040


--------------------------------------- Iteration      1(   1)  ---------------------------------------


    POTLOK:  cpu time    0.4483: real time    0.4734
    SETDIJ:  cpu time    0.0162: real time    0.0222
     EDDAV:  cpu time   17.0067: real time   17.1727
       DOS:  cpu time    0.0013: real time    0.0013
    --------------------------------------------
      LOOP:  cpu time   17.4725: real time   17.6696

 eigenvalue-minimisations  :  3256
 total energy-change (2. order) : 0.2735630E+04  (-0.1173989E+05)
 number of electron     293.0000000 magnetization       1.0000000
 augmentation part      293.0000000 magnetization       1.0000000

 Free energy of the ion-electron system (eV)
  ---------------------------------------------------
  alpha Z        PSCENC =       156.95040625
  Ewald energy   TEWEN  =     30374.75519613
  -Hartree energ DENC   =    -39540.78372192
  -exchange      EXHF   =         0.00000000
  -V(xc)+E(xc)   XCENC  =       982.53954672
  PAW double counting   =      9000.30529238    -9089.18527416
  entropy T*S    EENTRO =        -0.11429880
  eigenvalues    EBANDS =     -1214.59503916
  atomic energy  EATOM  =     12065.75791449
  Solvation  Ediel_sol  =         0.00000000
  ---------------------------------------------------
  free energy    TOTEN  =      2735.63002194 eV

  energy without entropy =     2735.74432074  energy(sigma->0) =     2735.68717134


--------------------------------------------------------------------------------------------------------




--------------------------------------- Iteration      1(   2)  ---------------------------------------


     EDDAV:  cpu time   21.8118: real time   22.0710
       DOS:  cpu time    0.0010: real time    0.0009
    --------------------------------------------
      LOOP:  cpu time   21.8128: real time   22.0719

 eigenvalue-minimisations  :  4312
 total energy-change (2. order) :-0.2909095E+04  (-0.2780292E+04)
 number of electron     293.0000000 magnetization       1.0000000
 augmentation part      293.0000000 magnetization       1.0000000

 Free energy of the ion-electron system (eV)
  ---------------------------------------------------
  alpha Z        PSCENC =       156.95040625
  Ewald energy   TEWEN  =     30374.75519613
  -Hartree energ DENC   =    -39540.78372192
  -exchange      EXHF   =         0.00000000
  -V(xc)+E(xc)   XCENC  =       982.53954672
  PAW double counting   =      9000.30529238    -9089.18527416
  entropy T*S    EENTRO =        -0.02688188
  eigenvalues    EBANDS =     -4123.77785077
  atomic energy  EATOM  =     12065.75791449
  Solvation  Ediel_sol  =         0.00000000
  ---------------------------------------------------
  free energy    TOTEN  =      -173.46537276 eV

  energy without entropy =     -173.43849088  energy(sigma->0) =     -173.45193182


--------------------------------------------------------------------------------------------------------




--------------------------------------- Iteration      1(   3)  ---------------------------------------


     EDDAV:  cpu time   18.6723: real time   18.8565
       DOS:  cpu time    0.0010: real time    0.0010
    --------------------------------------------
      LOOP:  cpu time   18.6733: real time   18.8575

 eigenvalue-minimisations  :  3560
 total energy-change (2. order) :-0.5108905E+03  (-0.5079994E+03)
 number of electron     293.0000000 magnetization       1.0000000
 augmentation part      293.0000000 magnetization       1.0000000

 Free energy of the ion-electron system (eV)
  ---------------------------------------------------
  alpha Z        PSCENC =       156.95040625
  Ewald energy   TEWEN  =     30374.75519613
  -Hartree energ DENC   =    -39540.78372192
  -exchange      EXHF   =         0.00000000
  -V(xc)+E(xc)   XCENC  =       982.53954672
  PAW double counting   =      9000.30529238    -9089.18527416
  entropy T*S    EENTRO =        -0.03438026
  eigenvalues    EBANDS =     -4634.66083892
  atomic energy  EATOM  =     12065.75791449
  Solvation  Ediel_sol  =         0.00000000
  ---------------------------------------------------
  free energy    TOTEN  =      -684.35585929 eV

  energy without entropy =     -684.32147903  energy(sigma->0) =     -684.33866916


--------------------------------------------------------------------------------------------------------




--------------------------------------- Iteration      1(   4)  ---------------------------------------


     EDDAV:  cpu time   18.8129: real time   19.0322
       DOS:  cpu time    0.0010: real time    0.0010
    --------------------------------------------
      LOOP:  cpu time   18.8139: real time   19.0332

 eigenvalue-minimisations  :  3560
 total energy-change (2. order) :-0.1939360E+02  (-0.1924664E+02)
 number of electron     293.0000000 magnetization       1.0000000
 augmentation part      293.0000000 magnetization       1.0000000

 Free energy of the ion-electron system (eV)
  ---------------------------------------------------
  alpha Z        PSCENC =       156.95040625
  Ewald energy   TEWEN  =     30374.75519613
  -Hartree energ DENC   =    -39540.78372192
  -exchange      EXHF   =         0.00000000
  -V(xc)+E(xc)   XCENC  =       982.53954672
  PAW double counting   =      9000.30529238    -9089.18527416
  entropy T*S    EENTRO =        -0.03808682
  eigenvalues    EBANDS =     -4654.05072770
  atomic energy  EATOM  =     12065.75791449
  Solvation  Ediel_sol  =         0.00000000
  ---------------------------------------------------
  free energy    TOTEN  =      -703.74945463 eV

  energy without entropy =     -703.71136781  energy(sigma->0) =     -703.73041122


--------------------------------------------------------------------------------------------------------




--------------------------------------- Iteration      1(   5)  ---------------------------------------


     EDDAV:  cpu time   20.7046: real time   20.9245
       DOS:  cpu time    0.0011: real time    0.0011
    CHARGE:  cpu time    1.0124: real time    1.0277
    MIXING:  cpu time    0.0115: real time    0.0143
    --------------------------------------------
      LOOP:  cpu time   21.7295: real time   21.9675

 eigenvalue-minimisations  :  4080
 total energy-change (2. order) :-0.6261613E+00  (-0.6243139E+00)
 number of electron     292.9999997 magnetization       0.7750123
 augmentation part       11.6652053 magnetization       0.7585920

 Broyden mixing:
  rms(total) = 0.46550E+01    rms(broyden)= 0.46546E+01
  rms(prec ) = 0.54201E+01
  weight for this iteration     100.00

 Free energy of the ion-electron system (eV)
  ---------------------------------------------------
  alpha Z        PSCENC =       156.95040625
  Ewald energy   TEWEN  =     30374.75519613
  -Hartree energ DENC   =    -39540.78372192
  -exchange      EXHF   =         0.00000000
  -V(xc)+E(xc)   XCENC  =       982.53954672
  PAW double counting   =      9000.30529238    -9089.18527416
  entropy T*S    EENTRO =        -0.03831598
  eigenvalues    EBANDS =     -4654.67665986
  atomic energy  EATOM  =     12065.75791449
  Solvation  Ediel_sol  =         0.00000000
  ---------------------------------------------------
  free energy    TOTEN  =      -704.37561595 eV

  energy without entropy =     -704.33729997  energy(sigma->0) =     -704.35645796


--------------------------------------------------------------------------------------------------------




--------------------------------------- Iteration      1(   6)  ---------------------------------------


    POTLOK:  cpu time    0.4580: real time    0.4684
    SETDIJ:  cpu time    0.0151: real time    0.0155
    EDDIAG:  cpu time    3.3062: real time    3.3447
  RMM-DIIS:  cpu time   17.9369: real time   18.0800
    ORTHCH:  cpu time    0.3278: real time    0.3290
       DOS:  cpu time    0.0010: real time    0.0010
    CHARGE:  cpu time    1.0318: real time    1.0499
    MIXING:  cpu time    0.0095: real time    0.0102
    --------------------------------------------
      LOOP:  cpu time   23.0863: real time   23.2989

 eigenvalue-minimisations  :  4107
 total energy-change (2. order) :-0.2790803E+02  (-0.5364431E+02)
 number of electron     293.0000006 magnetization       0.7165648
 augmentation part       17.3507681 magnetization       0.9502682

 Broyden mixing:
  rms(total) = 0.84043E+01    rms(broyden)= 0.84042E+01
  rms(prec ) = 0.92848E+01
  weight for this iteration     100.00

 eigenvalues of (default mixing * dielectric matrix)
  average eigenvalue GAMMA=   0.2154
  0.2154

 Free energy of the ion-electron system (eV)
  ---------------------------------------------------
  alpha Z        PSCENC =       156.95040625
  Ewald energy   TEWEN  =     30374.75519613
  -Hartree energ DENC   =    -39832.96792304
  -exchange      EXHF   =         0.00000000
  -V(xc)+E(xc)   XCENC  =       996.31564482
  PAW double counting   =     15150.46323989   -15239.17663735
  entropy T*S    EENTRO =        -0.04879081
  eigenvalues    EBANDS =     -4404.33269725
  atomic energy  EATOM  =     12065.75791449
  Solvation  Ediel_sol  =         0.00000000
  ---------------------------------------------------
  free energy    TOTEN  =      -732.28364688 eV

  energy without entropy =     -732.23485606  energy(sigma->0) =     -732.25925147


--------------------------------------------------------------------------------------------------------




--------------------------------------- Iteration      1(   7)  ---------------------------------------


    POTLOK:  cpu time    0.5182: real time    0.5247
    SETDIJ:  cpu time    0.0147: real time    0.0148
    EDDIAG:  cpu time    3.2223: real time    3.2514
  RMM-DIIS:  cpu time   13.4075: real time   13.5135
    ORTHCH:  cpu time    0.6661: real time    0.6680
       DOS:  cpu time    0.0008: real time    0.0008
    CHARGE:  cpu time    0.9860: real time    1.0012
    MIXING:  cpu time    0.0098: real time    0.0099
    --------------------------------------------
      LOOP:  cpu time   18.8255: real time   18.9842

 eigenvalue-minimisations  :  3047
 total energy-change (2. order) : 0.6987454E+02  (-0.5691982E+01)
 number of electron     293.0000004 magnetization       0.6172409
 augmentation part       15.2824289 magnetization       0.6140351

 Broyden mixing:
  rms(total) = 0.32160E+01    rms(broyden)= 0.32159E+01
  rms(prec ) = 0.38687E+01
  weight for this iteration     100.00

 eigenvalues of (default mixing * dielectric matrix)
  average eigenvalue GAMMA=   0.4639
  0.4639  0.4639

 Free energy of the ion-electron system (eV)
  ---------------------------------------------------
  alpha Z        PSCENC =       156.95040625
  Ewald energy   TEWEN  =     30374.75519613
  -Hartree energ DENC   =    -39954.65075535
  -exchange      EXHF   =         0.00000000
  -V(xc)+E(xc)   XCENC  =      1000.85490734
  PAW double counting   =     16736.58279758   -16832.10636846
  entropy T*S    EENTRO =        -0.00019510
  eigenvalues    EBANDS =     -4210.55300575
  atomic energy  EATOM  =     12065.75791449
  Solvation  Ediel_sol  =         0.00000000
  ---------------------------------------------------
  free energy    TOTEN  =      -662.40910288 eV

  energy without entropy =     -662.40890778  energy(sigma->0) =     -662.40900533


--------------------------------------------------------------------------------------------------------




--------------------------------------- Iteration      1(   8)  ---------------------------------------


    POTLOK:  cpu time    0.5223: real time    0.5266
    SETDIJ:  cpu time    0.0161: real time    0.0162
    EDDIAG:  cpu time    3.2443: real time    3.2693
  RMM-DIIS:  cpu time   13.6043: real time   13.7173
    ORTHCH:  cpu time    0.5577: real time    0.5871
       DOS:  cpu time    0.0011: real time    0.0011
    CHARGE:  cpu time    1.0320: real time    1.0449
    MIXING:  cpu time    0.0121: real time    0.0123
    --------------------------------------------
      LOOP:  cpu time   18.9898: real time   19.1748

 eigenvalue-minimisations  :  3131
 total energy-change (2. order) : 0.4525499E-01  (-0.2219727E+01)
 number of electron     292.9999998 magnetization       0.3468261
 augmentation part       11.2302460 magnetization       0.3025318

 Broyden mixing:
  rms(total) = 0.28318E+01    rms(broyden)= 0.28315E+01
  rms(prec ) = 0.34734E+01
  weight for this iteration     100.00

 eigenvalues of (default mixing * dielectric matrix)
  average eigenvalue GAMMA=   0.8538
  1.8812  0.3401  0.3401

 Free energy of the ion-electron system (eV)
  ---------------------------------------------------
  alpha Z        PSCENC =       156.95040625
  Ewald energy   TEWEN  =     30374.75519613
  -Hartree energ DENC   =    -40134.81731829
  -exchange      EXHF   =         0.00000000
  -V(xc)+E(xc)   XCENC  =      1007.55010378
  PAW double counting   =     19627.17267898   -19726.70557342
  entropy T*S    EENTRO =        -0.03219644
  eigenvalues    EBANDS =     -4032.99505938
  atomic energy  EATOM  =     12065.75791449
  Solvation  Ediel_sol  =         0.00000000
  ---------------------------------------------------
  free energy    TOTEN  =      -662.36384789 eV

  energy without entropy =     -662.33165145  energy(sigma->0) =     -662.34774967


--------------------------------------------------------------------------------------------------------




--------------------------------------- Iteration      1(   9)  ---------------------------------------


    POTLOK:  cpu time    0.5355: real time    0.5403
    SETDIJ:  cpu time    0.0150: real time    0.0151
    EDDIAG:  cpu time    3.3534: real time    3.3843
  RMM-DIIS:  cpu time   13.1162: real time   13.2203
    ORTHCH:  cpu time    0.4189: real time    0.4376
       DOS:  cpu time    0.0010: real time    0.0010
    CHARGE:  cpu time    1.0423: real time    1.0531
    MIXING:  cpu time    0.0111: real time    0.0119
    --------------------------------------------
      LOOP:  cpu time   18.4933: real time   18.6635

 eigenvalue-minimisations  :  2973
 total energy-change (2. order) : 0.1521701E+02  (-0.2011771E+01)
 number of electron     293.0000001 magnetization       0.2571608
 augmentation part       12.1827650 magnetization       0.2695688

 Broyden mixing:
  rms(total) = 0.11592E+01    rms(broyden)= 0.11590E+01
  rms(prec ) = 0.13085E+01
  weight for this iteration     100.00

 eigenvalues of (default mixing * dielectric matrix)
  average eigenvalue GAMMA=   0.9130
  2.2149  0.7347  0.3512  0.3512

 Free energy of the ion-electron system (eV)
  ---------------------------------------------------
  alpha Z        PSCENC =       156.95040625
  Ewald energy   TEWEN  =     30374.75519613
  -Hartree energ DENC   =    -40440.37971794
  -exchange      EXHF   =         0.00000000
  -V(xc)+E(xc)   XCENC  =      1020.41647981
  PAW double counting   =     27824.10592644   -27926.41133710
  entropy T*S    EENTRO =        -0.00370779
  eigenvalues    EBANDS =     -3722.33799325
  atomic energy  EATOM  =     12065.75791449
  Solvation  Ediel_sol  =         0.00000000
  ---------------------------------------------------
  free energy    TOTEN  =      -647.14683296 eV

  energy without entropy =     -647.14312517  energy(sigma->0) =     -647.14497906


--------------------------------------------------------------------------------------------------------




--------------------------------------- Iteration      1(  10)  ---------------------------------------


    POTLOK:  cpu time    0.5307: real time    0.5347
    SETDIJ:  cpu time    0.0146: real time    0.0149
    EDDIAG:  cpu time    3.2807: real time    3.3055
  RMM-DIIS:  cpu time   13.2553: real time   13.3671
    ORTHCH:  cpu time    0.3754: real time    0.3766
       DOS:  cpu time    0.0010: real time    0.0010
    CHARGE:  cpu time    0.9858: real time    0.9960
    MIXING:  cpu time    0.0118: real time    0.0118
    --------------------------------------------
      LOOP:  cpu time   18.4553: real time   18.6075

 eigenvalue-minimisations  :  3004
 total energy-change (2. order) :-0.4451519E+00  (-0.3109205E+00)
 number of electron     293.0000004 magnetization       0.2021777
 augmentation part       13.7824882 magnetization       0.2218672

 Broyden mixing:
  rms(total) = 0.14602E+01    rms(broyden)= 0.14597E+01
  rms(prec ) = 0.18205E+01
  weight for this iteration     100.00

 eigenvalues of (default mixing * dielectric matrix)
  average eigenvalue GAMMA=   0.9226
  2.3396  1.0828  0.3479  0.3479  0.4950

 Free energy of the ion-electron system (eV)
  ---------------------------------------------------
  alpha Z        PSCENC =       156.95040625
  Ewald energy   TEWEN  =     30374.75519613
  -Hartree energ DENC   =    -40483.77883055
  -exchange      EXHF   =         0.00000000
  -V(xc)+E(xc)   XCENC  =      1021.34652293
  PAW double counting   =     29329.53167955   -29430.68890434
  entropy T*S    EENTRO =        -0.00127623
  eigenvalues    EBANDS =     -3681.46469310
  atomic energy  EATOM  =     12065.75791449
  Solvation  Ediel_sol  =         0.00000000
  ---------------------------------------------------
  free energy    TOTEN  =      -647.59198487 eV

  energy without entropy =     -647.59070864  energy(sigma->0) =     -647.59134676


--------------------------------------------------------------------------------------------------------




--------------------------------------- Iteration      1(  11)  ---------------------------------------


    POTLOK:  cpu time    0.5516: real time    0.5568
    SETDIJ:  cpu time    0.0153: real time    0.0154
    EDDIAG:  cpu time    3.2726: real time    3.3067
  RMM-DIIS:  cpu time   13.5848: real time   13.6918
    ORTHCH:  cpu time    0.3370: real time    0.3470
       DOS:  cpu time    0.0012: real time    0.0012
    CHARGE:  cpu time    1.0033: real time    1.0120
    MIXING:  cpu time    0.0123: real time    0.0123
    --------------------------------------------
      LOOP:  cpu time   18.7780: real time   18.9433

 eigenvalue-minimisations  :  3119
 total energy-change (2. order) : 0.1050933E+01  (-0.4157940E-01)
 number of electron     293.0000002 magnetization       0.1314961
 augmentation part       12.5326391 magnetization       0.1150793

 Broyden mixing:
  rms(total) = 0.76802E+00    rms(broyden)= 0.76744E+00
  rms(prec ) = 0.81907E+00
  weight for this iteration     100.00

 eigenvalues of (default mixing * dielectric matrix)
  average eigenvalue GAMMA=   0.9699
  2.1274  1.9869  0.6569  0.3455  0.3455  0.3575

 Free energy of the ion-electron system (eV)
  ---------------------------------------------------
  alpha Z        PSCENC =       156.95040625
  Ewald energy   TEWEN  =     30374.75519613
  -Hartree energ DENC   =    -40517.35965934
  -exchange      EXHF   =         0.00000000
  -V(xc)+E(xc)   XCENC  =      1021.79391624
  PAW double counting   =     29996.29592209   -30096.79125045
  entropy T*S    EENTRO =        -0.02926508
  eigenvalues    EBANDS =     -3647.91423209
  atomic energy  EATOM  =     12065.75791449
  Solvation  Ediel_sol  =         0.00000000
  ---------------------------------------------------
  free energy    TOTEN  =      -646.54105176 eV

  energy without entropy =     -646.51178668  energy(sigma->0) =     -646.52641922


--------------------------------------------------------------------------------------------------------




--------------------------------------- Iteration      1(  12)  ---------------------------------------


    POTLOK:  cpu time    0.5324: real time    0.5369
    SETDIJ:  cpu time    0.0152: real time    0.0153
    EDDIAG:  cpu time    3.3146: real time    3.3400
  RMM-DIIS:  cpu time   12.8397: real time   12.9318
    ORTHCH:  cpu time    0.3291: real time    0.3302
       DOS:  cpu time    0.0011: real time    0.0011
    CHARGE:  cpu time    0.9850: real time    0.9937
    MIXING:  cpu time    0.0127: real time    0.0127
    --------------------------------------------
      LOOP:  cpu time   18.0297: real time   18.1615

 eigenvalue-minimisations  :  2944
 total energy-change (2. order) : 0.1615482E+00  (-0.1564082E-01)
 number of electron     293.0000002 magnetization       0.1540882
 augmentation part       12.8595961 magnetization      -0.1482645

 Broyden mixing:
  rms(total) = 0.58062E+00    rms(broyden)= 0.58040E+00
  rms(prec ) = 0.59801E+00
  weight for this iteration     100.00

 eigenvalues of (default mixing * dielectric matrix)
  average eigenvalue GAMMA=   0.8686
  2.1234  2.1234  0.5603  0.3474  0.3474  0.3690  0.2095

 Free energy of the ion-electron system (eV)
  ---------------------------------------------------
  alpha Z        PSCENC =       156.95040625
  Ewald energy   TEWEN  =     30374.75519613
  -Hartree energ DENC   =    -40543.82227462
  -exchange      EXHF   =         0.00000000
  -V(xc)+E(xc)   XCENC  =      1021.40342753
  PAW double counting   =     30443.10299819   -30542.09105101
  entropy T*S    EENTRO =        -0.06238938
  eigenvalues    EBANDS =     -3622.37373115
  atomic energy  EATOM  =     12065.75791449
  Solvation  Ediel_sol  =         0.00000000
  ---------------------------------------------------
  free energy    TOTEN  =      -646.37950357 eV

  energy without entropy =     -646.31711418  energy(sigma->0) =     -646.34830888


--------------------------------------------------------------------------------------------------------




--------------------------------------- Iteration      1(  13)  ---------------------------------------


    POTLOK:  cpu time    0.5301: real time    0.5339
    SETDIJ:  cpu time    0.0145: real time    0.0146
    EDDIAG:  cpu time    3.2285: real time    3.2617
  RMM-DIIS:  cpu time   13.0397: real time   13.1322
    ORTHCH:  cpu time    0.5463: real time    0.5476
       DOS:  cpu time    0.0010: real time    0.0010
    CHARGE:  cpu time    0.9911: real time    1.0022
    MIXING:  cpu time    0.0112: real time    0.0113
    --------------------------------------------
      LOOP:  cpu time   18.3624: real time   18.5045

 eigenvalue-minimisations  :  2972
 total energy-change (2. order) :-0.1174153E+00  (-0.2936008E-02)
 number of electron     293.0000002 magnetization       0.0682254
 augmentation part       12.9558378 magnetization      -0.4032666

 Broyden mixing:
  rms(total) = 0.72176E+00    rms(broyden)= 0.72168E+00
  rms(prec ) = 0.75258E+00
  weight for this iteration     100.00

 eigenvalues of (default mixing * dielectric matrix)
  average eigenvalue GAMMA=   0.8804
  2.2001  2.2001  0.7149  0.5740  0.3458  0.3458  0.3412  0.3208

 Free energy of the ion-electron system (eV)
  ---------------------------------------------------
  alpha Z        PSCENC =       156.95040625
  Ewald energy   TEWEN  =     30374.75519613
  -Hartree energ DENC   =    -40547.30491814
  -exchange      EXHF   =         0.00000000
  -V(xc)+E(xc)   XCENC  =      1021.43231992
  PAW double counting   =     30454.63918091   -30553.51723277
  entropy T*S    EENTRO =        -0.02919065
  eigenvalues    EBANDS =     -3619.18059497
  atomic energy  EATOM  =     12065.75791449
  Solvation  Ediel_sol  =         0.00000000
  ---------------------------------------------------
  free energy    TOTEN  =      -646.49691882 eV

  energy without entropy =     -646.46772817  energy(sigma->0) =     -646.48232349


--------------------------------------------------------------------------------------------------------




--------------------------------------- Iteration      1(  14)  ---------------------------------------


    POTLOK:  cpu time    0.5371: real time    0.5432
    SETDIJ:  cpu time    0.0149: real time    0.0150
    EDDIAG:  cpu time    3.2122: real time    3.2370
  RMM-DIIS:  cpu time   13.0030: real time   13.0995
    ORTHCH:  cpu time    0.2833: real time    0.2845
       DOS:  cpu time    0.0011: real time    0.0011
    CHARGE:  cpu time    1.0003: real time    1.0130
    MIXING:  cpu time    0.0135: real time    0.0136
    --------------------------------------------
      LOOP:  cpu time   18.0653: real time   18.2068

 eigenvalue-minimisations  :  2982
 total energy-change (2. order) : 0.1585312E+00  (-0.2939912E-02)
 number of electron     293.0000003 magnetization       0.0276693
 augmentation part       13.0462000 magnetization      -0.3341286

 Broyden mixing:
  rms(total) = 0.72454E+00    rms(broyden)= 0.72453E+00
  rms(prec ) = 0.78231E+00
  weight for this iteration     100.00

 eigenvalues of (default mixing * dielectric matrix)
  average eigenvalue GAMMA=   0.8184
  2.2223  2.2223  0.7135  0.5573  0.3457  0.3457  0.3436  0.3078  0.3078

 Free energy of the ion-electron system (eV)
  ---------------------------------------------------
  alpha Z        PSCENC =       156.95040625
  Ewald energy   TEWEN  =     30374.75519613
  -Hartree energ DENC   =    -40552.02558307
  -exchange      EXHF   =         0.00000000
  -V(xc)+E(xc)   XCENC  =      1021.47793141
  PAW double counting   =     30530.85321721   -30629.62928378
  entropy T*S    EENTRO =        -0.05573796
  eigenvalues    EBANDS =     -3614.42244833
  atomic energy  EATOM  =     12065.75791449
  Solvation  Ediel_sol  =         0.00000000
  ---------------------------------------------------
  free energy    TOTEN  =      -646.33838764 eV

  energy without entropy =     -646.28264968  energy(sigma->0) =     -646.31051866


--------------------------------------------------------------------------------------------------------




--------------------------------------- Iteration      1(  15)  ---------------------------------------


    POTLOK:  cpu time    0.5897: real time    0.5969
    SETDIJ:  cpu time    0.0153: real time    0.0154
    EDDIAG:  cpu time    3.2029: real time    3.2264
  RMM-DIIS:  cpu time   13.1460: real time   13.2443
    ORTHCH:  cpu time    0.2099: real time    0.2116
       DOS:  cpu time    0.0010: real time    0.0010
    CHARGE:  cpu time    0.9847: real time    0.9984
    MIXING:  cpu time    0.0121: real time    0.0123
    --------------------------------------------
      LOOP:  cpu time   18.1615: real time   18.3062

 eigenvalue-minimisations  :  3041
 total energy-change (2. order) : 0.1627518E-01  (-0.7526467E-03)
 number of electron     293.0000003 magnetization       0.0302711
 augmentation part       13.0390247 magnetization      -0.0224328

 Broyden mixing:
  rms(total) = 0.53748E+00    rms(broyden)= 0.53729E+00
  rms(prec ) = 0.61027E+00
  weight for this iteration     100.00

 eigenvalues of (default mixing * dielectric matrix)
  average eigenvalue GAMMA=   0.8180
  2.2101  2.2101  0.4080  0.6850  0.6850  0.3456  0.3456  0.4732  0.4732  0.3440

 Free energy of the ion-electron system (eV)
  ---------------------------------------------------
  alpha Z        PSCENC =       156.95040625
  Ewald energy   TEWEN  =     30374.75519613
  -Hartree energ DENC   =    -40554.12609540
  -exchange      EXHF   =         0.00000000
  -V(xc)+E(xc)   XCENC  =      1021.51653815
  PAW double counting   =     30528.06629108   -30626.87243381
  entropy T*S    EENTRO =        -0.08120667
  eigenvalues    EBANDS =     -3612.28872269
  atomic energy  EATOM  =     12065.75791449
  Solvation  Ediel_sol  =         0.00000000
  ---------------------------------------------------
  free energy    TOTEN  =      -646.32211247 eV

  energy without entropy =     -646.24090580  energy(sigma->0) =     -646.28150913


--------------------------------------------------------------------------------------------------------




--------------------------------------- Iteration      1(  16)  ---------------------------------------


    POTLOK:  cpu time    0.5202: real time    0.5240
    SETDIJ:  cpu time    0.0147: real time    0.0149
    EDDIAG:  cpu time    3.1618: real time    3.1888
  RMM-DIIS:  cpu time   12.6953: real time   12.7875
    ORTHCH:  cpu time    0.3435: real time    0.3446
       DOS:  cpu time    0.0010: real time    0.0010
    CHARGE:  cpu time    1.0184: real time    1.0305
    MIXING:  cpu time    0.0121: real time    0.0126
    --------------------------------------------
      LOOP:  cpu time   17.7670: real time   17.9040

 eigenvalue-minimisations  :  2944
 total energy-change (2. order) :-0.1480998E-01  (-0.2200447E-02)
 number of electron     293.0000002 magnetization       0.0035331
 augmentation part       12.9233170 magnetization      -0.0567605

 Broyden mixing:
  rms(total) = 0.40320E+00    rms(broyden)= 0.40317E+00
  rms(prec ) = 0.44339E+00
  weight for this iteration     100.00

 eigenvalues of (default mixing * dielectric matrix)
  average eigenvalue GAMMA=   0.7676
  2.2101  2.2101  0.4166  0.6637  0.6637  0.5413  0.5413  0.3457  0.3457  0.3468
  0.1581

 Free energy of the ion-electron system (eV)
  ---------------------------------------------------
  alpha Z        PSCENC =       156.95040625
  Ewald energy   TEWEN  =     30374.75519613
  -Hartree energ DENC   =    -40571.50722551
  -exchange      EXHF   =         0.00000000
  -V(xc)+E(xc)   XCENC  =      1021.77142761
  PAW double counting   =     30493.14406684   -30591.95999470
  entropy T*S    EENTRO =        -0.07848315
  eigenvalues    EBANDS =     -3595.17023041
  atomic energy  EATOM  =     12065.75791449
  Solvation  Ediel_sol  =         0.00000000
  ---------------------------------------------------
  free energy    TOTEN  =      -646.33692245 eV

  energy without entropy =     -646.25843929  energy(sigma->0) =     -646.29768087


--------------------------------------------------------------------------------------------------------




--------------------------------------- Iteration      1(  17)  ---------------------------------------


    POTLOK:  cpu time    0.5286: real time    0.5332
    SETDIJ:  cpu time    0.0154: real time    0.0154
    EDDIAG:  cpu time    3.2790: real time    3.3037
  RMM-DIIS:  cpu time   13.0173: real time   13.1162
    ORTHCH:  cpu time    0.4377: real time    0.4398
       DOS:  cpu time    0.0011: real time    0.0011
    CHARGE:  cpu time    0.9994: real time    1.0078
    MIXING:  cpu time    0.0141: real time    0.0143
    --------------------------------------------
      LOOP:  cpu time   18.2926: real time   18.4316

 eigenvalue-minimisations  :  2988
 total energy-change (2. order) : 0.2381396E-02  (-0.3490855E-02)
 number of electron     293.0000002 magnetization       0.0055512
 augmentation part       12.6965509 magnetization      -0.1347640

 Broyden mixing:
  rms(total) = 0.31204E+00    rms(broyden)= 0.31195E+00
  rms(prec ) = 0.32472E+00
  weight for this iteration     100.00

 eigenvalues of (default mixing * dielectric matrix)
  average eigenvalue GAMMA=   0.7846
  2.1986  2.1986  0.5168  0.4687  0.7857  0.7857  0.5861  0.3453  0.3453  0.4238
  0.4238  0.3371

 Free energy of the ion-electron system (eV)
  ---------------------------------------------------
  alpha Z        PSCENC =       156.95040625
  Ewald energy   TEWEN  =     30374.75519613
  -Hartree energ DENC   =    -40595.19345921
  -exchange      EXHF   =         0.00000000
  -V(xc)+E(xc)   XCENC  =      1022.04991126
  PAW double counting   =     30431.88843061   -30530.63252784
  entropy T*S    EENTRO =        -0.05481590
  eigenvalues    EBANDS =     -3571.85559683
  atomic energy  EATOM  =     12065.75791449
  Solvation  Ediel_sol  =         0.00000000
  ---------------------------------------------------
  free energy    TOTEN  =      -646.33454105 eV

  energy without entropy =     -646.27972515  energy(sigma->0) =     -646.30713310


--------------------------------------------------------------------------------------------------------




--------------------------------------- Iteration      1(  18)  ---------------------------------------


    POTLOK:  cpu time    0.5329: real time    0.5369
    SETDIJ:  cpu time    0.0147: real time    0.0148
    EDDIAG:  cpu time    3.2375: real time    3.2612
  RMM-DIIS:  cpu time   14.2849: real time   14.3940
    ORTHCH:  cpu time    0.2941: real time    0.3150
       DOS:  cpu time    0.0009: real time    0.0009
    CHARGE:  cpu time    1.0173: real time    1.0287
    MIXING:  cpu time    0.0127: real time    0.0134
    --------------------------------------------
      LOOP:  cpu time   19.3951: real time   19.5649

 eigenvalue-minimisations  :  3272
 total energy-change (2. order) :-0.1514409E-01  (-0.6856899E-03)
 number of electron     293.0000002 magnetization      -0.0154718
 augmentation part       12.7565197 magnetization      -0.2250886

 Broyden mixing:
  rms(total) = 0.35251E+00    rms(broyden)= 0.35249E+00
  rms(prec ) = 0.35810E+00
  weight for this iteration     100.00

 eigenvalues of (default mixing * dielectric matrix)
  average eigenvalue GAMMA=   0.8014
  2.1928  2.1928  0.6742  0.4394  0.8609  0.8609  0.6625  0.6625  0.3452  0.3452
  0.4148  0.4148  0.3516

 Free energy of the ion-electron system (eV)
  ---------------------------------------------------
  alpha Z        PSCENC =       156.95040625
  Ewald energy   TEWEN  =     30374.75519613
  -Hartree energ DENC   =    -40596.85326410
  -exchange      EXHF   =         0.00000000
  -V(xc)+E(xc)   XCENC  =      1022.05452711
  PAW double counting   =     30427.74451446   -30526.45978144
  entropy T*S    EENTRO =        -0.04892771
  eigenvalues    EBANDS =     -3570.25027033
  atomic energy  EATOM  =     12065.75791449
  Solvation  Ediel_sol  =         0.00000000
  ---------------------------------------------------
  free energy    TOTEN  =      -646.34968514 eV

  energy without entropy =     -646.30075743  energy(sigma->0) =     -646.32522129


--------------------------------------------------------------------------------------------------------




--------------------------------------- Iteration      1(  19)  ---------------------------------------


    POTLOK:  cpu time    0.5531: real time    0.5633
    SETDIJ:  cpu time    0.0125: real time    0.0149
    EDDIAG:  cpu time    3.2766: real time    3.3025
  RMM-DIIS:  cpu time   12.7971: real time   12.8984
    ORTHCH:  cpu time    0.2937: real time    0.2947
       DOS:  cpu time    0.0010: real time    0.0010
    CHARGE:  cpu time    0.9870: real time    0.9973
    MIXING:  cpu time    0.0150: real time    0.0151
    --------------------------------------------
      LOOP:  cpu time   17.9360: real time   18.0872

 eigenvalue-minimisations  :  2952
 total energy-change (2. order) : 0.2081932E-01  (-0.4803135E-03)
 number of electron     293.0000002 magnetization      -0.0822697
 augmentation part       12.8084046 magnetization      -0.3105381

 Broyden mixing:
  rms(total) = 0.37025E+00    rms(broyden)= 0.37024E+00
  rms(prec ) = 0.37930E+00
  weight for this iteration     100.00

 eigenvalues of (default mixing * dielectric matrix)
  average eigenvalue GAMMA=   0.8761
  2.2573  2.2573  1.6981  1.0216  0.4349  0.7822  0.7822  0.7067  0.3452  0.3452
  0.4444  0.4444  0.3473  0.3984

 Free energy of the ion-electron system (eV)
  ---------------------------------------------------
  alpha Z        PSCENC =       156.95040625
  Ewald energy   TEWEN  =     30374.75519613
  -Hartree energ DENC   =    -40604.55135820
  -exchange      EXHF   =         0.00000000
  -V(xc)+E(xc)   XCENC  =      1022.14226260
  PAW double counting   =     30414.65462538   -30513.34688794
  entropy T*S    EENTRO =        -0.05421546
  eigenvalues    EBANDS =     -3562.63680907
  atomic energy  EATOM  =     12065.75791449
  Solvation  Ediel_sol  =         0.00000000
  ---------------------------------------------------
  free energy    TOTEN  =      -646.32886582 eV

  energy without entropy =     -646.27465036  energy(sigma->0) =     -646.30175809


--------------------------------------------------------------------------------------------------------




--------------------------------------- Iteration      1(  20)  ---------------------------------------


    POTLOK:  cpu time    0.5256: real time    0.5294
    SETDIJ:  cpu time    0.0155: real time    0.0155
    EDDIAG:  cpu time    3.2501: real time    3.2779
  RMM-DIIS:  cpu time   12.8974: real time   12.9883
    ORTHCH:  cpu time    0.3370: real time    0.3387
       DOS:  cpu time    0.0009: real time    0.0009
    CHARGE:  cpu time    0.9865: real time    0.9956
    MIXING:  cpu time    0.0142: real time    0.0143
    --------------------------------------------
      LOOP:  cpu time   18.0272: real time   18.1606

 eigenvalue-minimisations  :  2951
 total energy-change (2. order) : 0.4179798E-01  (-0.3430966E-02)
 number of electron     293.0000002 magnetization      -0.0412976
 augmentation part       12.8514124 magnetization       0.1551458

 Broyden mixing:
  rms(total) = 0.30551E+00    rms(broyden)= 0.30513E+00
  rms(prec ) = 0.32958E+00
  weight for this iteration     100.00

 eigenvalues of (default mixing * dielectric matrix)
  average eigenvalue GAMMA=   0.8851
  2.3791  2.3791  1.0331  1.6765  0.4352  0.8809  0.8809  0.5486  0.5486  0.6430
  0.3452  0.3452  0.3477  0.4169  0.4169

 Free energy of the ion-electron system (eV)
  ---------------------------------------------------
  alpha Z        PSCENC =       156.95040625
  Ewald energy   TEWEN  =     30374.75519613
  -Hartree energ DENC   =    -40619.72820808
  -exchange      EXHF   =         0.00000000
  -V(xc)+E(xc)   XCENC  =      1022.28098290
  PAW double counting   =     30393.48207002   -30492.09463239
  entropy T*S    EENTRO =        -0.07668134
  eigenvalues    EBANDS =     -3547.61411582
  atomic energy  EATOM  =     12065.75791449
  Solvation  Ediel_sol  =         0.00000000
  ---------------------------------------------------
  free energy    TOTEN  =      -646.28706784 eV

  energy without entropy =     -646.21038650  energy(sigma->0) =     -646.24872717


[...]
  E(xc)   -1111.05702 -1110.73276 -1150.17077     0.00627    -0.00085    -0.00294
  Local  -83752.17282-83738.17167 86087.57475    -8.19274     2.15803     4.41386
  n-local  -289.61375  -286.85096  -269.80573    -0.07182    -0.00805     0.00748
  augment    66.59056    64.96853    65.46842    -0.01486     0.01181     0.01192
  Kinetic  4383.48380  4370.88160  4985.31828    -0.10385     0.06722     0.09586
  Fock        0.00000     0.00000     0.00000     0.00000     0.00000     0.00000
  vdW        -1.51550    -1.66950    -0.04127     0.00078     0.00027     0.00054
  -------------------------------------------------------------------------------------
  Total       0.22024    -0.06756    -0.77091     0.05936    -0.00066     0.00256
  in kB       0.12412    -0.03808    -0.43446     0.03345    -0.00037     0.00144
  external pressure =       -0.12 kB  Pullay stress =        0.00 kB


 VOLUME and BASIS-vectors are now :
 -----------------------------------------------------------------------------
  energy-cutoff  :      550.00
  volume of cell :     2842.94
      direct lattice vectors                 reciprocal lattice vectors
    14.857851351 -0.001371368  0.000000000     0.067308101  0.039196736  0.000000000
    -7.428925675 12.756850017  0.000000000     0.000007236  0.078393471  0.000000000
     0.000000000  0.000000000 15.000000000     0.000000000  0.000000000  0.066666667

  length of vectors
    14.857851414 14.762322278 15.000000000     0.077889438  0.078393471  0.066666667


 FORCES acting on ions
    electron-ion (+dipol)            ewald-force                    non-local-force                 convergence-correction
 -----------------------------------------------------------------------------------------------
   0.249E+02 -.131E+02 0.773E+01   -.304E+02 0.162E+02 -.776E+01   0.549E+01 -.302E+01 0.353E-01   0.192E-04 0.339E-04 -.410E-04
   0.504E+01 -.861E+01 0.770E+01   -.528E+01 0.100E+02 -.773E+01   0.239E+00 -.146E+01 0.292E-01   0.125E-04 -.104E-03 -.383E-04
   -.230E+02 -.129E+02 0.710E+01   0.283E+02 0.161E+02 -.710E+01   -.539E+01 -.323E+01 0.258E-02   -.415E-04 0.202E-04 -.206E-04
   -.877E+01 -.808E+01 0.739E+01   0.915E+01 0.956E+01 -.737E+01   -.373E+00 -.150E+01 -.868E-02   0.120E-04 -.561E-04 -.967E-04
   -.384E+01 0.782E+00 0.671E+01   0.442E+01 -.358E+00 -.673E+01   -.584E+00 -.414E+00 0.226E-01   -.512E-04 0.669E-05 0.872E-05
   -.167E+01 -.116E+01 0.700E+01   0.191E+01 0.140E+01 -.701E+01   -.231E+00 -.258E+00 0.478E-02   -.517E-04 -.537E-04 -.694E-04
   -.269E+01 0.425E+00 0.763E+01   0.287E+01 -.413E+00 -.766E+01   -.189E+00 0.975E-02 0.264E-01   -.190E-04 0.365E-05 -.319E-04
   0.103E+01 -.232E+00 0.781E+01   -.103E+01 0.280E+00 -.784E+01   0.771E-02 -.737E-01 0.254E-01   -.126E-04 -.641E-04 -.307E-04
   -.128E+01 -.310E+00 0.754E+01   0.123E+01 0.249E+00 -.755E+01   0.630E-01 0.699E-01 0.114E-01   0.461E-04 -.226E-04 -.802E-04
   0.111E+01 -.549E+00 0.737E+01   -.120E+01 0.441E+00 -.740E+01   0.805E-01 0.966E-01 0.258E-01   0.228E-05 -.168E-04 -.625E-05
   0.576E+01 -.166E+00 0.706E+01   -.640E+01 0.356E+00 -.707E+01   0.646E+00 -.179E+00 0.114E-01   0.280E-04 0.691E-05 -.644E-04
   0.400E+01 -.227E+01 0.659E+01   -.428E+01 0.229E+01 -.661E+01   0.274E+00 -.383E-01 0.164E-01   0.204E-04 -.512E-04 0.797E-05
   0.274E+01 0.247E+00 0.685E+01   -.333E+01 0.525E-01 -.686E+01   0.597E+00 -.288E+00 0.750E-02   0.218E-04 -.421E-04 -.622E-05
   0.334E+01 0.218E+01 0.647E+01   -.341E+01 -.199E+01 -.649E+01   0.563E-01 -.178E+00 0.213E-01   -.184E-04 -.330E-04 -.413E-04
   0.188E+01 -.367E+01 0.869E+01   -.182E+01 0.465E+01 -.872E+01   -.737E-01 -.101E+01 0.218E-01   0.251E-04 -.255E-04 -.114E-03
   -.159E+01 0.314E+01 0.102E+02   0.212E+01 -.240E+01 -.103E+02   -.545E+00 -.765E+00 0.646E-01   0.217E-04 -.514E-04 -.223E-03
   -.988E+00 0.305E+01 0.714E+01   0.156E+01 -.230E+01 -.716E+01   -.576E+00 -.768E+00 0.159E-01   -.579E-04 -.758E-04 -.149E-03
   -.162E+01 0.583E+01 0.572E+01   0.171E+01 -.494E+01 -.531E+01   -.902E-01 -.901E+00 -.425E+00   -.275E-04 0.607E-04 -.276E-03
   -.309E+01 0.424E+01 0.824E+01   0.319E+01 -.402E+01 -.826E+01   -.101E+00 -.250E+00 0.136E-01   -.544E-04 -.312E-04 -.891E-04
   0.994E+00 0.664E+01 0.981E+01   -.144E+01 -.635E+01 -.990E+01   0.467E+00 -.305E+00 0.818E-01   -.186E-04 -.379E-05 -.195E-03
   -.172E+01 0.403E+01 0.782E+01   0.173E+01 -.405E+01 -.783E+01   -.169E-01 0.255E-01 0.795E-02   0.422E-04 -.148E-04 -.176E-04
   -.137E+01 0.323E+01 0.800E+01   0.133E+01 -.328E+01 -.803E+01   0.484E-01 0.496E-01 0.325E-01   0.304E-04 -.464E-04 -.555E-04
   0.796E+00 0.185E+01 0.597E+01   -.969E+00 -.182E+01 -.596E+01   0.187E+00 -.306E-01 -.162E-01   0.341E-04 -.175E-04 0.272E-04
   0.945E+00 0.157E+01 0.598E+01   -.100E+01 -.155E+01 -.601E+01   0.432E-01 -.120E-01 0.210E-01   -.160E-04 -.645E-04 0.376E-04
   0.173E+01 0.196E+01 0.521E+01   -.176E+01 -.191E+01 -.520E+01   0.546E-01 -.348E-01 -.209E-01   0.758E-04 -.164E-04 0.126E-04
   0.425E+01 0.473E+01 0.554E+01   -.420E+01 -.473E+01 -.557E+01   -.698E-01 -.337E-02 0.269E-01   0.332E-05 0.593E-05 -.169E-04
   0.453E+01 0.776E+01 0.680E+01   -.440E+01 -.763E+01 -.677E+01   -.133E+00 -.120E+00 -.333E-01   0.294E-04 0.347E-04 -.172E-03
   0.118E+02 0.563E+01 0.572E+01   -.116E+02 -.541E+01 -.585E+01   -.229E+00 -.227E+00 0.121E+00   -.349E-06 -.295E-04 -.229E-03
   -.171E+01 0.159E+02 0.123E+02   0.206E+01 -.148E+02 -.125E+02   -.374E+00 -.116E+01 0.219E+00   0.527E-04 0.352E-04 -.367E-03
   -.798E+01 0.333E+02 0.254E+02   0.143E+02 -.297E+02 -.245E+02   -.629E+01 -.367E+01 -.890E+00   0.580E-04 0.516E-04 -.494E-03
   0.130E+01 0.170E+02 0.117E+02   -.147E+01 -.159E+02 -.119E+02   0.185E+00 -.104E+01 0.240E+00   -.107E-03 0.570E-04 -.318E-03
   0.768E+01 0.347E+02 0.240E+02   -.139E+02 -.312E+02 -.231E+02   0.620E+01 -.355E+01 -.887E+00   -.670E-04 0.841E-04 -.421E-03
   -.441E+01 0.100E+02 0.779E+01   0.422E+01 -.101E+02 -.776E+01   0.193E+00 0.636E-01 -.327E-01   -.389E-04 0.617E-04 -.170E-03
   -.114E+02 0.741E+01 0.708E+01   0.112E+02 -.738E+01 -.719E+01   0.284E+00 -.493E-01 0.109E+00   -.166E-05 -.676E-05 -.231E-03
   -.199E+01 0.291E+01 0.661E+01   0.189E+01 -.295E+01 -.659E+01   0.888E-01 0.596E-01 -.194E-01   0.155E-04 -.218E-04 -.613E-05
   -.374E+01 0.533E+01 0.752E+01   0.370E+01 -.541E+01 -.756E+01   0.453E-01 0.692E-01 0.405E-01   -.282E-04 0.134E-04 -.381E-04
   -.781E+00 0.946E+00 0.640E+01   0.802E+00 -.102E+01 -.642E+01   -.102E-01 0.100E+00 0.180E-01   0.383E-04 0.619E-04 0.997E-05
   0.237E-01 0.155E+01 0.636E+01   0.121E+00 -.174E+01 -.637E+01   -.147E+00 0.172E+00 0.110E-01   -.141E-04 0.122E-04 0.112E-04
   0.459E+01 0.207E+00 0.370E+01   -.454E+01 -.210E+00 -.366E+01   -.475E-01 0.143E-01 -.388E-01   0.484E-04 0.265E-04 -.126E-03
   0.431E+01 -.107E+00 0.385E+01   -.418E+01 0.434E-01 -.382E+01   -.143E+00 0.532E-01 -.367E-01   -.248E-05 -.111E-04 -.124E-03
   0.249E+02 0.776E+01 0.143E+02   -.240E+02 -.818E+01 -.148E+02   -.875E+00 0.421E+00 0.548E+00   0.933E-04 0.682E-04 -.387E-03
   0.249E+02 -.846E+01 0.143E+02   -.240E+02 0.892E+01 -.148E+02   -.874E+00 -.472E+00 0.556E+00   0.895E-04 -.418E-04 -.378E-03
   -.244E+02 0.845E+01 0.132E+02   0.235E+02 -.900E+01 -.137E+02   0.888E+00 0.564E+00 0.528E+00   -.113E-03 0.118E-03 -.346E-03
   -.250E+02 -.581E+01 0.135E+02   0.239E+02 0.608E+01 -.140E+02   0.106E+01 -.285E+00 0.502E+00   -.560E-04 -.360E-04 -.364E-03
   -.508E+01 0.134E+01 0.652E+01   0.500E+01 -.153E+01 -.648E+01   0.868E-01 0.209E+00 -.266E-01   -.159E-04 0.696E-04 -.152E-03
   -.508E+01 0.405E+01 0.661E+01   0.503E+01 -.438E+01 -.658E+01   0.676E-01 0.312E+00 -.267E-01   -.167E-04 0.194E-04 -.143E-03
   -.611E+01 -.157E+01 0.754E+01   0.611E+01 0.922E+00 -.758E+01   0.247E-01 0.656E+00 0.436E-01   -.215E-04 0.573E-04 -.343E-04
   -.625E+01 0.711E+01 0.672E+01   0.722E+01 -.806E+01 -.671E+01   -.992E+00 0.939E+00 -.911E-02   -.523E-04 0.361E-04 -.848E-05
   0.169E+01 -.316E+01 0.547E+01   -.155E+01 0.301E+01 -.549E+01   -.142E+00 0.163E+00 0.241E-01   0.885E-08 0.200E-04 -.147E-04
   -.184E+01 -.875E+00 0.520E+01   0.233E+01 0.643E+00 -.518E+01   -.478E+00 0.219E+00 -.257E-01   -.332E-04 0.428E-04 0.139E-04
   0.112E+02 -.633E+01 0.600E+01   -.110E+02 0.622E+01 -.612E+01   -.292E+00 0.117E+00 0.116E+00   0.394E-04 0.170E-04 -.221E-03
   0.381E+01 -.957E+01 0.685E+01   -.349E+01 0.959E+01 -.682E+01   -.337E+00 -.215E-01 -.384E-01   0.217E-04 -.306E-04 -.163E-03
   -.726E+01 -.342E+02 0.253E+02   0.135E+02 0.306E+02 -.244E+02   -.624E+01 0.360E+01 -.902E+00   0.761E-04 -.530E-04 -.467E-03
   -.404E+00 -.176E+02 0.124E+02   0.578E+00 0.166E+02 -.126E+02   -.186E+00 0.101E+01 0.242E+00   0.987E-04 -.509E-04 -.350E-03
   0.985E+01 -.333E+02 0.225E+02   -.163E+02 0.295E+02 -.215E+02   0.643E+01 0.380E+01 -.977E+00   -.889E-04 -.376E-04 -.463E-03
   0.501E+01 -.156E+02 0.117E+02   -.569E+01 0.143E+02 -.119E+02   0.712E+00 0.125E+01 0.197E+00   -.488E-04 -.452E-04 -.339E-03
   -.928E+01 -.358E+01 0.758E+01   0.900E+01 0.282E+01 -.771E+01   0.296E+00 0.779E+00 0.126E+00   -.203E-04 0.761E-04 -.224E-03
   -.290E+00 0.733E-01 0.754E+01   -.953E+00 -.101E+01 -.746E+01   0.126E+01 0.941E+00 -.763E-01   0.293E-06 -.328E-04 -.171E-03
   -.155E+01 0.237E+02 0.746E+01   0.151E+01 -.299E+02 -.743E+01   0.479E-01 0.620E+01 -.186E-01   0.266E-04 0.534E-04 -.666E-04
   -.202E+01 -.484E+01 0.947E+01   0.219E+01 0.510E+01 -.958E+01   -.179E+00 -.274E+00 0.114E+00   0.315E-04 -.139E-04 -.479E-04
   -.702E+01 0.200E+01 0.613E+01   0.775E+01 -.238E+01 -.615E+01   -.731E+00 0.378E+00 0.198E-01   -.148E-04 0.561E-04 0.384E-04
   -.105E+02 -.380E+01 0.606E+01   0.119E+02 0.344E+01 -.605E+01   -.139E+01 0.347E+00 -.144E-01   -.228E-04 -.188E-05 0.251E-04
   -.613E+00 -.217E+01 0.636E+01   0.857E+00 0.221E+01 -.638E+01   -.246E+00 -.366E-01 0.190E-01   -.395E-04 0.286E-04 -.376E-04
   -.153E+00 -.496E+01 0.682E+01   0.372E+00 0.497E+01 -.683E+01   -.203E+00 -.310E-01 0.419E-02   -.381E-04 -.412E-05 -.341E-05
   -.196E+01 -.662E+01 0.101E+02   0.246E+01 0.640E+01 -.102E+02   -.510E+00 0.238E+00 0.978E-01   0.190E-04 -.289E-04 -.210E-03
   0.218E+01 -.539E+01 0.860E+01   -.212E+01 0.525E+01 -.862E+01   -.755E-01 0.181E+00 0.179E-01   0.777E-05 -.817E-05 -.104E-03
   0.212E+01 -.615E+01 0.584E+01   -.231E+01 0.547E+01 -.545E+01   0.190E+00 0.687E+00 -.403E+00   0.160E-05 -.116E-03 -.272E-03
   0.191E+01 -.726E+01 0.732E+01   -.215E+01 0.686E+01 -.735E+01   0.233E+00 0.441E+00 0.241E-01   0.134E-04 0.282E-04 -.137E-03
   0.854E+01 -.363E+01 0.987E+01   -.977E+01 0.295E+01 -.996E+01   0.126E+01 0.709E+00 0.806E-01   0.131E-04 0.402E-05 -.198E-03
   0.862E+01 -.555E+01 0.842E+01   -.101E+02 0.499E+01 -.844E+01   0.146E+01 0.587E+00 0.986E-02   0.341E-04 0.126E-04 -.873E-04
   0.996E+00 0.514E+00 -.628E+03   -.945E+00 -.499E+00 0.610E+03   -.499E-01 -.142E-01 0.179E+02   0.404E-04 0.110E-03 -.143E-02
 -----------------------------------------------------------------------------------------------
   0.158E+00 0.142E+00 -.176E+02   0.188E-12 -.677E-12 -.682E-12   -.155E+00 -.128E+00 0.175E+02   0.337E-04 0.335E-04 -.110E-01
 
 
 POSITION                                       TOTAL-FORCE (eV/Angst)
 -----------------------------------------------------------------------------------
     -7.41556     12.74857      7.46510         0.014323      0.023956      0.000794
      0.01132      1.41223      7.46588        -0.002914     -0.037101     -0.000061
      2.46860      0.01875      7.46397        -0.005091      0.011055      0.003150
      2.46968      1.43661      7.47427        -0.000747     -0.024284      0.005452
      4.94253      0.02604      7.46587        -0.002690      0.011765     -0.004226
      4.95055      1.44488      7.47574         0.000009     -0.015482     -0.000973
     -0.00056     12.75378      7.46600        -0.009959      0.022509     -0.000297
      7.42991      1.41955      7.46491         0.011327     -0.027095     -0.001142
      2.48216     12.72737      7.47387         0.009167      0.007618      0.001797
      9.91101      1.39157      7.46307        -0.009849     -0.013658     -0.000361
      4.96319     12.72869      7.47534        -0.001293      0.010263     -0.002302
     12.38441      1.39069      7.46599        -0.003307     -0.014410     -0.004329
     13.61825      2.10152      7.46717         0.013520      0.012828     -0.004366
     -1.24479      3.52606      7.47728        -0.011105      0.005612     -0.000459
      1.23836      2.14695      7.47570        -0.009806     -0.032381      0.000340
      1.23712      3.56627      7.50084        -0.015266     -0.026850     -0.003116
      3.71330      2.16310      7.49137        -0.007892     -0.023436     -0.002233
      3.71392      3.58483      7.53790        -0.001149     -0.005189     -0.012060
      6.19238      2.14356      7.47639        -0.002994     -0.030768     -0.003995
      6.19483      3.56726      7.50057         0.016840     -0.014464     -0.005384
      8.67521      2.11018      7.46282        -0.006338      0.007343     -0.000124
      8.67990      3.52956      7.47041         0.002753     -0.005782      0.004376
     11.14632      2.10197      7.46425         0.013847     -0.001457     -0.003543
     11.14622      3.52318      7.46638        -0.012599      0.007662     -0.006688
     12.37776      4.23467      7.47472         0.027739      0.010898     -0.006447
     -2.48730      5.66250      7.48164        -0.022113     -0.005641     -0.004317
     -0.01620      4.24516      7.50037        -0.008328     -0.001902      0.000052
     -0.04042      5.66159      7.52603        -0.020531     -0.016169     -0.009096
      2.47371      4.30874      7.55076        -0.006770     -0.013310      0.020255
      2.42749      5.72046      7.64161         0.005737     -0.012741      0.024171
      4.95831      4.30798      7.55212        -0.000124     -0.004543      0.009599
      5.00691      5.72217      7.64466        -0.013706      0.003619      0.000762
      7.44692      4.24631      7.49504        -0.000652      0.003914      0.002767
      7.47194      5.66319      7.51929         0.013527     -0.020859     -0.003996
      9.91327      4.23718      7.46866        -0.003130      0.015653     -0.001040
      9.91831      5.66238      7.47369         0.005898     -0.010793      0.001935
     -3.71456      6.37918      7.47390         0.010466      0.019647     -0.005198
     -3.71600      7.80332      7.47398        -0.001877     -0.021082     -0.005641
     -1.26854      6.37580      7.50530        -0.002737      0.009683     -0.002853
     -1.26898      7.79874      7.50495        -0.023864     -0.009148     -0.002467
      1.17963      6.36812      7.57745         0.008316     -0.006328      0.010988
      1.17908      7.80433      7.57753         0.002739      0.001642      0.008431
      6.25365      6.37066      7.57817        -0.011746      0.004755      0.002264
      6.25613      7.81005      7.57765        -0.002916     -0.006074      0.009288
      8.69886      6.37658      7.49379         0.013836      0.019093      0.005594
      8.69919      7.80098      7.49341         0.014295     -0.015524      0.002510
     -4.94497      8.52021      7.47362         0.019853      0.010676      0.000899
     -4.94871      9.94971      7.46847        -0.024125     -0.004621     -0.000191
     -2.48908      8.51235      7.48170        -0.003314      0.006607     -0.003704
     -2.48329      9.93804      7.47469         0.010598     -0.012230     -0.005560
     -0.04030      8.51170      7.52542        -0.012355      0.012757     -0.006056
     -0.01494      9.92873      7.50027        -0.015764      0.007664     -0.000155
      2.42761      8.45137      7.64213         0.012153     -0.000862      0.015354
      2.47522      9.86416      7.55062         0.000401      0.009437      0.016648
      5.01010      8.45141      7.64753        -0.013386      0.008373      0.024608
      4.96295      9.86568      7.55212         0.009466      0.003650      0.017198
      7.47780      8.51810      7.51779         0.010769      0.020885     -0.006048
      7.45005      9.93935      7.49510         0.019141      0.012261      0.001661
     -6.17841     10.65796      7.47140         0.007761      0.002476      0.007484
     -6.18296     12.06333      7.46362        -0.009774     -0.006580      0.004748
     -3.71090     10.64895      7.46612        -0.001612      0.006259     -0.005553
     -3.72466     12.06771      7.46423        -0.011644     -0.007755     -0.003022
     -1.24808     10.64597      7.47744        -0.002041      0.004213     -0.000099
     -1.24810     12.06349      7.46730         0.016342     -0.014667     -0.003277
      1.23714     10.60652      7.50098        -0.013540      0.019441     -0.002791
      1.23944     12.02921      7.47582        -0.009953      0.035572     -0.000433
      3.71808     10.58519      7.53759         0.005057      0.005014     -0.011778
      3.72268     12.00275      7.49098        -0.005839      0.030455     -0.006153
      6.19401     10.60381      7.50038         0.025909      0.027774     -0.007701
      6.20726     12.02708      7.47582         0.020954      0.028733     -0.005895
      3.71586      7.08660      8.32291         0.002099      0.001426     -0.037999
 -----------------------------------------------------------------------------------
    total drift:                                0.002948      0.014142     -0.019543


--------------------------------------------------------------------------------------------------------



  FREE ENERGIE OF THE ION-ELECTRON SYSTEM (eV)
  ---------------------------------------------------
  free  energy   TOTEN  =      -653.41425670 eV

  energy  without entropy=     -653.38855855  energy(sigma->0) =     -653.40140762
 
 d Force = 0.1183946E-02[ 0.259E-03, 0.211E-02]  d Energy = 0.1258582E-02-0.746E-04
 d Force =-0.1847751E+01[-0.184E+01,-0.185E+01]  d Ewald  =-0.8143474E+01 0.630E+01


--------------------------------------------------------------------------------------------------------


    POTLOK:  cpu time    0.5469: real time    0.5529


--------------------------------------------------------------------------------------------------------


 Conjugate gradient step on ions:
 trial-energy change:   -0.001259  1 .order   -0.001209   -0.002179   -0.000239
  (g-gl).g = 0.287E-02      g.g   = 0.292E-02  gl.gl    = 0.616E-02
 g(Force)  = 0.277E-02   g(Stress)= 0.150E-03 ortho     = 0.566E-04
 gamma     =   0.46695
 trial     =   0.73863
 opt step  =   0.81636  (harmonic =   0.82957) maximal distance =0.00233263
 next E    =  -653.414269   (d E  =  -0.00127)


--------------------------------------------------------------------------------------------------------


  
 reached required accuracy - stopping structural energy minimisation
     LOOP+:  cpu time  194.2343: real time  195.7075
    4ORBIT:  cpu time    0.0000: real time    0.0000

 total amount of memory used by VASP MPI-rank0   135467. kBytes
=======================================================================

   base      :      30000. kBytes
   nonlr-proj:      10478. kBytes
   fftplans  :      14072. kBytes
   grid      :      39398. kBytes
   one-center:        186. kBytes
   wavefun   :      41333. kBytes
 
  
  
 General timing and accounting informations for this job:
 ========================================================
  
                  Total CPU time used (sec):     6905.601
                            User time (sec):     6815.045
                          System time (sec):       90.556
                         Elapsed time (sec):     6967.964
  
                   Maximum memory used (kb):      753196.
                   Average memory used (kb):           0.
  
                          Minor page faults:     14207285
                          Major page faults:           45
                 Voluntary context switches:        50461
