       N       E                     dE             d eps       ncg     rms          ort
DAV:   1     0.268877590334E+04    0.26888E+04   -0.10976E+05   688   0.122E+03
DAV:   2    -0.264962067085E+01   -0.26914E+04   -0.25950E+04   688   0.306E+02
DAV:   3    -0.507955208404E+03   -0.50531E+03   -0.50155E+03   688   0.149E+02
DAV:   4    -0.527957716449E+03   -0.20003E+02   -0.19497E+02   688   0.412E+01
DAV:   5    -0.528764343132E+03   -0.80663E+00   -0.79731E+00   688   0.658E+00
SDA:   6    -0.445106324955E+03    0.83658E+02   -0.79731E+00   688   0.214E+03 0.000E+00
CGA:   7    -0.482943996433E+03   -0.37838E+02   -0.37867E+02   688   0.281E+02 0.990E+00
CGA:   8    -0.487168668334E+03   -0.42247E+01   -0.43156E+01   688   0.113E+02-0.149E+00
CGA:   9    -0.489068785199E+03   -0.19001E+01   -0.19038E+01   688   0.289E+01 0.288E-02
CGA:  10    -0.489797459790E+03   -0.72867E+00   -0.72878E+00   688   0.981E+00-0.857E-03
CGA:  11    -0.490093369533E+03   -0.29591E+00   -0.29677E+00   688   0.368E+00-0.765E-02
CGA:  12    -0.490188504354E+03   -0.95135E-01   -0.95288E-01   688   0.207E+00-0.204E-02
CGA:  13    -0.490226077615E+03   -0.37573E-01   -0.37512E-01   688   0.818E-01-0.898E-03
CGA:  14    -0.490248326373E+03   -0.22249E-01   -0.22233E-01   688   0.274E-01 0.140E-03
CGA:  15    -0.490257278133E+03   -0.89518E-02   -0.89155E-02   688   0.112E-01 0.237E-03
CGA:  16    -0.490260529273E+03   -0.32511E-02   -0.32418E-02   688   0.639E-02 0.845E-04
CGA:  17    -0.490262132053E+03   -0.16028E-02   -0.16019E-02   688   0.330E-02 0.130E-04
CGA:  18    -0.490263078480E+03   -0.94643E-03   -0.94547E-03   688   0.205E-02 0.705E-05
CGA:  19    -0.490263643236E+03   -0.56476E-03   -0.56318E-03   688   0.121E-02 0.185E-04
CGA:  20    -0.490264051044E+03   -0.40781E-03   -0.40705E-03   688   0.685E-03 0.612E-05
CGA:  21    -0.490264333358E+03   -0.28231E-03   -0.28109E-03   688   0.612E-03 0.631E-05
CGA:  22    -0.490264528738E+03   -0.19538E-03   -0.19560E-03   688   0.699E-03-0.235E-05
CGA:  23    -0.490264828618E+03   -0.29988E-03   -0.29949E-03   688   0.676E-03 0.283E-05
CGA:  24    -0.490265312472E+03   -0.48385E-03   -0.54107E-03   688   0.132E-02-0.122E-03
CGA:  25    -0.490265622212E+03   -0.30974E-03   -0.30997E-03   688   0.106E-02 0.145E-05
CGA:  26    -0.490265959842E+03   -0.33763E-03   -0.33607E-03   688   0.669E-03 0.160E-04
CGA:  27    -0.490266160915E+03   -0.20107E-03   -0.20070E-03   688   0.485E-03 0.175E-04
CGA:  28    -0.490266311515E+03   -0.15060E-03   -0.15046E-03   688   0.348E-03 0.527E-05
CGA:  29    -0.490266421695E+03   -0.11018E-03   -0.10994E-03   688   0.239E-03 0.459E-05
CGA:  30    -0.490266500254E+03   -0.78559E-04   -0.79088E-04   688   0.208E-03-0.922E-05
   1 F= -.49443558E+03 E0= -.49441391E+03  d E =-.494436E+03  mag=     0.4698
       N       E                     dE             d eps       ncg     rms          ort
SDA:   1    -0.478006319829E+03    0.12260E+02    0.00000E+00   688   0.332E+02 0.000E+00
CGA:   2    -0.487513298841E+03   -0.95070E+01   -0.95059E+01   688   0.104E+02-0.203E+00
CGA:   3    -0.490027497314E+03   -0.25142E+01   -0.25172E+01   688   0.246E+01 0.196E-01
CGA:   4    -0.490517224221E+03   -0.48973E+00   -0.48985E+00   688   0.564E+00 0.111E-03
CGA:   5    -0.490637845196E+03   -0.12062E+00   -0.12055E+00   688   0.118E+00-0.345E-04
CGA:   6    -0.490666028074E+03   -0.28183E-01   -0.28186E-01   688   0.332E-01 0.601E-06
CGA:   7    -0.490676322570E+03   -0.10294E-01   -0.10296E-01   688   0.135E-01-0.213E-04
CGA:   8    -0.490680895469E+03   -0.45729E-02   -0.45727E-02   688   0.626E-02 0.921E-05
CGA:   9    -0.490682868935E+03   -0.19735E-02   -0.19733E-02   688   0.234E-02 0.892E-05
CGA:  10    -0.490683534523E+03   -0.66559E-03   -0.66559E-03   688   0.921E-03-0.338E-05
CGA:  11    -0.490683773020E+03   -0.23850E-03   -0.23841E-03   688   0.361E-03-0.278E-05
CGA:  12    -0.490683891125E+03   -0.11810E-03   -0.11820E-03   688   0.164E-03-0.186E-05
CGA:  13    -0.490683959808E+03   -0.68684E-04   -0.68688E-04   688   0.111E-03-0.301E-06
   2 F= -.49486503E+03 E0= -.49484217E+03  d E =-.429455E+00  mag=     0.3989
       N       E                     dE             d eps       ncg     rms          ort
SDA:   1    -0.490325556246E+03    0.35833E+00    0.00000E+00   688   0.981E+00 0.000E+00
CGA:   2    -0.490610332502E+03   -0.28478E+00   -0.28479E+00   688   0.305E+00 0.882E-03
CGA:   3    -0.490684933581E+03   -0.74601E-01   -0.74577E-01   688   0.719E-01-0.147E-03
CGA:   4    -0.490699634954E+03   -0.14701E-01   -0.14702E-01   688   0.152E-01-0.321E-05
CGA:   5    -0.490702991229E+03   -0.33563E-02   -0.33547E-02   688   0.329E-02-0.219E-04
CGA:   6    -0.490703765808E+03   -0.77458E-03   -0.77496E-03   688   0.104E-02 0.832E-05
CGA:   7    -0.490704069302E+03   -0.30349E-03   -0.30350E-03   688   0.442E-03-0.858E-06
CGA:   8    -0.490704211008E+03   -0.14171E-03   -0.14173E-03   688   0.198E-03-0.578E-06
CGA:   9    -0.490704273613E+03   -0.62606E-04   -0.62657E-04   688   0.758E-04-0.163E-05
   3 F= -.49488348E+03 E0= -.49486041E+03  d E =-.447898E+00  mag=     0.4045
       N       E                     dE             d eps       ncg     rms          ort
SDA:   1    -0.482701915182E+03    0.80023E+01    0.00000E+00   688   0.215E+02 0.000E+00
CGA:   2    -0.488670912402E+03   -0.59690E+01   -0.59682E+01   688   0.823E+01-0.458E-01
CGA:   3    -0.490366227481E+03   -0.16953E+01   -0.17373E+01   688   0.218E+01 0.921E-01
CGA:   4    -0.490806961953E+03   -0.44073E+00   -0.44034E+00   688   0.438E+00-0.671E-03
CGA:   5    -0.490904130137E+03   -0.97168E-01   -0.97127E-01   688   0.106E+00-0.141E-03
CGA:   6    -0.490928231301E+03   -0.24101E-01   -0.24110E-01   688   0.296E-01 0.335E-04
CGA:   7    -0.490936896603E+03   -0.86653E-02   -0.86645E-02   688   0.121E-01 0.160E-04
CGA:   8    -0.490940706504E+03   -0.38099E-02   -0.38087E-02   688   0.563E-02 0.275E-04
CGA:   9    -0.490942382883E+03   -0.16764E-02   -0.16761E-02   688   0.224E-02 0.125E-04
CGA:  10    -0.490942988148E+03   -0.60526E-03   -0.60534E-03   688   0.824E-03 0.925E-05
CGA:  11    -0.490943204260E+03   -0.21611E-03   -0.21616E-03   688   0.315E-03 0.313E-05
CGA:  12    -0.490943295733E+03   -0.91472E-04   -0.91479E-04   688   0.127E-03-0.635E-06
   4 F= -.49513866E+03 E0= -.49511477E+03  d E =-.255178E+00  mag=     0.4629
       N       E                     dE             d eps       ncg     rms          ort
SDA:   1    -0.490717959589E+03    0.22524E+00    0.00000E+00   688   0.625E+00 0.000E+00
CGA:   2    -0.490893754483E+03   -0.17579E+00   -0.17579E+00   688   0.216E+00 0.178E-03
CGA:   3    -0.490943516598E+03   -0.49762E-01   -0.49676E-01   688   0.534E-01-0.513E-03
CGA:   4    -0.490954667605E+03   -0.11151E-01   -0.11150E-01   688   0.108E-01 0.763E-05
CGA:   5    -0.490957073328E+03   -0.24057E-02   -0.24055E-02   688   0.263E-02-0.488E-05
CGA:   6    -0.490957694084E+03   -0.62076E-03   -0.62088E-03   688   0.787E-03 0.356E-05
CGA:   7    -0.490957930447E+03   -0.23636E-03   -0.23630E-03   688   0.324E-03 0.221E-05
CGA:   8    -0.490958036999E+03   -0.10655E-03   -0.10671E-03   688   0.142E-03-0.272E-05
CGA:   9    -0.490958080005E+03   -0.43007E-04   -0.43019E-04   688   0.504E-04-0.388E-06
   5 F= -.49515086E+03 E0= -.49512725E+03  d E =-.267383E+00  mag=     0.4754
       N       E                     dE             d eps       ncg     rms          ort
SDA:   1    -0.488722094606E+03    0.22359E+01    0.00000E+00   688   0.588E+01 0.000E+00
CGA:   2    -0.490482472200E+03   -0.17604E+01   -0.17604E+01   688   0.200E+01-0.197E-02
CGA:   3    -0.490972326504E+03   -0.48985E+00   -0.48986E+00   688   0.518E+00-0.181E-03
CGA:   4    -0.491066692312E+03   -0.94366E-01   -0.94493E-01   688   0.113E+00-0.808E-04
CGA:   5    -0.491092403587E+03   -0.25711E-01   -0.25709E-01   688   0.303E-01 0.202E-04
CGA:   6    -0.491100279929E+03   -0.78763E-02   -0.78765E-02   688   0.111E-01 0.559E-05
CGA:   7    -0.491103756447E+03   -0.34765E-02   -0.34758E-02   688   0.507E-02 0.145E-04
CGA:   8    -0.491105350420E+03   -0.15940E-02   -0.15933E-02   688   0.213E-02 0.158E-04
CGA:   9    -0.491105941584E+03   -0.59116E-03   -0.59113E-03   688   0.855E-03 0.936E-05
CGA:  10    -0.491106151598E+03   -0.21001E-03   -0.21009E-03   688   0.323E-03 0.198E-05
CGA:  11    -0.491106242946E+03   -0.91348E-04   -0.91345E-04   688   0.111E-03 0.215E-06
   6 F= -.49530711E+03 E0= -.49528360E+03  d E =-.156253E+00  mag=     0.5030
       N       E                     dE             d eps       ncg     rms          ort
SDA:   1    -0.490779200041E+03    0.32695E+00    0.00000E+00   688   0.827E+00 0.000E+00
CGA:   2    -0.491029321100E+03   -0.25012E+00   -0.25013E+00   688   0.274E+00-0.132E-03
CGA:   3    -0.491098714529E+03   -0.69393E-01   -0.69397E-01   688   0.618E-01 0.766E-04
CGA:   4    -0.491110931391E+03   -0.12217E-01   -0.12218E-01   688   0.136E-01 0.536E-05
CGA:   5    -0.491114123455E+03   -0.31921E-02   -0.31926E-02   688   0.378E-02 0.139E-04
CGA:   6    -0.491115108663E+03   -0.98521E-03   -0.98522E-03   688   0.152E-02 0.690E-06
CGA:   7    -0.491115569147E+03   -0.46048E-03   -0.46031E-03   688   0.719E-03 0.486E-05
CGA:   8    -0.491115795658E+03   -0.22651E-03   -0.22631E-03   688   0.295E-03 0.486E-05
CGA:   9    -0.491115885573E+03   -0.89915E-04   -0.89828E-04   688   0.107E-03 0.308E-05
   7 F= -.49531949E+03 E0= -.49529606E+03  d E =-.168624E+00  mag=     0.5217
       N       E                     dE             d eps       ncg     rms          ort
SDA:   1    -0.489213674289E+03    0.19021E+01    0.00000E+00   688   0.498E+01 0.000E+00
CGA:   2    -0.490722395550E+03   -0.15087E+01   -0.15083E+01   688   0.168E+01 0.871E-02
CGA:   3    -0.491109994859E+03   -0.38760E+00   -0.38736E+00   688   0.390E+00-0.116E-02
CGA:   4    -0.491187123338E+03   -0.77128E-01   -0.77218E-01   688   0.833E-01 0.141E-03
CGA:   5    -0.491204933246E+03   -0.17810E-01   -0.17810E-01   688   0.238E-01 0.319E-04
CGA:   6    -0.491210763600E+03   -0.58304E-02   -0.58306E-02   688   0.730E-02 0.464E-05
CGA:   7    -0.491213089491E+03   -0.23259E-02   -0.23256E-02   688   0.313E-02 0.346E-05
CGA:   8    -0.491214101814E+03   -0.10123E-02   -0.10119E-02   688   0.145E-02 0.601E-05
CGA:   9    -0.491214499094E+03   -0.39728E-03   -0.39727E-03   688   0.611E-03 0.419E-05
CGA:  10    -0.491214659379E+03   -0.16029E-03   -0.16031E-03   688   0.214E-03 0.215E-05
CGA:  11    -0.491214724088E+03   -0.64709E-04   -0.64699E-04   688   0.754E-04 0.329E-06
   8 F= -.49542696E+03 E0= -.49540377E+03  d E =-.107474E+00  mag=     0.5475
       N       E                     dE             d eps       ncg     rms          ort
SDA:   1    -0.489192119884E+03    0.20225E+01    0.00000E+00   688   0.511E+01 0.000E+00
CGA:   2    -0.490742485877E+03   -0.15504E+01   -0.15499E+01   688   0.172E+01 0.854E-02
CGA:   3    -0.491139754583E+03   -0.39727E+00   -0.39703E+00   688   0.400E+00-0.110E-02
CGA:   4    -0.491218645170E+03   -0.78891E-01   -0.78986E-01   688   0.853E-01 0.134E-03
CGA:   5    -0.491237009939E+03   -0.18365E-01   -0.18366E-01   688   0.240E-01 0.377E-04
CGA:   6    -0.491242936208E+03   -0.59263E-02   -0.59265E-02   688   0.742E-02 0.466E-05
CGA:   7    -0.491245316077E+03   -0.23799E-02   -0.23797E-02   688   0.319E-02 0.237E-05
CGA:   8    -0.491246350193E+03   -0.10341E-02   -0.10337E-02   688   0.147E-02 0.638E-05
CGA:   9    -0.491246754512E+03   -0.40432E-03   -0.40432E-03   688   0.615E-03 0.358E-05
CGA:  10    -0.491246918819E+03   -0.16431E-03   -0.16432E-03   688   0.213E-03 0.214E-05
CGA:  11    -0.491246984222E+03   -0.65403E-04   -0.65394E-04   688   0.764E-04 0.267E-06
   9 F= -.49546638E+03 E0= -.49544334E+03  d E =-.146892E+00  mag=     0.5698
       N       E                     dE             d eps       ncg     rms          ort
SDA:   1    -0.490756365138E+03    0.49055E+00    0.00000E+00   688   0.140E+01 0.000E+00
CGA:   2    -0.491169614350E+03   -0.41325E+00   -0.41322E+00   688   0.472E+00 0.877E-03
CGA:   3    -0.491278129740E+03   -0.10852E+00   -0.10831E+00   688   0.107E+00-0.113E-02
CGA:   4    -0.491300076896E+03   -0.21947E-01   -0.21943E-01   688   0.202E-01-0.164E-05
CGA:   5    -0.491304782406E+03   -0.47055E-02   -0.47063E-02   688   0.561E-02 0.138E-04
CGA:   6    -0.491306109189E+03   -0.13268E-02   -0.13270E-02   688   0.181E-02 0.581E-05
CGA:   7    -0.491306652248E+03   -0.54306E-03   -0.54312E-03   688   0.753E-03-0.187E-05
CGA:   8    -0.491306893365E+03   -0.24112E-03   -0.24120E-03   688   0.332E-03-0.171E-05
CGA:   9    -0.491306995777E+03   -0.10241E-03   -0.10233E-03   688   0.119E-03 0.244E-05
CGA:  10    -0.491307033297E+03   -0.37521E-04   -0.37523E-04   688   0.429E-04-0.651E-07
  10 F= -.49552850E+03 E0= -.49550548E+03  d E =-.621259E-01  mag=     0.5789
       N       E                     dE             d eps       ncg     rms          ort
SDA:   1    -0.486412815246E+03    0.48942E+01    0.00000E+00   688   0.128E+02 0.000E+00
CGA:   2    -0.490110655902E+03   -0.36978E+01   -0.36972E+01   688   0.446E+01 0.331E-01
CGA:   3    -0.491111067000E+03   -0.10004E+01   -0.99603E+00   688   0.113E+01-0.183E-01
CGA:   4    -0.491326460900E+03   -0.21539E+00   -0.21584E+00   688   0.235E+00 0.405E-03
CGA:   5    -0.491375796912E+03   -0.49336E-01   -0.49365E-01   688   0.640E-01 0.151E-03
CGA:   6    -0.491390796422E+03   -0.15000E-01   -0.15000E-01   688   0.182E-01-0.230E-05
CGA:   7    -0.491396289904E+03   -0.54935E-02   -0.54944E-02   688   0.776E-02-0.163E-04
CGA:   8    -0.491398555321E+03   -0.22654E-02   -0.22653E-02   688   0.378E-02 0.551E-05
CGA:   9    -0.491399599605E+03   -0.10443E-02   -0.10443E-02   688   0.145E-02 0.184E-05
CGA:  10    -0.491400039854E+03   -0.44025E-03   -0.44015E-03   688   0.470E-03 0.338E-05
CGA:  11    -0.491400198906E+03   -0.15905E-03   -0.15916E-03   688   0.151E-03-0.156E-05
CGA:  12    -0.491400257768E+03   -0.58862E-04   -0.58931E-04   688   0.600E-04-0.603E-06
  11 F= -.49562603E+03 E0= -.49560291E+03  d E =-.159656E+00  mag=     0.5881
       N       E                     dE             d eps       ncg     rms          ort
SDA:   1    -0.490574095929E+03    0.82610E+00    0.00000E+00   688   0.228E+01 0.000E+00
CGA:   2    -0.491263415143E+03   -0.68932E+00   -0.68930E+00   688   0.727E+00 0.576E-03
CGA:   3    -0.491434375539E+03   -0.17096E+00   -0.17087E+00   688   0.168E+00-0.415E-03
CGA:   4    -0.491469133591E+03   -0.34758E-01   -0.34744E-01   688   0.327E-01-0.262E-04
CGA:   5    -0.491476763872E+03   -0.76303E-02   -0.76331E-02   688   0.939E-02 0.291E-04
CGA:   6    -0.491479065773E+03   -0.23019E-02   -0.23020E-02   688   0.318E-02 0.125E-05
CGA:   7    -0.491480099984E+03   -0.10342E-02   -0.10344E-02   688   0.136E-02-0.382E-05
CGA:   8    -0.491480572512E+03   -0.47253E-03   -0.47275E-03   688   0.602E-03-0.342E-05
CGA:   9    -0.491480762057E+03   -0.18955E-03   -0.18945E-03   688   0.214E-03 0.295E-05
CGA:  10    -0.491480831847E+03   -0.69790E-04   -0.69848E-04   688   0.721E-04-0.142E-05
  12 F= -.49570597E+03 E0= -.49568273E+03  d E =-.799380E-01  mag=     0.6172
       N       E                     dE             d eps       ncg     rms          ort
SDA:   1    -0.486214909407E+03    0.52659E+01    0.00000E+00   688   0.136E+02 0.000E+00
CGA:   2    -0.490243403325E+03   -0.40285E+01   -0.40282E+01   688   0.453E+01 0.180E-01
CGA:   3    -0.491259893345E+03   -0.10165E+01   -0.10155E+01   688   0.120E+01-0.204E-02
CGA:   4    -0.491487657735E+03   -0.22776E+00   -0.22833E+00   688   0.247E+00 0.174E-03
CGA:   5    -0.491541661700E+03   -0.54004E-01   -0.54018E-01   688   0.650E-01 0.989E-04
CGA:   6    -0.491557891118E+03   -0.16229E-01   -0.16229E-01   688   0.208E-01-0.147E-04
CGA:   7    -0.491564220628E+03   -0.63295E-02   -0.63298E-02   688   0.102E-01-0.871E-05
CGA:   8    -0.491567028049E+03   -0.28074E-02   -0.28075E-02   688   0.494E-02 0.189E-04
CGA:   9    -0.491568466372E+03   -0.14383E-02   -0.14382E-02   688   0.177E-02 0.688E-05
CGA:  10    -0.491569039196E+03   -0.57282E-03   -0.57271E-03   688   0.598E-03 0.244E-05
CGA:  11    -0.491569244206E+03   -0.20501E-03   -0.20517E-03   688   0.215E-03-0.255E-05
CGA:  12    -0.491569327173E+03   -0.82966E-04   -0.82858E-04   688   0.963E-04 0.105E-05
  13 F= -.49579164E+03 E0= -.49576847E+03  d E =-.165606E+00  mag=     0.6883
       N       E                     dE             d eps       ncg     rms          ort
SDA:   1    -0.491529907075E+03    0.39337E-01    0.00000E+00   688   0.101E+00 0.000E+00
CGA:   2    -0.491560631947E+03   -0.30725E-01   -0.30725E-01   688   0.325E-01 0.238E-04
CGA:   3    -0.491568165726E+03   -0.75338E-02   -0.75311E-02   688   0.794E-02-0.185E-04
CGA:   4    -0.491569733125E+03   -0.15674E-02   -0.15675E-02   688   0.162E-02 0.249E-05
CGA:   5    -0.491570093258E+03   -0.36013E-03   -0.36007E-03   688   0.469E-03-0.147E-05
CGA:   6    -0.491570207434E+03   -0.11418E-03   -0.11428E-03   688   0.148E-03 0.260E-05
CGA:   7    -0.491570259166E+03   -0.51732E-04   -0.51870E-04   688   0.778E-04-0.206E-05
  14 F= -.49579226E+03 E0= -.49576923E+03  d E =-.166230E+00  mag=     0.7054
       N       E                     dE             d eps       ncg     rms          ort
SDA:   1    -0.490895547366E+03    0.67466E+00    0.00000E+00   688   0.184E+01 0.000E+00
CGA:   2    -0.491440276945E+03   -0.54473E+00   -0.54472E+00   688   0.541E+00 0.367E-03
CGA:   3    -0.491572842710E+03   -0.13257E+00   -0.13249E+00   688   0.129E+00-0.599E-03
CGA:   4    -0.491598984621E+03   -0.26142E-01   -0.26139E-01   688   0.263E-01 0.230E-05
CGA:   5    -0.491605088337E+03   -0.61037E-02   -0.61062E-02   688   0.700E-02 0.206E-04
CGA:   6    -0.491606850994E+03   -0.17627E-02   -0.17628E-02   688   0.253E-02 0.691E-05
CGA:   7    -0.491607631998E+03   -0.78100E-03   -0.78112E-03   688   0.115E-02-0.393E-05
CGA:   8    -0.491608003100E+03   -0.37110E-03   -0.37115E-03   688   0.523E-03-0.113E-05
CGA:   9    -0.491608160275E+03   -0.15717E-03   -0.15714E-03   688   0.190E-03 0.158E-05
CGA:  10    -0.491608218148E+03   -0.57873E-04   -0.57880E-04   688   0.684E-04-0.329E-06
  15 F= -.49582786E+03 E0= -.49580495E+03  d E =-.355932E-01  mag=     0.7310
       N       E                     dE             d eps       ncg     rms          ort
SDA:   1    -0.489627162463E+03    0.19810E+01    0.00000E+00   688   0.518E+01 0.000E+00
CGA:   2    -0.491161938768E+03   -0.15348E+01   -0.15347E+01   688   0.152E+01 0.222E-02
CGA:   3    -0.491536401601E+03   -0.37446E+00   -0.37413E+00   688   0.362E+00-0.284E-02
CGA:   4    -0.491609917145E+03   -0.73516E-01   -0.73518E-01   688   0.733E-01 0.116E-04
CGA:   5    -0.491626884128E+03   -0.16967E-01   -0.16972E-01   688   0.192E-01 0.574E-04
CGA:   6    -0.491631744306E+03   -0.48602E-02   -0.48602E-02   688   0.687E-02 0.501E-06
CGA:   7    -0.491633887593E+03   -0.21433E-02   -0.21433E-02   688   0.298E-02 0.593E-06
CGA:   8    -0.491634901167E+03   -0.10136E-02   -0.10138E-02   688   0.133E-02-0.348E-05
CGA:   9    -0.491635303459E+03   -0.40229E-03   -0.40219E-03   688   0.517E-03 0.425E-05
CGA:  10    -0.491635445438E+03   -0.14198E-03   -0.14198E-03   688   0.196E-03-0.674E-06
CGA:  11    -0.491635499855E+03   -0.54417E-04   -0.54415E-04   688   0.763E-04-0.661E-06
  16 F= -.49585086E+03 E0= -.49582804E+03  d E =-.586019E-01  mag=     0.7589
       N       E                     dE             d eps       ncg     rms          ort
SDA:   1    -0.491030575264E+03    0.60487E+00    0.00000E+00   688   0.161E+01 0.000E+00
CGA:   2    -0.491517912276E+03   -0.48734E+00   -0.48734E+00   688   0.463E+00 0.505E-05
CGA:   3    -0.491633407322E+03   -0.11550E+00   -0.11548E+00   688   0.110E+00-0.137E-03
CGA:   4    -0.491655821061E+03   -0.22414E-01   -0.22414E-01   688   0.224E-01 0.748E-05
CGA:   5    -0.491661023476E+03   -0.52024E-02   -0.52035E-02   688   0.599E-02 0.858E-05
CGA:   6    -0.491662541859E+03   -0.15184E-02   -0.15186E-02   688   0.223E-02 0.862E-05
CGA:   7    -0.491663224766E+03   -0.68291E-03   -0.68297E-03   688   0.104E-02-0.229E-05
CGA:   8    -0.491663559500E+03   -0.33473E-03   -0.33467E-03   688   0.456E-03 0.145E-05
CGA:   9    -0.491663698404E+03   -0.13890E-03   -0.13885E-03   688   0.159E-03 0.215E-05
CGA:  10    -0.491663746073E+03   -0.47670E-04   -0.47673E-04   688   0.555E-04-0.193E-06
  17 F= -.49587855E+03 E0= -.49585580E+03  d E =-.276843E-01  mag=     0.7726
       N       E                     dE             d eps       ncg     rms          ort
SDA:   1    -0.491049406381E+03    0.61429E+00    0.00000E+00   688   0.159E+01 0.000E+00
CGA:   2    -0.491529880209E+03   -0.48047E+00   -0.48047E+00   688   0.456E+00 0.409E-04
CGA:   3    -0.491643798438E+03   -0.11392E+00   -0.11390E+00   688   0.107E+00-0.174E-03
CGA:   4    -0.491665754948E+03   -0.21957E-01   -0.21958E-01   688   0.218E-01 0.951E-05
CGA:   5    -0.491670825906E+03   -0.50710E-02   -0.50718E-02   688   0.584E-02 0.698E-05
CGA:   6    -0.491672327763E+03   -0.15019E-02   -0.15020E-02   688   0.215E-02 0.928E-05
CGA:   7    -0.491673005430E+03   -0.67767E-03   -0.67780E-03   688   0.993E-03-0.333E-05
CGA:   8    -0.491673331367E+03   -0.32594E-03   -0.32579E-03   688   0.433E-03 0.270E-05
CGA:   9    -0.491673463001E+03   -0.13163E-03   -0.13161E-03   688   0.152E-03 0.112E-05
CGA:  10    -0.491673508890E+03   -0.45889E-04   -0.45883E-04   688   0.464E-04 0.254E-06
  18 F= -.49588766E+03 E0= -.49586497E+03  d E =-.367997E-01  mag=     0.7831
       N       E                     dE             d eps       ncg     rms          ort
SDA:   1    -0.491192208604E+03    0.48125E+00    0.00000E+00   688   0.128E+01 0.000E+00
CGA:   2    -0.491575350248E+03   -0.38314E+00   -0.38315E+00   688   0.377E+00-0.283E-03
CGA:   3    -0.491668678944E+03   -0.93329E-01   -0.93335E-01   688   0.882E-01 0.965E-04
CGA:   4    -0.491687214870E+03   -0.18536E-01   -0.18540E-01   688   0.178E-01 0.139E-05
CGA:   5    -0.491691366934E+03   -0.41521E-02   -0.41526E-02   688   0.483E-02 0.122E-04
CGA:   6    -0.491692654900E+03   -0.12880E-02   -0.12879E-02   688   0.174E-02-0.442E-05
CGA:   7    -0.491693209162E+03   -0.55426E-03   -0.55420E-03   688   0.821E-03 0.152E-05
CGA:   8    -0.491693479079E+03   -0.26992E-03   -0.26984E-03   688   0.329E-03 0.153E-05
CGA:   9    -0.491693581649E+03   -0.10257E-03   -0.10253E-03   688   0.106E-03 0.138E-05
CGA:  10    -0.491693613910E+03   -0.32261E-04   -0.32253E-04   688   0.331E-04 0.362E-06
  19 F= -.49590843E+03 E0= -.49588578E+03  d E =-.207654E-01  mag=     0.7966
       N       E                     dE             d eps       ncg     rms          ort
SDA:   1    -0.490930219125E+03    0.76336E+00    0.00000E+00   688   0.198E+01 0.000E+00
CGA:   2    -0.491520094197E+03   -0.58988E+00   -0.58989E+00   688   0.581E+00-0.563E-03
CGA:   3    -0.491663768646E+03   -0.14367E+00   -0.14369E+00   688   0.135E+00 0.168E-03
CGA:   4    -0.491692262487E+03   -0.28494E-01   -0.28502E-01   688   0.274E-01 0.104E-04
CGA:   5    -0.491698647426E+03   -0.63849E-02   -0.63856E-02   688   0.740E-02 0.154E-04
CGA:   6    -0.491700627582E+03   -0.19802E-02   -0.19801E-02   688   0.266E-02-0.494E-05
CGA:   7    -0.491701479577E+03   -0.85200E-03   -0.85191E-03   688   0.125E-02 0.197E-05
CGA:   8    -0.491701892498E+03   -0.41292E-03   -0.41281E-03   688   0.501E-03 0.218E-05
CGA:   9    -0.491702048591E+03   -0.15609E-03   -0.15604E-03   688   0.161E-03 0.174E-05
CGA:  10    -0.491702097791E+03   -0.49200E-04   -0.49191E-04   688   0.491E-04 0.441E-06
  20 F= -.49591764E+03 E0= -.49589509E+03  d E =-.299716E-01  mag=     0.8120
       N       E                     dE             d eps       ncg     rms          ort
SDA:   1    -0.491492182085E+03    0.20987E+00    0.00000E+00   688   0.579E+00 0.000E+00
CGA:   2    -0.491661599650E+03   -0.16942E+00   -0.16942E+00   688   0.168E+00-0.152E-03
CGA:   3    -0.491703462429E+03   -0.41863E-01   -0.41866E-01   688   0.391E-01 0.418E-04
CGA:   4    -0.491711597883E+03   -0.81355E-02   -0.81364E-02   688   0.798E-02 0.629E-05
CGA:   5    -0.491713445133E+03   -0.18472E-02   -0.18477E-02   688   0.201E-02 0.919E-05
CGA:   6    -0.491713986355E+03   -0.54122E-03   -0.54121E-03   688   0.696E-03-0.131E-05
CGA:   7    -0.491714208344E+03   -0.22199E-03   -0.22199E-03   688   0.333E-03-0.932E-07
CGA:   8    -0.491714314313E+03   -0.10597E-03   -0.10591E-03   688   0.142E-03 0.157E-05
CGA:   9    -0.491714357775E+03   -0.43461E-04   -0.43449E-04   688   0.453E-04 0.582E-06
  21 F= -.49593050E+03 E0= -.49590798E+03  d E =-.128602E-01  mag=     0.8176
       N       E                     dE             d eps       ncg     rms          ort
SDA:   1    -0.491126316230E+03    0.58800E+00    0.00000E+00   688   0.155E+01 0.000E+00
CGA:   2    -0.491580198662E+03   -0.45388E+00   -0.45389E+00   688   0.451E+00-0.786E-03
CGA:   3    -0.491692402026E+03   -0.11220E+00   -0.11222E+00   688   0.105E+00 0.149E-03
CGA:   4    -0.491714224437E+03   -0.21822E-01   -0.21825E-01   688   0.212E-01 0.128E-04
CGA:   5    -0.491719145389E+03   -0.49210E-02   -0.49218E-02   688   0.542E-02 0.171E-04
CGA:   6    -0.491720603134E+03   -0.14577E-02   -0.14577E-02   688   0.185E-02-0.310E-05
CGA:   7    -0.491721204932E+03   -0.60180E-03   -0.60175E-03   688   0.847E-03 0.941E-06
CGA:   8    -0.491721488801E+03   -0.28387E-03   -0.28375E-03   688   0.349E-03 0.213E-05
CGA:   9    -0.491721596815E+03   -0.10801E-03   -0.10798E-03   688   0.115E-03 0.130E-05
CGA:  10    -0.491721630421E+03   -0.33605E-04   -0.33606E-04   688   0.386E-04-0.680E-07
  22 F= -.49593871E+03 E0= -.49591621E+03  d E =-.210722E-01  mag=     0.8227
       N       E                     dE             d eps       ncg     rms          ort
SDA:   1    -0.491568289210E+03    0.15331E+00    0.00000E+00   688   0.428E+00 0.000E+00
CGA:   2    -0.491693300142E+03   -0.12501E+00   -0.12501E+00   688   0.124E+00-0.949E-04
CGA:   3    -0.491723680070E+03   -0.30380E-01   -0.30384E-01   688   0.295E-01 0.492E-04
CGA:   4    -0.491729940350E+03   -0.62603E-02   -0.62602E-02   688   0.571E-02-0.544E-05
CGA:   5    -0.491731276820E+03   -0.13365E-02   -0.13368E-02   688   0.151E-02 0.748E-05
CGA:   6    -0.491731679985E+03   -0.40316E-03   -0.40313E-03   688   0.533E-03-0.357E-05
CGA:   7    -0.491731853104E+03   -0.17312E-03   -0.17310E-03   688   0.249E-03 0.437E-06
CGA:   8    -0.491731938862E+03   -0.85758E-04   -0.85716E-04   688   0.100E-03 0.631E-06
  23 F= -.49594927E+03 E0= -.49592680E+03  d E =-.105598E-01  mag=     0.8272
       N       E                     dE             d eps       ncg     rms          ort
SDA:   1    -0.491192352706E+03    0.53950E+00    0.00000E+00   688   0.143E+01 0.000E+00
CGA:   2    -0.491610017140E+03   -0.41766E+00   -0.41767E+00   688   0.415E+00-0.640E-03
CGA:   3    -0.491711522564E+03   -0.10151E+00   -0.10153E+00   688   0.986E-01 0.225E-03
CGA:   4    -0.491732466342E+03   -0.20944E-01   -0.20945E-01   688   0.190E-01-0.474E-05
CGA:   5    -0.491736914537E+03   -0.44482E-02   -0.44488E-02   688   0.521E-02 0.142E-04
CGA:   6    -0.491738263492E+03   -0.13490E-02   -0.13489E-02   688   0.187E-02-0.610E-05
CGA:   7    -0.491738847096E+03   -0.58360E-03   -0.58359E-03   688   0.884E-03 0.450E-06
CGA:   8    -0.491739140161E+03   -0.29307E-03   -0.29295E-03   688   0.372E-03 0.212E-05
CGA:   9    -0.491739256601E+03   -0.11644E-03   -0.11642E-03   688   0.125E-03 0.484E-06
CGA:  10    -0.491739293616E+03   -0.37015E-04   -0.37010E-04   688   0.403E-04 0.361E-06
  24 F= -.49595702E+03 E0= -.49593463E+03  d E =-.183161E-01  mag=     0.8360
       N       E                     dE             d eps       ncg     rms          ort
SDA:   1    -0.491630976384E+03    0.10828E+00    0.00000E+00   688   0.310E+00 0.000E+00
CGA:   2    -0.491720739625E+03   -0.89763E-01   -0.89764E-01   688   0.877E-01-0.183E-04
CGA:   3    -0.491742315846E+03   -0.21576E-01   -0.21577E-01   688   0.212E-01 0.157E-04
CGA:   4    -0.491746764100E+03   -0.44483E-02   -0.44482E-02   688   0.410E-02-0.494E-05
CGA:   5    -0.491747737214E+03   -0.97311E-03   -0.97330E-03   688   0.106E-02 0.384E-05
CGA:   6    -0.491748020934E+03   -0.28372E-03   -0.28371E-03   688   0.377E-03-0.498E-06
CGA:   7    -0.491748141057E+03   -0.12012E-03   -0.12013E-03   688   0.183E-03-0.110E-06
CGA:   8    -0.491748199766E+03   -0.58709E-04   -0.58681E-04   688   0.815E-04 0.668E-06
  25 F= -.49596510E+03 E0= -.49594272E+03  d E =-.807171E-02  mag=     0.8383
       N       E                     dE             d eps       ncg     rms          ort
SDA:   1    -0.490708647706E+03    0.10395E+01    0.00000E+00   688   0.279E+01 0.000E+00
CGA:   2    -0.491516073694E+03   -0.80743E+00   -0.80744E+00   688   0.793E+00-0.581E-03
CGA:   3    -0.491710257330E+03   -0.19418E+00   -0.19419E+00   688   0.193E+00 0.142E-03
CGA:   4    -0.491750646544E+03   -0.40389E-01   -0.40399E-01   688   0.371E-01 0.156E-04
CGA:   5    -0.491759488849E+03   -0.88423E-02   -0.88440E-02   688   0.987E-02 0.233E-04
CGA:   6    -0.491762068821E+03   -0.25800E-02   -0.25799E-02   688   0.353E-02-0.148E-05
CGA:   7    -0.491763163480E+03   -0.10947E-02   -0.10946E-02   688   0.171E-02 0.388E-06
CGA:   8    -0.491763707723E+03   -0.54424E-03   -0.54414E-03   688   0.758E-03 0.253E-05
CGA:   9    -0.491763942409E+03   -0.23469E-03   -0.23467E-03   688   0.249E-03 0.425E-06
CGA:  10    -0.491764020812E+03   -0.78403E-04   -0.78392E-04   688   0.734E-04 0.306E-06
  26 F= -.49597835E+03 E0= -.49595596E+03  d E =-.213308E-01  mag=     0.8431
       N       E                     dE             d eps       ncg     rms          ort
SDA:   1    -0.491659743768E+03    0.10420E+00    0.00000E+00   688   0.280E+00 0.000E+00
CGA:   2    -0.491740805992E+03   -0.81062E-01   -0.81062E-01   688   0.793E-01-0.154E-04
CGA:   3    -0.491760316140E+03   -0.19510E-01   -0.19511E-01   688   0.191E-01 0.131E-04
CGA:   4    -0.491764332261E+03   -0.40161E-02   -0.40160E-02   688   0.371E-02-0.474E-05
CGA:   5    -0.491765209765E+03   -0.87750E-03   -0.87766E-03   688   0.970E-03 0.328E-05
CGA:   6    -0.491765466850E+03   -0.25709E-03   -0.25708E-03   688   0.352E-03-0.221E-06
CGA:   7    -0.491765577151E+03   -0.11030E-03   -0.11032E-03   688   0.177E-03-0.401E-06
CGA:   8    -0.491765632709E+03   -0.55558E-04   -0.55528E-04   688   0.795E-04 0.805E-06
  27 F= -.49597914E+03 E0= -.49595675E+03  d E =-.221127E-01  mag=     0.8466
       N       E                     dE             d eps       ncg     rms          ort
SDA:   1    -0.491608154285E+03    0.15742E+00    0.00000E+00   688   0.434E+00 0.000E+00
CGA:   2    -0.491735783389E+03   -0.12763E+00   -0.12763E+00   688   0.124E+00-0.388E-04
CGA:   3    -0.491766179130E+03   -0.30396E-01   -0.30397E-01   688   0.298E-01 0.140E-04
CGA:   4    -0.491772363745E+03   -0.61846E-02   -0.61847E-02   688   0.577E-02-0.428E-05
CGA:   5    -0.491773728582E+03   -0.13648E-02   -0.13650E-02   688   0.164E-02 0.334E-05
CGA:   6    -0.491774135470E+03   -0.40689E-03   -0.40692E-03   688   0.630E-03 0.127E-05
CGA:   7    -0.491774316033E+03   -0.18056E-03   -0.18058E-03   688   0.300E-03-0.115E-05
CGA:   8    -0.491774412254E+03   -0.96222E-04   -0.96192E-04   688   0.126E-03 0.624E-06
  28 F= -.49598736E+03 E0= -.49596498E+03  d E =-.822099E-02  mag=     0.8474
       N       E                     dE             d eps       ncg     rms          ort
SDA:   1    -0.490331521512E+03    0.14428E+01    0.00000E+00   688   0.379E+01 0.000E+00
CGA:   2    -0.491447986772E+03   -0.11165E+01   -0.11165E+01   688   0.109E+01-0.111E-02
CGA:   3    -0.491713812945E+03   -0.26583E+00   -0.26584E+00   688   0.259E+00 0.231E-03
CGA:   4    -0.491767636484E+03   -0.53824E-01   -0.53837E-01   688   0.505E-01 0.197E-04
CGA:   5    -0.491779650445E+03   -0.12014E-01   -0.12016E-01   688   0.136E-01 0.328E-04
CGA:   6    -0.491783246956E+03   -0.35965E-02   -0.35965E-02   688   0.486E-02-0.234E-05
CGA:   7    -0.491784791197E+03   -0.15442E-02   -0.15441E-02   688   0.228E-02 0.289E-05
CGA:   8    -0.491785545947E+03   -0.75475E-03   -0.75473E-03   688   0.983E-03 0.340E-06
CGA:   9    -0.491785845858E+03   -0.29991E-03   -0.29987E-03   688   0.329E-03 0.158E-05
CGA:  10    -0.491785944798E+03   -0.98940E-04   -0.98945E-04   688   0.994E-04-0.230E-06
  29 F= -.49599719E+03 E0= -.49597482E+03  d E =-.180540E-01  mag=     0.8412
       N       E                     dE             d eps       ncg     rms          ort
SDA:   1    -0.491379924646E+03    0.40592E+00    0.00000E+00   688   0.108E+01 0.000E+00
CGA:   2    -0.491696324674E+03   -0.31640E+00   -0.31640E+00   688   0.321E+00-0.553E-04
CGA:   3    -0.491771654361E+03   -0.75330E-01   -0.75329E-01   688   0.815E-01 0.148E-04
CGA:   4    -0.491788303412E+03   -0.16649E-01   -0.16652E-01   688   0.151E-01-0.105E-04
CGA:   5    -0.491791877256E+03   -0.35738E-02   -0.35742E-02   688   0.394E-02 0.311E-05
CGA:   6    -0.491792914689E+03   -0.10374E-02   -0.10374E-02   688   0.137E-02 0.567E-06
CGA:   7    -0.491793326337E+03   -0.41165E-03   -0.41170E-03   688   0.698E-03-0.186E-05
CGA:   8    -0.491793535923E+03   -0.20959E-03   -0.20957E-03   688   0.314E-03 0.561E-06
CGA:   9    -0.491793632967E+03   -0.97044E-04   -0.97030E-04   688   0.106E-03 0.431E-06
  30 F= -.49600506E+03 E0= -.49598276E+03  d E =-.787302E-02  mag=     0.8412
       N       E                     dE             d eps       ncg     rms          ort
SDA:   1    -0.491767331888E+03    0.26204E-01    0.00000E+00   688   0.692E-01 0.000E+00
CGA:   2    -0.491787668653E+03   -0.20337E-01   -0.20337E-01   688   0.208E-01-0.175E-05
CGA:   3    -0.491792513759E+03   -0.48451E-02   -0.48454E-02   688   0.530E-02 0.402E-05
CGA:   4    -0.491793601499E+03   -0.10877E-02   -0.10875E-02   688   0.982E-03-0.374E-05
CGA:   5    -0.491793829683E+03   -0.22818E-03   -0.22814E-03   688   0.277E-03-0.125E-05
CGA:   6    -0.491793900777E+03   -0.71093E-04   -0.71104E-04   688   0.989E-04 0.698E-06
  31 F= -.49600538E+03 E0= -.49598308E+03  d E =-.818438E-02  mag=     0.8411
       N       E                     dE             d eps       ncg     rms          ort
SDA:   1    -0.491460864115E+03    0.33297E+00    0.00000E+00   688   0.886E+00 0.000E+00
CGA:   2    -0.491720594607E+03   -0.25973E+00   -0.25974E+00   688   0.266E+00-0.348E-03
CGA:   3    -0.491782509046E+03   -0.61914E-01   -0.61938E-01   688   0.696E-01 0.191E-03
CGA:   4    -0.491796395870E+03   -0.13887E-01   -0.13885E-01   688   0.130E-01-0.655E-05
CGA:   5    -0.491799507632E+03   -0.31118E-02   -0.31121E-02   688   0.344E-02 0.562E-05
CGA:   6    -0.491800384019E+03   -0.87639E-03   -0.87642E-03   688   0.132E-02 0.267E-05
CGA:   7    -0.491800739289E+03   -0.35527E-03   -0.35528E-03   688   0.629E-03-0.164E-05
CGA:   8    -0.491800938486E+03   -0.19920E-03   -0.19919E-03   688   0.267E-03 0.122E-06
CGA:   9    -0.491801020101E+03   -0.81615E-04   -0.81568E-04   688   0.114E-03 0.126E-05
  32 F= -.49601310E+03 E0= -.49599087E+03  d E =-.772359E-02  mag=     0.8418
       N       E                     dE             d eps       ncg     rms          ort
SDA:   1    -0.491715090946E+03    0.85848E-01    0.00000E+00   688   0.226E+00 0.000E+00
CGA:   2    -0.491781186243E+03   -0.66095E-01   -0.66097E-01   688   0.685E-01-0.423E-04
CGA:   3    -0.491796955910E+03   -0.15770E-01   -0.15773E-01   688   0.182E-01 0.269E-04
CGA:   4    -0.491800582840E+03   -0.36269E-02   -0.36266E-02   688   0.327E-02-0.251E-05
CGA:   5    -0.491801360661E+03   -0.77782E-03   -0.77784E-03   688   0.897E-03 0.102E-06
CGA:   6    -0.491801581236E+03   -0.22057E-03   -0.22061E-03   688   0.346E-03 0.202E-05
CGA:   7    -0.491801674194E+03   -0.92959E-04   -0.92964E-04   688   0.161E-03-0.107E-05
  33 F= -.49601404E+03 E0= -.49599184E+03  d E =-.866809E-02  mag=     0.8427
       N       E                     dE             d eps       ncg     rms          ort
SDA:   1    -0.491675055818E+03    0.12653E+00    0.00000E+00   688   0.342E+00 0.000E+00
CGA:   2    -0.491776527066E+03   -0.10147E+00   -0.10148E+00   688   0.101E+00-0.802E-04
CGA:   3    -0.491800089354E+03   -0.23562E-01   -0.23566E-01   688   0.262E-01 0.450E-04
CGA:   4    -0.491805310446E+03   -0.52211E-02   -0.52205E-02   688   0.499E-02-0.608E-05
CGA:   5    -0.491806508588E+03   -0.11981E-02   -0.11982E-02   688   0.135E-02 0.298E-05
CGA:   6    -0.491806855558E+03   -0.34697E-03   -0.34697E-03   688   0.541E-03 0.839E-08
CGA:   7    -0.491806999697E+03   -0.14414E-03   -0.14414E-03   688   0.266E-03 0.493E-07
CGA:   8    -0.491807081624E+03   -0.81927E-04   -0.81899E-04   688   0.112E-03 0.594E-06
  34 F= -.49601911E+03 E0= -.49599693E+03  d E =-.506533E-02  mag=     0.8461
       N       E                     dE             d eps       ncg     rms          ort
SDA:   1    -0.491295774680E+03    0.51123E+00    0.00000E+00   688   0.133E+01 0.000E+00
CGA:   2    -0.491692479554E+03   -0.39670E+00   -0.39674E+00   688   0.394E+00-0.573E-03
CGA:   3    -0.491784114935E+03   -0.91635E-01   -0.91655E-01   688   0.102E+00 0.225E-03
CGA:   4    -0.491804468890E+03   -0.20354E-01   -0.20353E-01   688   0.192E-01-0.146E-04
CGA:   5    -0.491809032872E+03   -0.45640E-02   -0.45645E-02   688   0.505E-02 0.143E-04
CGA:   6    -0.491810368766E+03   -0.13359E-02   -0.13359E-02   688   0.182E-02-0.389E-05
CGA:   7    -0.491810907856E+03   -0.53909E-03   -0.53897E-03   688   0.890E-03 0.362E-05
CGA:   8    -0.491811182548E+03   -0.27469E-03   -0.27470E-03   688   0.398E-03-0.227E-06
CGA:   9    -0.491811297955E+03   -0.11541E-03   -0.11537E-03   688   0.151E-03 0.155E-05
CGA:  10    -0.491811338420E+03   -0.40466E-04   -0.40465E-04   688   0.521E-04 0.430E-06
  35 F= -.49602267E+03 E0= -.49600053E+03  d E =-.862897E-02  mag=     0.8524
       N       E                     dE             d eps       ncg     rms          ort
SDA:   1    -0.491719649754E+03    0.91648E-01    0.00000E+00   688   0.246E+00 0.000E+00
CGA:   2    -0.491793187260E+03   -0.73538E-01   -0.73540E-01   688   0.754E-01-0.456E-04
CGA:   3    -0.491810553567E+03   -0.17366E-01   -0.17370E-01   688   0.188E-01 0.382E-04
CGA:   4    -0.491814321872E+03   -0.37683E-02   -0.37679E-02   688   0.359E-02-0.371E-05
CGA:   5    -0.491815172262E+03   -0.85039E-03   -0.85052E-03   688   0.927E-03 0.434E-05
CGA:   6    -0.491815415683E+03   -0.24342E-03   -0.24342E-03   688   0.357E-03-0.856E-06
CGA:   7    -0.491815512338E+03   -0.96656E-04   -0.96652E-04   688   0.176E-03 0.473E-06
  36 F= -.49602646E+03 E0= -.49600434E+03  d E =-.379012E-02  mag=     0.8522
       N       E                     dE             d eps       ncg     rms          ort
SDA:   1    -0.490958693197E+03    0.85672E+00    0.00000E+00   688   0.222E+01 0.000E+00
CGA:   2    -0.491618730401E+03   -0.66004E+00   -0.66013E+00   688   0.694E+00-0.175E-02
CGA:   3    -0.491775253033E+03   -0.15652E+00   -0.15662E+00   688   0.180E+00 0.829E-03
CGA:   4    -0.491810594238E+03   -0.35341E-01   -0.35340E-01   688   0.345E-01-0.158E-04
CGA:   5    -0.491818742592E+03   -0.81484E-02   -0.81488E-02   688   0.913E-02 0.198E-04
CGA:   6    -0.491821085382E+03   -0.23428E-02   -0.23428E-02   688   0.342E-02-0.472E-05
CGA:   7    -0.491822031494E+03   -0.94611E-03   -0.94606E-03   688   0.161E-02 0.354E-05
CGA:   8    -0.491822520820E+03   -0.48933E-03   -0.48925E-03   688   0.721E-03 0.162E-05
CGA:   9    -0.491822729604E+03   -0.20878E-03   -0.20877E-03   688   0.277E-03 0.618E-06
CGA:  10    -0.491822806981E+03   -0.77376E-04   -0.77361E-04   688   0.876E-04 0.103E-05
  37 F= -.49603258E+03 E0= -.49601041E+03  d E =-.990296E-02  mag=     0.8458
       N       E                     dE             d eps       ncg     rms          ort
SDA:   1    -0.491761252402E+03    0.61477E-01    0.00000E+00   688   0.160E+00 0.000E+00
CGA:   2    -0.491808881327E+03   -0.47629E-01   -0.47630E-01   688   0.488E-01-0.210E-04
CGA:   3    -0.491820135542E+03   -0.11254E-01   -0.11256E-01   688   0.122E-01 0.208E-04
CGA:   4    -0.491822567146E+03   -0.24316E-02   -0.24313E-02   688   0.239E-02-0.317E-05
CGA:   5    -0.491823115924E+03   -0.54878E-03   -0.54889E-03   688   0.654E-03 0.312E-05
CGA:   6    -0.491823276431E+03   -0.16051E-03   -0.16050E-03   688   0.262E-03-0.272E-06
CGA:   7    -0.491823345572E+03   -0.69140E-04   -0.69141E-04   688   0.122E-03-0.659E-07
  38 F= -.49603279E+03 E0= -.49601059E+03  d E =-.101165E-01  mag=     0.8422
       N       E                     dE             d eps       ncg     rms          ort
SDA:   1    -0.491583950454E+03    0.23933E+00    0.00000E+00   688   0.617E+00 0.000E+00
CGA:   2    -0.491772276523E+03   -0.18833E+00   -0.18833E+00   688   0.194E+00-0.670E-04
CGA:   3    -0.491816058463E+03   -0.43782E-01   -0.43787E-01   688   0.474E-01 0.494E-04
CGA:   4    -0.491825661097E+03   -0.96026E-02   -0.96025E-02   688   0.921E-02-0.140E-04
CGA:   5    -0.491827835630E+03   -0.21745E-02   -0.21747E-02   688   0.252E-02 0.608E-05
CGA:   6    -0.491828499699E+03   -0.66407E-03   -0.66408E-03   688   0.908E-03-0.309E-05
CGA:   7    -0.491828773683E+03   -0.27398E-03   -0.27394E-03   688   0.444E-03 0.117E-05
CGA:   8    -0.491828909066E+03   -0.13538E-03   -0.13541E-03   688   0.200E-03-0.733E-06
CGA:   9    -0.491828967090E+03   -0.58024E-04   -0.58006E-04   688   0.734E-04 0.685E-06
  39 F= -.49603773E+03 E0= -.49601554E+03  d E =-.493771E-02  mag=     0.8350
       N       E                     dE             d eps       ncg     rms          ort
SDA:   1    -0.491791292650E+03    0.37616E-01    0.00000E+00   688   0.967E-01 0.000E+00
CGA:   2    -0.491820792411E+03   -0.29500E-01   -0.29500E-01   688   0.305E-01 0.130E-05
CGA:   3    -0.491827655903E+03   -0.68635E-02   -0.68640E-02   688   0.744E-02 0.686E-05
CGA:   4    -0.491829180609E+03   -0.15247E-02   -0.15244E-02   688   0.139E-02-0.535E-05
CGA:   5    -0.491829507569E+03   -0.32696E-03   -0.32699E-03   688   0.397E-03 0.109E-05
CGA:   6    -0.491829610284E+03   -0.10271E-03   -0.10271E-03   688   0.147E-03-0.589E-06
CGA:   7    -0.491829654145E+03   -0.43861E-04   -0.43865E-04   688   0.724E-04-0.118E-06
  40 F= -.49603814E+03 E0= -.49601593E+03  d E =-.535148E-02  mag=     0.8303
       N       E                     dE             d eps       ncg     rms          ort
SDA:   1    -0.491601814885E+03    0.22780E+00    0.00000E+00   688   0.588E+00 0.000E+00
CGA:   2    -0.491781863993E+03   -0.18005E+00   -0.18005E+00   688   0.181E+00-0.449E-04
CGA:   3    -0.491823859506E+03   -0.41996E-01   -0.41995E-01   688   0.426E-01-0.605E-05
CGA:   4    -0.491832480938E+03   -0.86214E-02   -0.86211E-02   688   0.843E-02-0.796E-05
CGA:   5    -0.491834482348E+03   -0.20014E-02   -0.20016E-02   688   0.232E-02 0.763E-05
CGA:   6    -0.491835090609E+03   -0.60826E-03   -0.60826E-03   688   0.858E-03-0.348E-06
CGA:   7    -0.491835345781E+03   -0.25517E-03   -0.25518E-03   688   0.429E-03-0.238E-06
CGA:   8    -0.491835472245E+03   -0.12646E-03   -0.12646E-03   688   0.187E-03-0.265E-07
CGA:   9    -0.491835528533E+03   -0.56288E-04   -0.56279E-04   688   0.629E-04 0.240E-06
  41 F= -.49604356E+03 E0= -.49602133E+03  d E =-.541597E-02  mag=     0.8202
       N       E                     dE             d eps       ncg     rms          ort
SDA:   1    -0.491493618225E+03    0.34185E+00    0.00000E+00   688   0.867E+00 0.000E+00
CGA:   2    -0.491759158929E+03   -0.26554E+00   -0.26555E+00   688   0.268E+00-0.108E-03
CGA:   3    -0.491821055333E+03   -0.61896E-01   -0.61896E-01   688   0.630E-01 0.661E-06
CGA:   4    -0.491833850825E+03   -0.12795E-01   -0.12795E-01   688   0.123E-01-0.111E-04
CGA:   5    -0.491836739484E+03   -0.28887E-02   -0.28890E-02   688   0.337E-02 0.112E-04
CGA:   6    -0.491837623043E+03   -0.88356E-03   -0.88356E-03   688   0.119E-02-0.198E-05
CGA:   7    -0.491837995988E+03   -0.37295E-03   -0.37290E-03   688   0.555E-03 0.101E-05
CGA:   8    -0.491838174131E+03   -0.17814E-03   -0.17820E-03   688   0.244E-03-0.104E-05
CGA:   9    -0.491838247767E+03   -0.73635E-04   -0.73601E-04   688   0.842E-04 0.101E-05
  42 F= -.49604571E+03 E0= -.49602346E+03  d E =-.756959E-02  mag=     0.8074
       N       E                     dE             d eps       ncg     rms          ort
SDA:   1    -0.491650007476E+03    0.18817E+00    0.00000E+00   688   0.490E+00 0.000E+00
CGA:   2    -0.491799595938E+03   -0.14959E+00   -0.14958E+00   688   0.148E+00 0.829E-04
CGA:   3    -0.491834116474E+03   -0.34521E-01   -0.34518E-01   688   0.348E-01-0.175E-04
CGA:   4    -0.491841250105E+03   -0.71336E-02   -0.71334E-02   688   0.674E-02-0.112E-04
CGA:   5    -0.491842834155E+03   -0.15841E-02   -0.15842E-02   688   0.191E-02 0.512E-05
CGA:   6    -0.491843318573E+03   -0.48442E-03   -0.48441E-03   688   0.709E-03-0.569E-06
CGA:   7    -0.491843524701E+03   -0.20613E-03   -0.20613E-03   688   0.339E-03-0.238E-06
CGA:   8    -0.491843628049E+03   -0.10335E-03   -0.10334E-03   688   0.143E-03 0.249E-06
CGA:   9    -0.491843671776E+03   -0.43727E-04   -0.43721E-04   688   0.491E-04 0.164E-06
  43 F= -.49605098E+03 E0= -.49602866E+03  d E =-.526612E-02  mag=     0.8005
       N       E                     dE             d eps       ncg     rms          ort
SDA:   1    -0.490108772218E+03    0.17349E+01    0.00000E+00   688   0.442E+01 0.000E+00
CGA:   2    -0.491452002395E+03   -0.13432E+01   -0.13431E+01   688   0.136E+01 0.193E-02
CGA:   3    -0.491762656382E+03   -0.31065E+00   -0.31062E+00   688   0.340E+00-0.203E-03
CGA:   4    -0.491829093950E+03   -0.66438E-01   -0.66478E-01   688   0.699E-01 0.100E-04
CGA:   5    -0.491844619754E+03   -0.15526E-01   -0.15525E-01   688   0.192E-01 0.199E-04
CGA:   6    -0.491849478090E+03   -0.48583E-02   -0.48583E-02   688   0.643E-02-0.419E-05
CGA:   7    -0.491851460449E+03   -0.19824E-02   -0.19823E-02   688   0.291E-02 0.946E-06
CGA:   8    -0.491852367542E+03   -0.90709E-03   -0.90697E-03   688   0.131E-02 0.245E-05
CGA:   9    -0.491852730385E+03   -0.36284E-03   -0.36284E-03   688   0.491E-03 0.644E-06
CGA:  10    -0.491852864243E+03   -0.13386E-03   -0.13386E-03   688   0.161E-03 0.291E-06
CGA:  11    -0.491852912929E+03   -0.48686E-04   -0.48697E-04   688   0.585E-04-0.278E-06
  44 F= -.49605971E+03 E0= -.49603740E+03  d E =-.140050E-01  mag=     0.7948
       N       E                     dE             d eps       ncg     rms          ort
SDA:   1    -0.491681346428E+03    0.17152E+00    0.00000E+00   688   0.436E+00 0.000E+00
CGA:   2    -0.491814345718E+03   -0.13300E+00   -0.13300E+00   688   0.132E+00 0.777E-04
CGA:   3    -0.491845167117E+03   -0.30821E-01   -0.30819E-01   688   0.312E-01-0.172E-04
CGA:   4    -0.491851532392E+03   -0.63653E-02   -0.63651E-02   688   0.607E-02-0.931E-05
CGA:   5    -0.491852971837E+03   -0.14394E-02   -0.14396E-02   688   0.164E-02 0.356E-05
CGA:   6    -0.491853398718E+03   -0.42688E-03   -0.42689E-03   688   0.607E-03 0.510E-06
CGA:   7    -0.491853577202E+03   -0.17848E-03   -0.17850E-03   688   0.301E-03-0.814E-06
CGA:   8    -0.491853666359E+03   -0.89157E-04   -0.89148E-04   688   0.127E-03 0.339E-06
  45 F= -.49606030E+03 E0= -.49603796E+03  d E =-.145916E-01  mag=     0.7903
       N       E                     dE             d eps       ncg     rms          ort
SDA:   1    -0.491518344487E+03    0.33523E+00    0.00000E+00   688   0.855E+00 0.000E+00
CGA:   2    -0.491782887033E+03   -0.26454E+00   -0.26455E+00   688   0.262E+00-0.675E-04
CGA:   3    -0.491843014400E+03   -0.60127E-01   -0.60131E-01   688   0.632E-01 0.373E-04
CGA:   4    -0.491855697555E+03   -0.12683E-01   -0.12684E-01   688   0.123E-01-0.111E-04
CGA:   5    -0.491858622070E+03   -0.29245E-02   -0.29248E-02   688   0.332E-02 0.898E-05
CGA:   6    -0.491859483028E+03   -0.86096E-03   -0.86095E-03   688   0.125E-02-0.123E-05
CGA:   7    -0.491859843323E+03   -0.36030E-03   -0.36027E-03   688   0.608E-03 0.115E-05
CGA:   8    -0.491860028593E+03   -0.18527E-03   -0.18527E-03   688   0.258E-03 0.167E-08
CGA:   9    -0.491860107677E+03   -0.79084E-04   -0.79068E-04   688   0.899E-04 0.420E-06
  46 F= -.49606668E+03 E0= -.49604424E+03  d E =-.637571E-02  mag=     0.7878
       N       E                     dE             d eps       ncg     rms          ort
SDA:   1    -0.491657765525E+03    0.20226E+00    0.00000E+00   688   0.510E+00 0.000E+00
CGA:   2    -0.491815497679E+03   -0.15773E+00   -0.15774E+00   688   0.157E+00-0.401E-04
CGA:   3    -0.491851424833E+03   -0.35927E-01   -0.35930E-01   688   0.378E-01 0.254E-04
CGA:   4    -0.491859030407E+03   -0.76056E-02   -0.76054E-02   688   0.734E-02-0.946E-05
CGA:   5    -0.491860767505E+03   -0.17371E-02   -0.17373E-02   688   0.196E-02 0.629E-05
CGA:   6    -0.491861285354E+03   -0.51785E-03   -0.51785E-03   688   0.724E-03-0.591E-06
CGA:   7    -0.491861502080E+03   -0.21673E-03   -0.21670E-03   688   0.352E-03 0.664E-06
CGA:   8    -0.491861611625E+03   -0.10955E-03   -0.10955E-03   688   0.152E-03-0.148E-06
CGA:   9    -0.491861658385E+03   -0.46760E-04   -0.46739E-04   688   0.515E-04 0.538E-06
  47 F= -.49606817E+03 E0= -.49604564E+03  d E =-.786500E-02  mag=     0.7867
       N       E                     dE             d eps       ncg     rms          ort
SDA:   1    -0.491646406297E+03    0.21521E+00    0.00000E+00   688   0.547E+00 0.000E+00
CGA:   2    -0.491815991927E+03   -0.16959E+00   -0.16958E+00   688   0.174E+00 0.764E-04
CGA:   3    -0.491854769362E+03   -0.38777E-01   -0.38774E-01   688   0.419E-01-0.133E-04
CGA:   4    -0.491863324142E+03   -0.85548E-02   -0.85551E-02   688   0.798E-02-0.135E-04
CGA:   5    -0.491865196774E+03   -0.18726E-02   -0.18728E-02   688   0.211E-02 0.494E-05
CGA:   6    -0.491865741250E+03   -0.54448E-03   -0.54446E-03   688   0.740E-03-0.187E-05
CGA:   7    -0.491865962571E+03   -0.22132E-03   -0.22129E-03   688   0.344E-03 0.915E-06
CGA:   8    -0.491866071711E+03   -0.10914E-03   -0.10917E-03   688   0.148E-03-0.589E-06
CGA:   9    -0.491866116631E+03   -0.44920E-04   -0.44898E-04   688   0.506E-04 0.654E-06
  48 F= -.49607189E+03 E0= -.49604935E+03  d E =-.372366E-02  mag=     0.7854
       N       E                     dE             d eps       ncg     rms          ort
SDA:   1    -0.491842346770E+03    0.23725E-01    0.00000E+00   688   0.605E-01 0.000E+00
CGA:   2    -0.491861076285E+03   -0.18730E-01   -0.18729E-01   688   0.193E-01 0.468E-05
CGA:   3    -0.491865366021E+03   -0.42897E-02   -0.42899E-02   688   0.461E-02 0.450E-05
CGA:   4    -0.491866315558E+03   -0.94954E-03   -0.94925E-03   688   0.881E-03-0.488E-05
CGA:   5    -0.491866519881E+03   -0.20432E-03   -0.20436E-03   688   0.244E-03 0.894E-06
CGA:   6    -0.491866581555E+03   -0.61675E-04   -0.61672E-04   688   0.903E-04-0.193E-06
  49 F= -.49607211E+03 E0= -.49604956E+03  d E =-.394314E-02  mag=     0.7847
       N       E                     dE             d eps       ncg     rms          ort
SDA:   1    -0.491751676984E+03    0.11484E+00    0.00000E+00   688   0.294E+00 0.000E+00
CGA:   2    -0.491843627537E+03   -0.91951E-01   -0.91954E-01   688   0.930E-01-0.330E-04
CGA:   3    -0.491864655696E+03   -0.21028E-01   -0.21029E-01   688   0.217E-01 0.110E-04
CGA:   4    -0.491869009204E+03   -0.43535E-02   -0.43535E-02   688   0.454E-02-0.520E-05
CGA:   5    -0.491870054345E+03   -0.10451E-02   -0.10453E-02   688   0.126E-02 0.493E-05
CGA:   6    -0.491870364921E+03   -0.31058E-03   -0.31058E-03   688   0.477E-03 0.368E-06
CGA:   7    -0.491870501001E+03   -0.13608E-03   -0.13609E-03   688   0.216E-03-0.628E-06
CGA:   8    -0.491870569913E+03   -0.68912E-04   -0.68890E-04   688   0.877E-04 0.395E-06
  50 F= -.49607547E+03 E0= -.49605294E+03  d E =-.336473E-02  mag=     0.7808
       N       E                     dE             d eps       ncg     rms          ort
SDA:   1    -0.491434367817E+03    0.43613E+00    0.00000E+00   688   0.109E+01 0.000E+00
CGA:   2    -0.491774890695E+03   -0.34052E+00   -0.34055E+00   688   0.343E+00-0.345E-03
CGA:   3    -0.491852464801E+03   -0.77574E-01   -0.77578E-01   688   0.808E-01 0.450E-04
CGA:   4    -0.491868557850E+03   -0.16093E-01   -0.16096E-01   688   0.158E-01-0.544E-05
CGA:   5    -0.491872348252E+03   -0.37904E-02   -0.37907E-02   688   0.405E-02 0.123E-04
CGA:   6    -0.491873425154E+03   -0.10769E-02   -0.10769E-02   688   0.145E-02-0.251E-05
CGA:   7    -0.491873861427E+03   -0.43627E-03   -0.43621E-03   688   0.684E-03 0.164E-05
CGA:   8    -0.491874071476E+03   -0.21005E-03   -0.21008E-03   688   0.288E-03-0.749E-06
CGA:   9    -0.491874157492E+03   -0.86015E-04   -0.85986E-04   688   0.926E-04 0.943E-06
  51 F= -.49607786E+03 E0= -.49605536E+03  d E =-.574638E-02  mag=     0.7725
       N       E                     dE             d eps       ncg     rms          ort
SDA:   1    -0.491702246251E+03    0.17183E+00    0.00000E+00   688   0.430E+00 0.000E+00
CGA:   2    -0.491839001846E+03   -0.13676E+00   -0.13676E+00   688   0.137E+00 0.202E-04
CGA:   3    -0.491869445338E+03   -0.30443E-01   -0.30441E-01   688   0.316E-01-0.267E-05
CGA:   4    -0.491875912895E+03   -0.64676E-02   -0.64679E-02   688   0.625E-02-0.807E-05
CGA:   5    -0.491877405848E+03   -0.14930E-02   -0.14931E-02   688   0.166E-02 0.571E-05
CGA:   6    -0.491877845684E+03   -0.43984E-03   -0.43983E-03   688   0.625E-03-0.177E-05
CGA:   7    -0.491878034067E+03   -0.18838E-03   -0.18836E-03   688   0.296E-03 0.614E-06
CGA:   8    -0.491878125901E+03   -0.91834E-04   -0.91841E-04   688   0.124E-03-0.155E-06
  52 F= -.49608139E+03 E0= -.49605895E+03  d E =-.353072E-02  mag=     0.7673
       N       E                     dE             d eps       ncg     rms          ort
SDA:   1    -0.491519441750E+03    0.35859E+00    0.00000E+00   688   0.883E+00 0.000E+00
CGA:   2    -0.491800290669E+03   -0.28085E+00   -0.28085E+00   688   0.281E+00 0.536E-04
CGA:   3    -0.491862751342E+03   -0.62461E-01   -0.62453E-01   688   0.653E-01-0.333E-04
CGA:   4    -0.491876051256E+03   -0.13300E-01   -0.13302E-01   688   0.128E-01-0.595E-05
CGA:   5    -0.491879148032E+03   -0.30968E-02   -0.30969E-02   688   0.345E-02 0.760E-05
CGA:   6    -0.491880042816E+03   -0.89478E-03   -0.89477E-03   688   0.134E-02-0.193E-05
CGA:   7    -0.491880427450E+03   -0.38463E-03   -0.38463E-03   688   0.644E-03 0.409E-06
CGA:   8    -0.491880622826E+03   -0.19538E-03   -0.19536E-03   688   0.260E-03 0.367E-06
CGA:   9    -0.491880702676E+03   -0.79850E-04   -0.79835E-04   688   0.809E-04 0.366E-06
  53 F= -.49608333E+03 E0= -.49606099E+03  d E =-.547281E-02  mag=     0.7606
       N       E                     dE             d eps       ncg     rms          ort
SDA:   1    -0.491787469169E+03    0.93154E-01    0.00000E+00   688   0.235E+00 0.000E+00
CGA:   2    -0.491862043905E+03   -0.74575E-01   -0.74575E-01   688   0.767E-01 0.158E-05
CGA:   3    -0.491879126065E+03   -0.17082E-01   -0.17082E-01   688   0.173E-01-0.191E-05
CGA:   4    -0.491882675132E+03   -0.35491E-02   -0.35491E-02   688   0.354E-02-0.468E-05
CGA:   5    -0.491883517227E+03   -0.84210E-03   -0.84217E-03   688   0.917E-03 0.246E-05
CGA:   6    -0.491883765001E+03   -0.24777E-03   -0.24777E-03   688   0.341E-03 0.111E-05
CGA:   7    -0.491883870482E+03   -0.10548E-03   -0.10550E-03   688   0.164E-03-0.493E-06
CGA:   8    -0.491883921010E+03   -0.50528E-04   -0.50530E-04   688   0.677E-04-0.611E-07
  54 F= -.49608632E+03 E0= -.49606396E+03  d E =-.299616E-02  mag=     0.7542
       N       E                     dE             d eps       ncg     rms          ort
SDA:   1    -0.491480161172E+03    0.40371E+00    0.00000E+00   688   0.993E+00 0.000E+00
CGA:   2    -0.491794354923E+03   -0.31419E+00   -0.31420E+00   688   0.325E+00-0.361E-04
CGA:   3    -0.491866413590E+03   -0.72059E-01   -0.72054E-01   688   0.741E-01-0.158E-04
CGA:   4    -0.491881519941E+03   -0.15106E-01   -0.15110E-01   688   0.150E-01 0.358E-06
CGA:   5    -0.491885145940E+03   -0.36260E-02   -0.36261E-02   688   0.381E-02 0.460E-05
CGA:   6    -0.491886192707E+03   -0.10468E-02   -0.10467E-02   688   0.140E-02 0.254E-05
CGA:   7    -0.491886629789E+03   -0.43708E-03   -0.43714E-03   688   0.670E-03-0.132E-05
CGA:   8    -0.491886831243E+03   -0.20145E-03   -0.20144E-03   688   0.281E-03 0.365E-06
CGA:   9    -0.491886914210E+03   -0.82967E-04   -0.82952E-04   688   0.861E-04 0.646E-06
  55 F= -.49608885E+03 E0= -.49606642E+03  d E =-.552495E-02  mag=     0.7453
       N       E                     dE             d eps       ncg     rms          ort
SDA:   1    -0.491800348977E+03    0.86482E-01    0.00000E+00   688   0.220E+00 0.000E+00
CGA:   2    -0.491868907658E+03   -0.68559E-01   -0.68557E-01   688   0.743E-01 0.384E-04
CGA:   3    -0.491885218196E+03   -0.16311E-01   -0.16308E-01   688   0.170E-01-0.930E-05
CGA:   4    -0.491888707660E+03   -0.34895E-02   -0.34895E-02   688   0.345E-02-0.649E-05
CGA:   5    -0.491889533182E+03   -0.82552E-03   -0.82552E-03   688   0.891E-03 0.109E-06
CGA:   6    -0.491889775842E+03   -0.24266E-03   -0.24265E-03   688   0.327E-03 0.206E-05
CGA:   7    -0.491889880107E+03   -0.10427E-03   -0.10433E-03   688   0.154E-03-0.140E-05
CGA:   8    -0.491889928941E+03   -0.48834E-04   -0.48825E-04   688   0.637E-04 0.172E-06
  56 F= -.49609151E+03 E0= -.49606900E+03  d E =-.265572E-02  mag=     0.7364
       N       E                     dE             d eps       ncg     rms          ort
SDA:   1    -0.491608486027E+03    0.28139E+00    0.00000E+00   688   0.698E+00 0.000E+00
CGA:   2    -0.491825599232E+03   -0.21711E+00   -0.21710E+00   688   0.236E+00 0.217E-03
CGA:   3    -0.491877311752E+03   -0.51713E-01   -0.51701E-01   688   0.547E-01-0.488E-04
CGA:   4    -0.491888491220E+03   -0.11179E-01   -0.11182E-01   688   0.109E-01-0.673E-05
CGA:   5    -0.491891145334E+03   -0.26541E-02   -0.26541E-02   688   0.283E-02 0.117E-05
CGA:   6    -0.491891908988E+03   -0.76365E-03   -0.76365E-03   688   0.106E-02 0.309E-05
CGA:   7    -0.491892230499E+03   -0.32151E-03   -0.32157E-03   688   0.507E-03-0.172E-05
CGA:   8    -0.491892383890E+03   -0.15339E-03   -0.15339E-03   688   0.207E-03-0.109E-06
CGA:   9    -0.491892446943E+03   -0.63053E-04   -0.63041E-04   688   0.630E-04 0.377E-06
  57 F= -.49609338E+03 E0= -.49607077E+03  d E =-.452680E-02  mag=     0.7242
       N       E                     dE             d eps       ncg     rms          ort
SDA:   1    -0.491790084723E+03    0.10230E+00    0.00000E+00   688   0.259E+00 0.000E+00
CGA:   2    -0.491870043657E+03   -0.79959E-01   -0.79962E-01   688   0.875E-01-0.505E-04
CGA:   3    -0.491889611175E+03   -0.19568E-01   -0.19568E-01   688   0.200E-01 0.140E-05
CGA:   4    -0.491893619932E+03   -0.40088E-02   -0.40092E-02   688   0.416E-02-0.293E-05
CGA:   5    -0.491894617874E+03   -0.99794E-03   -0.99802E-03   688   0.104E-02 0.272E-05
CGA:   6    -0.491894904459E+03   -0.28659E-03   -0.28658E-03   688   0.376E-03 0.206E-05
CGA:   7    -0.491895024792E+03   -0.12033E-03   -0.12039E-03   688   0.176E-03-0.113E-05
CGA:   8    -0.491895080300E+03   -0.55508E-04   -0.55506E-04   688   0.722E-04 0.562E-07
  58 F= -.49609567E+03 E0= -.49607297E+03  d E =-.228999E-02  mag=     0.7125
       N       E                     dE             d eps       ncg     rms          ort
SDA:   1    -0.491816188069E+03    0.78837E-01    0.00000E+00   688   0.197E+00 0.000E+00
CGA:   2    -0.491876983584E+03   -0.60796E-01   -0.60798E-01   688   0.665E-01-0.320E-04
CGA:   3    -0.491891815237E+03   -0.14832E-01   -0.14832E-01   688   0.153E-01 0.513E-06
CGA:   4    -0.491894880503E+03   -0.30653E-02   -0.30654E-02   688   0.313E-02-0.305E-05
CGA:   5    -0.491895638930E+03   -0.75843E-03   -0.75849E-03   688   0.819E-03 0.249E-05
CGA:   6    -0.491895856122E+03   -0.21719E-03   -0.21720E-03   688   0.315E-03 0.163E-05
CGA:   7    -0.491895949295E+03   -0.93174E-04   -0.93192E-04   688   0.149E-03-0.731E-06
  59 F= -.49609624E+03 E0= -.49607347E+03  d E =-.285704E-02  mag=     0.7026
       N       E                     dE             d eps       ncg     rms          ort
SDA:   1    -0.491843634327E+03    0.52222E-01    0.00000E+00   688   0.133E+00 0.000E+00
CGA:   2    -0.491884874422E+03   -0.41240E-01   -0.41240E-01   688   0.461E-01 0.359E-05
CGA:   3    -0.491894926080E+03   -0.10052E-01   -0.10051E-01   688   0.106E-01 0.573E-05
CGA:   4    -0.491897053530E+03   -0.21275E-02   -0.21273E-02   688   0.231E-02-0.466E-05
CGA:   5    -0.491897602299E+03   -0.54877E-03   -0.54881E-03   688   0.624E-03 0.153E-05
CGA:   6    -0.491897763601E+03   -0.16130E-03   -0.16131E-03   688   0.246E-03 0.553E-06
CGA:   7    -0.491897836070E+03   -0.72469E-04   -0.72479E-04   688   0.114E-03-0.347E-06
  60 F= -.49609793E+03 E0= -.49607512E+03  d E =-.169160E-02  mag=     0.6946
       N       E                     dE             d eps       ncg     rms          ort
SDA:   1    -0.491677713134E+03    0.22005E+00    0.00000E+00   688   0.546E+00 0.000E+00
CGA:   2    -0.491846350790E+03   -0.16864E+00   -0.16864E+00   688   0.189E+00 0.313E-04
CGA:   3    -0.491887532263E+03   -0.41181E-01   -0.41177E-01   688   0.430E-01-0.554E-05
CGA:   4    -0.491896267445E+03   -0.87352E-02   -0.87366E-02   688   0.912E-02-0.569E-05
CGA:   5    -0.491898457142E+03   -0.21897E-02   -0.21898E-02   688   0.233E-02 0.452E-05
CGA:   6    -0.491899087372E+03   -0.63023E-03   -0.63023E-03   688   0.875E-03-0.964E-07
CGA:   7    -0.491899353238E+03   -0.26587E-03   -0.26586E-03   688   0.414E-03 0.299E-06
CGA:   8    -0.491899480350E+03   -0.12711E-03   -0.12713E-03   688   0.172E-03-0.417E-06
CGA:   9    -0.491899532705E+03   -0.52355E-04   -0.52338E-04   688   0.532E-04 0.457E-06
  61 F= -.49609922E+03 E0= -.49607642E+03  d E =-.298392E-02  mag=     0.6837
       N       E                     dE             d eps       ncg     rms          ort
SDA:   1    -0.491838020650E+03    0.61460E-01    0.00000E+00   688   0.157E+00 0.000E+00
CGA:   2    -0.491886057996E+03   -0.48037E-01   -0.48037E-01   688   0.550E-01 0.704E-05
CGA:   3    -0.491898070240E+03   -0.12012E-01   -0.12012E-01   688   0.124E-01 0.755E-05
CGA:   4    -0.491900587710E+03   -0.25175E-02   -0.25174E-02   688   0.255E-02-0.520E-05
CGA:   5    -0.491901192349E+03   -0.60464E-03   -0.60473E-03   688   0.656E-03 0.310E-05
CGA:   6    -0.491901368593E+03   -0.17624E-03   -0.17624E-03   688   0.236E-03-0.184E-06
CGA:   7    -0.491901443995E+03   -0.75402E-04   -0.75369E-04   688   0.109E-03 0.635E-06
  62 F= -.49610085E+03 E0= -.49607805E+03  d E =-.162371E-02  mag=     0.6762
