       N       E                     dE             d eps       ncg     rms          rms(c)
DAV:   1     0.253971083855E+04    0.25397E+04   -0.11208E+05  4360   0.107E+03
DAV:   2    -0.240142914992E+03   -0.27799E+04   -0.26557E+04  5488   0.280E+02
DAV:   3    -0.700185895528E+03   -0.46004E+03   -0.45604E+03  4560   0.120E+02
DAV:   4    -0.716833757768E+03   -0.16648E+02   -0.16501E+02  4680   0.282E+01
DAV:   5    -0.717372858551E+03   -0.53910E+00   -0.53714E+00  5256   0.423E+00    0.479E+01
DAV:   6    -0.711451478767E+03    0.59214E+01   -0.71166E+01  4768   0.298E+01    0.721E+01
DAV:   7    -0.675410994511E+03    0.36040E+02   -0.76683E+01  5304   0.588E+01    0.254E+01
DAV:   8    -0.668713552127E+03    0.66974E+01   -0.30648E+01  4792   0.126E+01    0.227E+01
DAV:   9    -0.664945815024E+03    0.37677E+01   -0.22247E+01  4648   0.141E+01    0.156E+01
DAV:  10    -0.663460608617E+03    0.14852E+01   -0.94406E+00  5288   0.114E+01    0.747E+00
DAV:  11    -0.663270450652E+03    0.19016E+00   -0.10297E+00  5000   0.317E+00    0.547E+00
DAV:  12    -0.663210070381E+03    0.60380E-01   -0.74665E-01  4824   0.275E+00    0.446E+00
DAV:  13    -0.663275552590E+03   -0.65482E-01   -0.21584E-01  4704   0.105E+00    0.323E+00
DAV:  14    -0.663286910849E+03   -0.11358E-01   -0.58471E-02  5176   0.850E-01    0.222E+00
DAV:  15    -0.663281400175E+03    0.55107E-02   -0.28863E-02  4576   0.464E-01    0.150E+00
DAV:  16    -0.663281225703E+03    0.17447E-03   -0.53537E-03  4664   0.213E-01    0.123E+00
DAV:  17    -0.663280815347E+03    0.41036E-03   -0.15140E-03  5032   0.107E-01    0.966E-01
DAV:  18    -0.663280055051E+03    0.76030E-03   -0.89209E-04  4320   0.841E-02    0.672E-01
DAV:  19    -0.663279997172E+03    0.57879E-04   -0.33670E-04  3360   0.461E-02
   1 F= -.66985127E+03 E0= -.66985127E+03  d E =0.000000E+00  mag=    -1.0041
