 vasp.5.4.4.18Apr17-6-g9f103f2a35 (build Jan 14 2022 15:04:31) complex          
  
 executed on             LinuxIFC date 2023.01.27  22:53:25
 running on   48 total cores
 distrk:  each k-point on   48 cores,    1 groups
 distr:  one band on NCORES_PER_BAND=  12 cores,    4 groups


--------------------------------------------------------------------------------------------------------


 INCAR:
 POTCAR:    PAW_PBE C 08Apr2002                   
 POTCAR:    PAW_PBE N 08Apr2002                   
 POTCAR:    PAW_PBE C 08Apr2002                   
 POTCAR:    PAW_PBE Cr_pv 02Aug2007               
 POTCAR:    PAW_PBE C 08Apr2002                   
 POTCAR:    PAW_PBE O 08Apr2002                   
 POTCAR:    PAW_PBE C 08Apr2002                   
   SHA256 =  253f7b50bb8d59471dbedb8285d89021f4a42ed1a2c5d38a03a736e69125dd95 C/
   COPYR  = (c) Copyright 08Apr2002 Georg Kresse                                
   COPYR  = This file is part of the software VASP. Any use, copying, and all ot
   COPYR  = If you do not have a valid VASP license, you may not use, copy or di
   VRHFIN =C: s2p2                                                              
   LEXCH  = PE                                                                  
   EATOM  =   147.1560 eV,   10.8157 Ry                                         
                                                                                
   TITEL  = PAW_PBE C 08Apr2002                                                 
   LULTRA =        F    use ultrasoft PP ?                                      
   IUNSCR =        1    unscreen: 0-lin 1-nonlin 2-no                           
   RPACOR =    1.200    partial core radius                                     
   POMASS =   12.011; ZVAL   =    4.000    mass and valenz                      
   RCORE  =    1.500    outmost cutoff radius                                   
   RWIGS  =    1.630; RWIGS  =    0.863    wigner-seitz radius (au A)           
   ENMAX  =  400.000; ENMIN  =  300.000 eV                                      
   ICORE  =        2    local potential                                         
   LCOR   =        T    correct aug charges                                     
   LPAW   =        T    paw PP                                                  
   EAUG   =  644.873                                                            
   DEXC   =    0.000                                                            
   RMAX   =    1.529    core radius for proj-oper                               
   RAUG   =    1.300    factor for augmentation sphere                          
   RDEP   =    1.501    radius for radial grids                                 
   RDEPT  =    1.300    core radius for aug-charge                              
                                                                                
   Atomic configuration                                                         
    4 entries                                                                   
     n  l   j            E        occ.                                          
     1  0  0.50      -273.3789   2.0000                                         
     2  0  0.50       -13.7508   2.0000                                         
     2  1  0.50        -5.2854   2.0000                                         
     3  2  1.50        -5.4423   0.0000                                         
   Description                                                                  
     l       E           TYP  RCUT    TYP  RCUT                                 
     0    -13.7508458     23  1.200                                             
     0     -8.2022199     23  1.200                                             
     1     -5.2854383     23  1.500                                             
     1     34.0145650     23  1.500                                             
     2     -5.4423304      7  1.500                                             
  local pseudopotential read in
  partial core-charges read in
  partial kinetic energy density read in
  atomic valenz-charges read in
  non local Contribution for L=           0  read in
    real space projection operators read in
  non local Contribution for L=           0  read in
    real space projection operators read in
  non local Contribution for L=           1  read in
    real space projection operators read in
  non local Contribution for L=           1  read in
    real space projection operators read in
    PAW grid and wavefunctions read in
 
   number of l-projection  operators is LMAX  =           4
   number of lm-projection operators is LMMAX =           8
 
 POTCAR:    PAW_PBE N 08Apr2002                   
   SHA256 =  e053789ff3a61a86a1b75d8a110fcc91f86041011e7b0817c7c99e4e8a6349d7 N/
   COPYR  = (c) Copyright 08Apr2002 Georg Kresse                                
   COPYR  = This file is part of the software VASP. Any use, copying, and all ot
   COPYR  = If you do not have a valid VASP license, you may not use, copy or di
   VRHFIN =N: s2p3                                                              
   LEXCH  = PE                                                                  
   EATOM  =   264.5486 eV,   19.4438 Ry                                         
                                                                                
   TITEL  = PAW_PBE N 08Apr2002                                                 
   LULTRA =        F    use ultrasoft PP ?                                      
   IUNSCR =        1    unscreen: 0-lin 1-nonlin 2-no                           
   RPACOR =    1.200    partial core radius                                     
   POMASS =   14.001; ZVAL   =    5.000    mass and valenz                      
   RCORE  =    1.500    outmost cutoff radius                                   
   RWIGS  =    1.400; RWIGS  =    0.741    wigner-seitz radius (au A)           
   ENMAX  =  400.000; ENMIN  =  300.000 eV                                      
   ICORE  =        2    local potential                                         
   LCOR   =        T    correct aug charges                                     
   LPAW   =        T    paw PP                                                  
   EAUG   =  627.112                                                            
   DEXC   =    0.000                                                            
   RMAX   =    1.529    core radius for proj-oper                               
   RAUG   =    1.300    factor for augmentation sphere                          
   RDEP   =    1.514    radius for radial grids                                 
   RDEPT  =    1.338    core radius for aug-charge                              
                                                                                
   Atomic configuration                                                         
    4 entries                                                                   
     n  l   j            E        occ.                                          
     1  0  0.50      -384.7179   2.0000                                         
     2  0  0.50       -18.5828   2.0000                                         
     2  1  0.50        -7.0898   3.0000                                         
     3  2  1.50        -6.8029   0.0000                                         
   Description                                                                  
     l       E           TYP  RCUT    TYP  RCUT                                 
     0    -18.5828119     23  1.200                                             
     0    -13.5018863     23  1.200                                             
     1     -7.0897853     23  1.500                                             
     1      9.5240782     23  1.500                                             
     2     -6.8029130      7  1.500                                             
  local pseudopotential read in
  partial core-charges read in
  partial kinetic energy density read in
  atomic valenz-charges read in
  non local Contribution for L=           0  read in
    real space projection operators read in
  non local Contribution for L=           0  read in
    real space projection operators read in
  non local Contribution for L=           1  read in
    real space projection operators read in
  non local Contribution for L=           1  read in
    real space projection operators read in
    PAW grid and wavefunctions read in
 
   number of l-projection  operators is LMAX  =           4
   number of lm-projection operators is LMMAX =           8
 
 POTCAR:    PAW_PBE C 08Apr2002                   
   SHA256 =  253f7b50bb8d59471dbedb8285d89021f4a42ed1a2c5d38a03a736e69125dd95 C/
   COPYR  = (c) Copyright 08Apr2002 Georg Kresse                                
   COPYR  = This file is part of the software VASP. Any use, copying, and all ot
   COPYR  = If you do not have a valid VASP license, you may not use, copy or di
   VRHFIN =C: s2p2                                                              
   LEXCH  = PE                                                                  
   EATOM  =   147.1560 eV,   10.8157 Ry                                         
                                                                                
   TITEL  = PAW_PBE C 08Apr2002                                                 
   LULTRA =        F    use ultrasoft PP ?                                      
   IUNSCR =        1    unscreen: 0-lin 1-nonlin 2-no                           
   RPACOR =    1.200    partial core radius                                     
   POMASS =   12.011; ZVAL   =    4.000    mass and valenz                      
   RCORE  =    1.500    outmost cutoff radius                                   
   RWIGS  =    1.630; RWIGS  =    0.863    wigner-seitz radius (au A)           
   ENMAX  =  400.000; ENMIN  =  300.000 eV                                      
   ICORE  =        2    local potential                                         
   LCOR   =        T    correct aug charges                                     
   LPAW   =        T    paw PP                                                  
   EAUG   =  644.873                                                            
   DEXC   =    0.000                                                            
   RMAX   =    1.529    core radius for proj-oper                               
   RAUG   =    1.300    factor for augmentation sphere                          
   RDEP   =    1.501    radius for radial grids                                 
   RDEPT  =    1.300    core radius for aug-charge                              
                                                                                
   Atomic configuration                                                         
    4 entries                                                                   
     n  l   j            E        occ.                                          
     1  0  0.50      -273.3789   2.0000                                         
     2  0  0.50       -13.7508   2.0000                                         
     2  1  0.50        -5.2854   2.0000                                         
     3  2  1.50        -5.4423   0.0000                                         
   Description                                                                  
     l       E           TYP  RCUT    TYP  RCUT                                 
     0    -13.7508458     23  1.200                                             
     0     -8.2022199     23  1.200                                             
     1     -5.2854383     23  1.500                                             
     1     34.0145650     23  1.500                                             
     2     -5.4423304      7  1.500                                             
  local pseudopotential read in
  partial core-charges read in
  partial kinetic energy density read in
  atomic valenz-charges read in
  non local Contribution for L=           0  read in
    real space projection operators read in
  non local Contribution for L=           0  read in
    real space projection operators read in
  non local Contribution for L=           1  read in
    real space projection operators read in
  non local Contribution for L=           1  read in
    real space projection operators read in
    PAW grid and wavefunctions read in
 
   number of l-projection  operators is LMAX  =           4
   number of lm-projection operators is LMMAX =           8
 
 POTCAR:    PAW_PBE Cr_pv 02Aug2007               
   SHA256 =  c9a7df34d3cdbacf1090e328ef39c0b420964e11c23f63548d1ac9dd218cdba0 Cr
   COPYR  = (c) Copyright 02Aug2007 Georg Kresse                                
   COPYR  = This file is part of the software VASP. Any use, copying, and all ot
   COPYR  = If you do not have a valid VASP license, you may not use, copy or di
   VRHFIN =Cr : p6d5s1                                                          
   LEXCH  = PE                                                                  
   EATOM  =  1647.9177 eV,  121.1185 Ry                                         
                                                                                
   TITEL  = PAW_PBE Cr_pv 02Aug2007                                             
   LULTRA =        F    use ultrasoft PP ?                                      
   IUNSCR =        1    unscreen: 0-lin 1-nonlin 2-no                           
   RPACOR =    2.080    partial core radius                                     
   POMASS =   51.996; ZVAL   =   12.000    mass and valenz                      
   RCORE  =    2.300    outmost cutoff radius                                   
   RWIGS  =    2.500; RWIGS  =    1.323    wigner-seitz radius (au A)           
   ENMAX  =  265.681; ENMIN  =  199.261 eV                                      
   ICORE  =        3    local potential                                         
   LCOR   =        T    correct aug charges                                     
   LPAW   =        T    paw PP                                                  
   EAUG   =  519.424                                                            
   DEXC   =    0.000                                                            
   RMAX   =    2.356    core radius for proj-oper                               
   RAUG   =    1.300    factor for augmentation sphere                          
   RDEP   =    2.447    radius for radial grids                                 
   RDEPT  =    1.882    core radius for aug-charge                              
                                                                                
   Atomic configuration                                                         
    8 entries                                                                   
     n  l   j            E        occ.                                          
     1  0  0.50     -5880.4963   2.0000                                         
     2  0  0.50      -667.0865   2.0000                                         
     2  1  1.50      -560.6250   6.0000                                         
     3  0  0.50       -73.9860   2.0000                                         
     3  1  1.50       -45.4378   6.0000                                         
     3  2  2.50        -2.9137   5.0000                                         
     4  0  0.50        -4.0071   1.0000                                         
     4  3  2.50        -1.3606   0.0000                                         
   Description                                                                  
     l       E           TYP  RCUT    TYP  RCUT                                 
     1    -45.4377911     23  2.000                                             
     1      1.3605826     23  2.000                                             
     2     -2.9136672     23  2.300                                             
     2     -4.2742498     23  2.300                                             
     0     -4.0071320     23  2.300                                             
     0      9.4498803     23  2.300                                             
     3      2.7211652     23  2.300                                             
  local pseudopotential read in
  partial core-charges read in
  partial kinetic energy density read in
  atomic valenz-charges read in
  non local Contribution for L=           1  read in
    real space projection operators read in
  non local Contribution for L=           1  read in
    real space projection operators read in
  non local Contribution for L=           2  read in
    real space projection operators read in
  non local Contribution for L=           2  read in
    real space projection operators read in
  non local Contribution for L=           0  read in
    real space projection operators read in
  non local Contribution for L=           0  read in
    real space projection operators read in
    PAW grid and wavefunctions read in
 
   number of l-projection  operators is LMAX  =           6
   number of lm-projection operators is LMMAX =          18
 
 POTCAR:    PAW_PBE C 08Apr2002                   
   SHA256 =  253f7b50bb8d59471dbedb8285d89021f4a42ed1a2c5d38a03a736e69125dd95 C/
   COPYR  = (c) Copyright 08Apr2002 Georg Kresse                                
   COPYR  = This file is part of the software VASP. Any use, copying, and all ot
   COPYR  = If you do not have a valid VASP license, you may not use, copy or di
   VRHFIN =C: s2p2                                                              
   LEXCH  = PE                                                                  
   EATOM  =   147.1560 eV,   10.8157 Ry                                         
                                                                                
   TITEL  = PAW_PBE C 08Apr2002                                                 
   LULTRA =        F    use ultrasoft PP ?                                      
   IUNSCR =        1    unscreen: 0-lin 1-nonlin 2-no                           
   RPACOR =    1.200    partial core radius                                     
   POMASS =   12.011; ZVAL   =    4.000    mass and valenz                      
   RCORE  =    1.500    outmost cutoff radius                                   
   RWIGS  =    1.630; RWIGS  =    0.863    wigner-seitz radius (au A)           
   ENMAX  =  400.000; ENMIN  =  300.000 eV                                      
   ICORE  =        2    local potential                                         
   LCOR   =        T    correct aug charges                                     
   LPAW   =        T    paw PP                                                  
   EAUG   =  644.873                                                            
   DEXC   =    0.000                                                            
   RMAX   =    1.529    core radius for proj-oper                               
   RAUG   =    1.300    factor for augmentation sphere                          
   RDEP   =    1.501    radius for radial grids                                 
   RDEPT  =    1.300    core radius for aug-charge                              
                                                                                
   Atomic configuration                                                         
    4 entries                                                                   
     n  l   j            E        occ.                                          
     1  0  0.50      -273.3789   2.0000                                         
     2  0  0.50       -13.7508   2.0000                                         
     2  1  0.50        -5.2854   2.0000                                         
     3  2  1.50        -5.4423   0.0000                                         
   Description                                                                  
     l       E           TYP  RCUT    TYP  RCUT                                 
     0    -13.7508458     23  1.200                                             
     0     -8.2022199     23  1.200                                             
     1     -5.2854383     23  1.500                                             
     1     34.0145650     23  1.500                                             
     2     -5.4423304      7  1.500                                             
  local pseudopotential read in
  partial core-charges read in
  partial kinetic energy density read in
  atomic valenz-charges read in
  non local Contribution for L=           0  read in
    real space projection operators read in
  non local Contribution for L=           0  read in
    real space projection operators read in
  non local Contribution for L=           1  read in
    real space projection operators read in
  non local Contribution for L=           1  read in
    real space projection operators read in
    PAW grid and wavefunctions read in
 
   number of l-projection  operators is LMAX  =           4
   number of lm-projection operators is LMMAX =           8
 
 POTCAR:    PAW_PBE O 08Apr2002                   
   SHA256 =  818f92134a0a090dccd8ba1447fa70422a3b330e708bb4f08108d8ae51209ddf O/
   COPYR  = (c) Copyright 08Apr2002 Georg Kresse                                
   COPYR  = This file is part of the software VASP. Any use, copying, and all ot
   COPYR  = If you do not have a valid VASP license, you may not use, copy or di
   VRHFIN =O: s2p4                                                              
   LEXCH  = PE                                                                  
   EATOM  =   432.3788 eV,   31.7789 Ry                                         
                                                                                
   TITEL  = PAW_PBE O 08Apr2002                                                 
   LULTRA =        F    use ultrasoft PP ?                                      
   IUNSCR =        1    unscreen: 0-lin 1-nonlin 2-no                           
   RPACOR =    1.200    partial core radius                                     
   POMASS =   16.000; ZVAL   =    6.000    mass and valenz                      
   RCORE  =    1.520    outmost cutoff radius                                   
   RWIGS  =    1.550; RWIGS  =    0.820    wigner-seitz radius (au A)           
   ENMAX  =  400.000; ENMIN  =  300.000 eV                                      
   ICORE  =        2    local potential                                         
   LCOR   =        T    correct aug charges                                     
   LPAW   =        T    paw PP                                                  
   EAUG   =  605.392                                                            
   DEXC   =    0.000                                                            
   RMAX   =    1.553    core radius for proj-oper                               
   RAUG   =    1.300    factor for augmentation sphere                          
   RDEP   =    1.550    radius for radial grids                                 
   RDEPT  =    1.329    core radius for aug-charge                              
                                                                                
   Atomic configuration                                                         
    4 entries                                                                   
     n  l   j            E        occ.                                          
     1  0  0.50      -514.6923   2.0000                                         
     2  0  0.50       -23.9615   2.0000                                         
     2  1  0.50        -9.0305   4.0000                                         
     3  2  1.50        -9.5241   0.0000                                         
   Description                                                                  
     l       E           TYP  RCUT    TYP  RCUT                                 
     0    -23.9615318     23  1.200                                             
     0     -9.5240782     23  1.200                                             
     1     -9.0304911     23  1.520                                             
     1      8.1634956     23  1.520                                             
     2     -9.5240782      7  1.500                                             
  local pseudopotential read in
  partial core-charges read in
  partial kinetic energy density read in
  kinetic energy density of atom read in
  atomic valenz-charges read in
  non local Contribution for L=           0  read in
    real space projection operators read in
  non local Contribution for L=           0  read in
    real space projection operators read in
  non local Contribution for L=           1  read in
    real space projection operators read in
  non local Contribution for L=           1  read in
    real space projection operators read in
    PAW grid and wavefunctions read in
 
   number of l-projection  operators is LMAX  =           4
   number of lm-projection operators is LMMAX =           8
 

 ----------------------------------------------------------------------------- 
|                                                                             |
|  ADVICE TO THIS USER RUNNING 'VASP/VAMP'   (HEAR YOUR MASTER'S VOICE ...):  |
|                                                                             |
|      You have a (more or less) 'large supercell' and for larger cells       |
|      it might be more efficient to use real space projection opertators     |
|      So try LREAL= Auto  in the INCAR   file.                               |
|      Mind:          For very  accurate calculation you might also keep the  |
|      reciprocal projection scheme          (i.e. LREAL=.FALSE.)             |
|                                                                             |
 ----------------------------------------------------------------------------- 

  PAW_PBE C 08Apr2002                   :
 energy of atom  1       EATOM= -147.1560
 kinetic energy error for atom=    0.0132 (will be added to EATOM!!)
  PAW_PBE N 08Apr2002                   :
 energy of atom  2       EATOM= -264.5486
 kinetic energy error for atom=    0.0298 (will be added to EATOM!!)
  PAW_PBE C 08Apr2002                   :
 energy of atom  3       EATOM= -147.1560
 kinetic energy error for atom=    0.0132 (will be added to EATOM!!)
  PAW_PBE Cr_pv 02Aug2007               :
 energy of atom  4       EATOM=-1647.9177
 kinetic energy error for atom=    0.0134 (will be added to EATOM!!)
  PAW_PBE C 08Apr2002                   :
 energy of atom  5       EATOM= -147.1560
 kinetic energy error for atom=    0.0132 (will be added to EATOM!!)
  PAW_PBE O 08Apr2002                   :
 energy of atom  6       EATOM= -432.3788
 kinetic energy error for atom=    0.0458 (will be added to EATOM!!)
 
 
 POSCAR: POSCAR-clean                            
  positions in direct lattice
  velocities in cartesian coordinates
 exchange correlation table for  LEXCH =        8
   RHO(1)=    0.500       N(1)  =     2000
   RHO(2)=  100.500       N(2)  =     4000

 VTST: version 3.2, (02/03/18)

 CHAIN: initializing optimizer
 
 OPT: Using VASP Dynamics algorithm
 CHAIN: Read ICHAIN            0
 
 POSCAR: POSCAR-clean                            
  positions in direct lattice
  velocities in cartesian coordinates
 


--------------------------------------------------------------------------------------------------------


 ion  position               nearest neighbor table
   1  0.999  0.999  0.492-   2 1.43  60 1.43  70 1.43
   2  0.055  0.111  0.491-  13 1.42   1 1.43  15 1.43
   3  0.167  0.001  0.492-  62 1.42   4 1.42  60 1.43
   4  0.223  0.113  0.492-  15 1.42   3 1.42  17 1.43
   5  0.333  0.002  0.492-   6 1.42  64 1.43  62 1.43
   6  0.389  0.113  0.494-   5 1.42  19 1.43  17 1.43
   7  0.500  0.001  0.490-  64 1.42   8 1.42  66 1.43
   8  0.556  0.113  0.492-   7 1.42  21 1.42  19 1.43
   9  0.666  0.999  0.489-  10 1.42  66 1.42  68 1.44
  10  0.722  0.111  0.490-   9 1.42  23 1.43  21 1.43
  11  0.832  0.998  0.492-  12 1.42  70 1.42  68 1.43
  12  0.888  0.110  0.491-  11 1.42  13 1.43  23 1.43
  13  0.999  0.166  0.491-  14 1.42   2 1.42  12 1.43
  14  0.054  0.278  0.491-  27 1.42  13 1.42  25 1.43
  15  0.166  0.167  0.491-  16 1.42   4 1.42   2 1.43
  16  0.222  0.279  0.490-  15 1.42  27 1.43  29 1.44
  17  0.334  0.170  0.494-  18 1.42   6 1.43   4 1.43
  18  0.390  0.281  0.497-  17 1.42  29 1.43  31 1.44
  19  0.501  0.169  0.494-   6 1.43  20 1.43   8 1.43
  20  0.557  0.281  0.499-  33 1.43  19 1.43  31 1.45
  21  0.666  0.167  0.492-  22 1.42   8 1.42  10 1.43
  22  0.722  0.278  0.495-  21 1.42  33 1.42  35 1.43
  23  0.833  0.166  0.491-  24 1.42  10 1.43  12 1.43
  24  0.888  0.278  0.492-  23 1.42  25 1.42  35 1.42
  25  0.999  0.333  0.492-  24 1.42  26 1.43  14 1.43
  26  0.055  0.445  0.493-  39 1.41  25 1.43  37 1.43
  27  0.165  0.333  0.492-  28 1.42  14 1.42  16 1.43
  28  0.220  0.445  0.493-  41 1.42  27 1.42  39 1.42
  29  0.334  0.336  0.491-  30 1.41  18 1.43  16 1.44
  30  0.387  0.446  0.492-  29 1.41  41 1.42  71 1.92
  31  0.502  0.340  0.504-  32 1.44  18 1.44  20 1.45
  32  0.560  0.451  0.514-  43 1.43  31 1.44  71 2.04
  33  0.668  0.334  0.499-  34 1.42  22 1.42  20 1.43
  34  0.724  0.446  0.501-  43 1.41  33 1.42  45 1.43
  35  0.833  0.333  0.494-  36 1.42  24 1.42  22 1.43
  36  0.889  0.444  0.495-  35 1.42  45 1.42  37 1.42
  37  1.000  0.501  0.493-  36 1.42  38 1.42  26 1.43
  38  0.055  0.612  0.493-  47 1.40  49 1.42  37 1.42
  39  0.165  0.501  0.493-  26 1.41  40 1.42  28 1.42
  40  0.220  0.612  0.492-  39 1.42  49 1.42  51 1.42
  41  0.330  0.500  0.490-  28 1.42  30 1.42  42 1.44  71 2.53
  42  0.386  0.613  0.488-  53 1.42  51 1.42  41 1.44  71 2.54
  43  0.670  0.501  0.508-  34 1.41  44 1.42  32 1.43
  44  0.726  0.612  0.508-  57 1.42  43 1.42  55 1.42
  45  0.836  0.501  0.498-  46 1.41  36 1.42  34 1.43
  46  0.891  0.612  0.498-  47 1.41  45 1.41  57 1.42
  47  0.001  0.668  0.495-  38 1.40  46 1.41  48 1.41
  48  0.055  0.778  0.493-  47 1.41  59 1.42  61 1.42
  49  0.165  0.668  0.492-  38 1.42  50 1.42  40 1.42
  50  0.222  0.779  0.491-  63 1.42  49 1.42  61 1.42
  51  0.331  0.668  0.491-  52 1.42  42 1.42  40 1.42
  52  0.388  0.779  0.488-  51 1.42  65 1.43  63 1.43
  53  0.496  0.666  0.484-  54 1.41  42 1.42  71 1.95
  54  0.554  0.776  0.486-  53 1.41  67 1.43  65 1.44
  55  0.665  0.661  0.513-  44 1.42  56 1.43  71 2.04
  56  0.719  0.772  0.501-  55 1.43  67 1.44  69 1.45
  57  0.836  0.668  0.500-  58 1.41  44 1.42  46 1.42
  58  0.889  0.778  0.497-  57 1.41  69 1.42  59 1.42
  59  1.000  0.833  0.494-  48 1.42  58 1.42  60 1.42
  60  0.056  0.945  0.492-  59 1.42   3 1.43   1 1.43
  61  0.166  0.834  0.492-  50 1.42  48 1.42  62 1.43
  62  0.222  0.946  0.492-   3 1.42  61 1.43   5 1.43
  63  0.333  0.835  0.489-  50 1.42  64 1.42  52 1.43
  64  0.389  0.946  0.490-  63 1.42   7 1.42   5 1.43
  65  0.499  0.833  0.486-  66 1.42  52 1.43  54 1.44
  66  0.555  0.945  0.488-  65 1.42   9 1.42   7 1.43
  67  0.665  0.831  0.493-  68 1.42  54 1.43  56 1.44
  68  0.721  0.942  0.491-  67 1.42  11 1.43   9 1.44
  69  0.831  0.831  0.497-  58 1.42  70 1.43  56 1.45
  70  0.887  0.943  0.493-  11 1.42  69 1.43   1 1.43
  71  0.513  0.557  0.542-  72 1.91  30 1.92  53 1.95  55 2.04  32 2.04  41 2.53  42 2.54
  72  0.523  0.518  0.661-  73 1.16  71 1.91
  73  0.527  0.498  0.736-  72 1.16
 

IMPORTANT INFORMATION: All symmetrisations will be switched off!
NOSYMM: (Re-)initialisation of all symmetry stuff for point group C_1.

 
 
 KPOINTS: K-Points                                

Automatic generation of k-mesh.
Space group operators:
 irot       det(A)        alpha          n_x          n_y          n_z        tau_x        tau_y        tau_z
    1     1.000000     0.000001     1.000000     0.000000     0.000000     0.000000     0.000000     0.000000
 
 Subroutine IBZKPT returns following result:
 ===========================================
 
 Found      5 irreducible k-points:
 
 Following reciprocal coordinates:
            Coordinates               Weight
  0.000000  0.000000  0.000000      1.000000
  0.333333 -0.000000  0.000000      2.000000
 -0.000000  0.333333  0.000000      2.000000
  0.333333  0.333333  0.000000      2.000000
 -0.333333  0.333333  0.000000      2.000000
 
 Following cartesian coordinates:
            Coordinates               Weight
  0.000000  0.000000  0.000000      1.000000
  0.022426  0.013069  0.000000      2.000000
 -0.000006  0.026138  0.000000      2.000000
  0.022421  0.039207  0.000000      2.000000
 -0.022432  0.013069  0.000000      2.000000
 
 TETIRR: Found     24 inequivalent tetrahedra from       54


--------------------------------------------------------------------------------------------------------




 Dimension of arrays:
   k-points           NKPTS =      5   k-points in BZ     NKDIM =      5   number of bands    NBANDS=    192
   number of dos      NEDOS =   4000   number of ions     NIONS =     73
   non local maximal  LDIM  =      6   non local SUM 2l+1 LMDIM =     18
   total plane-waves  NPLWV = 512000
   max r-space proj   IRMAX =      1   max aug-charges    IRDMAX=   6465
   dimension x,y,z NGX =    80 NGY =   80 NGZ =   80
   dimension x,y,z NGXF=   160 NGYF=  160 NGZF=  160
   support grid    NGXF=   160 NGYF=  160 NGZF=  160
   ions per type =              46   1  23   1   1   1
   NGX,Y,Z   is equivalent  to a cutoff of   8.95,  9.01,  8.87 a.u.
   NGXF,Y,Z  is equivalent  to a cutoff of  17.90, 18.02, 17.73 a.u.

 SYSTEM =  unknown system                          
 POSCAR =  POSCAR-clean                            

 Startparameter for this run:
   NWRITE =      2    write-flag & timer
   PREC   = normal    normal or accurate (medium, high low for compatibility)
   ISTART =      0    job   : 0-new  1-cont  2-samecut
   ICHARG =      2    charge: 1-file 2-atom 10-const
   ISPIN  =      2    spin polarized calculation?
   LNONCOLLINEAR =      F non collinear calculations
   LSORBIT =      F    spin-orbit coupling
   INIWAV =      1    electr: 0-lowe 1-rand  2-diag
   LASPH  =      F    aspherical Exc in radial PAW
   METAGGA=      F    non-selfconsistent MetaGGA calc.

 Electronic Relaxation 1
   ENCUT  =  440.0 eV  32.34 Ry    5.69 a.u.  25.42 25.24 25.66*2*pi/ulx,y,z
   ENINI  =  440.0     initial cutoff
   ENAUG  =  644.9 eV  augmentation charge cutoff
   NELM   =    100;   NELMIN=  2; NELMDL= -5     # of ELM steps 
   EDIFF  = 0.1E-03   stopping-criterion for ELM
   LREAL  =      F    real-space projection
   NLSPLINE    = F    spline interpolate recip. space projectors
   LCOMPAT=      F    compatible to vasp.4.4
   GGA_COMPAT  = T    GGA compatible to vasp.4.4-vasp.4.6
   LMAXPAW     = -100 max onsite density
   LMAXMIX     =    2 max onsite mixed and CHGCAR
   VOSKOWN=      0    Vosko Wilk Nusair interpolation
   ROPT   =    0.00000   0.00000   0.00000   0.00000
   ROPT   =    0.00000   0.00000
 Ionic relaxation
   EDIFFG = -.1E-01   stopping-criterion for IOM
   NSW    =      0    number of steps for IOM
   NBLOCK =      1;   KBLOCK =      1    inner block; outer block 
   IBRION =     -1    ionic relax: 0-MD 1-quasi-New 2-CG
   NFREE  =      0    steps in history (QN), initial steepest desc. (CG)
   ISIF   =      2    stress and relaxation
   IWAVPR =     10    prediction:  0-non 1-charg 2-wave 3-comb
   ISYM   =      0    0-nonsym 1-usesym 2-fastsym
   LCORR  =      T    Harris-Foulkes like correction to forces

   POTIM  = 0.5000    time-step for ionic-motion
   TEIN   =    0.0    initial temperature
   TEBEG  =    0.0;   TEEND  =   0.0 temperature during run
   SMASS  =  -3.00    Nose mass-parameter (am)
   estimated Nose-frequenzy (Omega)   =  0.10E-29 period in steps =****** mass=  -0.505E-26a.u.
   SCALEE = 1.0000    scale energy and forces
   NPACO  =    256;   APACO  = 16.0  distance and # of slots for P.C.
   PSTRESS=    0.0 pullay stress

  Mass of Ions in am
   POMASS =  12.01 14.00 12.01 52.00 12.01 16.00
  Ionic Valenz
   ZVAL   =   4.00  5.00  4.00 12.00  4.00  6.00
  Atomic Wigner-Seitz radii
   RWIGS  =  -1.00 -1.00 -1.00 -1.00 -1.00 -1.00
  virtual crystal weights 
   VCA    =   1.00  1.00  1.00  1.00  1.00  1.00
   NELECT =     303.0000    total number of electrons
   NUPDOWN=      -1.0000    fix difference up-down

 DOS related values:
   EMIN   = -14.00;   EMAX   =  6.00  energy-range for DOS
   EFERMI =   0.00
   ISMEAR =    -5;   SIGMA  =   0.20  broadening in eV -4-tet -1-fermi 0-gaus

 Electronic relaxation 2 (details)
   IALGO  =     38    algorithm
   LDIAG  =      T    sub-space diagonalisation (order eigenvalues)
   LSUBROT=      F    optimize rotation matrix (better conditioning)
   TURBO    =      0    0=normal 1=particle mesh
   IRESTART =      0    0=no restart 2=restart with 2 vectors
   NREBOOT  =      0    no. of reboots
   NMIN     =      0    reboot dimension
   EREF     =   0.00    reference energy to select bands
   IMIX   =      4    mixing-type and parameters
     AMIX     =   0.25;   BMIX     =  0.00
     AMIX_MAG =   1.00;   BMIX_MAG =  0.00
     AMIN     =   0.10
     WC   =   100.;   INIMIX=   1;  MIXPRE=   1;  MAXMIX= -45

 Intra band minimization:
   WEIMIN = 0.0000     energy-eigenvalue tresh-hold
   EBREAK =  0.13E-06  absolut break condition
   DEPER  =   0.30     relativ break condition  

   TIME   =   0.40     timestep for ELM

  volume/ion in A,a.u.               =      38.94       262.81
  Fermi-wavevector in a.u.,A,eV,Ry     =   0.776189  1.466784  8.197090  0.602469
  Thomas-Fermi vector in A             =   1.878614
 
 Write flags
   LWAVE        =      F    write WAVECAR
   LDOWNSAMPLE  =      F    k-point downsampling of WAVECAR
   LCHARG       =      F    write CHGCAR
   LVTOT        =      F    write LOCPOT, total local potential
   LVHAR        =      F    write LOCPOT, Hartree potential only
   LELF         =      F    write electronic localiz. function (ELF)
   LORBIT       =     11    0 simple, 1 ext, 2 COOP (PROOUT), +10 PAW based schemes


 Dipole corrections
   LMONO  =      F    monopole corrections only (constant potential shift)
   LDIPOL =      F    correct potential (dipole corrections)
   IDIPOL =      0    1-x, 2-y, 3-z, 4-all directions 
   EPSILON=  1.0000000 bulk dielectric constant

 Exchange correlation treatment:
   GGA     =    --    GGA type
   LEXCH   =     8    internal setting for exchange type
   VOSKOWN=      0    Vosko Wilk Nusair interpolation
   LHFCALC =     F    Hartree Fock is set to
   LHFONE  =     F    Hartree Fock one center treatment
   AEXX    =    0.0000 exact exchange contribution

 Linear response parameters
   LEPSILON=     F    determine dielectric tensor
   LRPA    =     F    only Hartree local field effects (RPA)
   LNABLA  =     F    use nabla operator in PAW spheres
   LVEL    =     F    velocity operator in full k-point grid
   LINTERFAST=   F  fast interpolation
   KINTER  =     0    interpolate to denser k-point grid
   CSHIFT  =0.1000    complex shift for real part using Kramers Kronig
   OMEGAMAX=  -1.0    maximum frequency
   DEG_THRESHOLD= 0.2000000E-02 threshold for treating states as degnerate
   RTIME   =   -0.100 relaxation time in fs
  (WPLASMAI=    0.000 imaginary part of plasma frequency in eV, 0.658/RTIME)
   DFIELD  = 0.0000000 0.0000000 0.0000000 field for delta impulse in time
 
 Orbital magnetization related:
   ORBITALMAG=     F  switch on orbital magnetization
   LCHIMAG   =     F  perturbation theory with respect to B field
   DQ        =  0.001000  dq finite difference perturbation B field
   LLRAUG    =     F  two centre corrections for induced B field



--------------------------------------------------------------------------------------------------------


 Static calculation
 charge density and potential will be updated during run
 spin polarized calculation
 Variant of blocked Davidson
 Davidson routine will perform the subspace rotation
 perform sub-space diagonalisation
    after iterative eigenvector-optimisation
 modified Broyden-mixing scheme, WC =      100.0
 initial mixing is a Kerker type mixing with AMIX =  0.2500 and BMIX =      0.0001
 Hartree-type preconditioning will be used
 using additional bands           40
 reciprocal scheme for non local part
 use partial core corrections
 calculate Harris-corrections to forces 
   (improved forces if not selfconsistent)
 use gradient corrections 
 use of overlap-Matrix (Vanderbilt PP)
 Fermi weights with tetrahedron method with Bloechl corrections


--------------------------------------------------------------------------------------------------------


  energy-cutoff  :      440.00
  volume of cell :     2842.92
      direct lattice vectors                 reciprocal lattice vectors
    14.861552846  0.003181263  0.000000000     0.067279327  0.039206721  0.000000000
    -7.430776423 12.751325012  0.000000000    -0.000016785  0.078413441  0.000000000
     0.000000000  0.000000000 15.000000000     0.000000000  0.000000000  0.066666667

  length of vectors
    14.861553187 14.758479861 15.000000000     0.077869601  0.078413443  0.066666667


 
 k-points in units of 2pi/SCALE and weight: K-Points                                
   0.00000000  0.00000000  0.00000000       0.111
   0.02242644  0.01306891  0.00000000       0.222
  -0.00000560  0.02613781  0.00000000       0.222
   0.02242085  0.03920672  0.00000000       0.222
  -0.02243204  0.01306891  0.00000000       0.222
 
 k-points in reciprocal lattice and weights: K-Points                                
   0.00000000  0.00000000  0.00000000       0.111
   0.33333333 -0.00000000  0.00000000       0.222
  -0.00000000  0.33333333  0.00000000       0.222
   0.33333333  0.33333333  0.00000000       0.222
  -0.33333333  0.33333333  0.00000000       0.222
 
 position of ions in fractional coordinates (direct lattice) 
   0.99901370  0.99910883  0.49201081
   0.05479164  0.11087906  0.49130595
   0.16695374  0.00140219  0.49190015
   0.22285796  0.11304971  0.49200317
   0.33330952  0.00181146  0.49165022
   0.38941094  0.11349574  0.49372107
   0.49965216  0.00119774  0.48965207
   0.55553418  0.11288137  0.49175139
   0.66576821  0.99905888  0.48882071
   0.72157059  0.11060364  0.49008933
   0.83217715  0.99848757  0.49171295
   0.88782414  0.11005397  0.49080454
   0.99886536  0.16592462  0.49097416
   0.05440067  0.27752988  0.49145092
   0.16630671  0.16732251  0.49123353
   0.22190214  0.27887101  0.49037581
   0.33440324  0.16972459  0.49408106
   0.39040341  0.28133513  0.49687728
   0.50051704  0.16938121  0.49432865
   0.55653782  0.28140522  0.49881984
   0.66645674  0.16690776  0.49188060
   0.72213223  0.27820742  0.49475047
   0.83262219  0.16603617  0.49084227
   0.88831545  0.27752541  0.49218116
   0.99912892  0.33335431  0.49216169
   0.05474882  0.44515954  0.49271728
   0.16522035  0.33331683  0.49154953
   0.21974280  0.44455636  0.49291912
   0.33373590  0.33580990  0.49149739
   0.38682179  0.44616015  0.49168384
   0.50218809  0.33957307  0.50364340
   0.55956401  0.45148421  0.51449349
   0.66754185  0.33428462  0.49873520
   0.72436579  0.44570744  0.50139454
   0.83329392  0.33345269  0.49401656
   0.88910896  0.44448552  0.49497210
   0.99954232  0.50116082  0.49347017
   0.05494313  0.61240585  0.49307886
   0.16488747  0.50050590  0.49291125
   0.22000199  0.61180858  0.49223229
   0.33000785  0.49991665  0.48980241
   0.38619087  0.61271980  0.48755198
   0.67012802  0.50062256  0.50841143
   0.72618715  0.61176598  0.50772610
   0.83562922  0.50130846  0.49771612
   0.89128575  0.61216153  0.49752391
   0.00068023  0.66752798  0.49451856
   0.05540221  0.77793219  0.49338297
   0.16538924  0.66799001  0.49169034
   0.22234332  0.77939260  0.49075089
   0.33080049  0.66789456  0.49068051
   0.38789801  0.77888876  0.48818986
   0.49636876  0.66579361  0.48376891
   0.55364498  0.77593078  0.48632087
   0.66522336  0.66118829  0.51296636
   0.71866220  0.77242044  0.50102780
   0.83606587  0.66750643  0.50042395
   0.88926225  0.77834171  0.49730952
   0.99998427  0.83314726  0.49407262
   0.05590469  0.94484776  0.49239116
   0.16609970  0.83384317  0.49170879
   0.22194367  0.94574587  0.49175065
   0.33281696  0.83487309  0.48929508
   0.38879705  0.94632456  0.48989381
   0.49889043  0.83323309  0.48632887
   0.55485354  0.94476024  0.48798460
   0.66503514  0.83069198  0.49302100
   0.72063758  0.94199562  0.49084348
   0.83134349  0.83089008  0.49690796
   0.88747991  0.94290303  0.49290865
   0.51327275  0.55722035  0.54154576
   0.52250238  0.51822353  0.66132537
   0.52745314  0.49810621  0.73556485
 
 position of ions in cartesian coordinates  (Angst):
   7.42274047 12.74313959  7.38016220
  -0.00962866  1.41402925  7.36958929
   2.47077249  0.01841093  7.37850231
   2.47196822  1.44224258  7.38004751
   4.94003646  0.02415885  7.37475326
   4.94388988  1.44845983  7.40581602
   7.41670687  0.01686232  7.34478098
   7.41730433  1.44115432  7.37627080
   2.47056620 12.74144249  7.33231063
   9.90178861  1.41263842  7.35134001
   4.94790676 12.73468688  7.37569424
  12.37665886  1.40615838  7.36206814
  13.61174151  2.11893644  7.36461235
  -1.25378398  3.53904674  7.37176382
   1.22823990  2.13411272  7.36850301
   1.22558232  3.55668082  7.35563716
   3.70856592  2.16527729  7.41121594
   3.71146239  3.58863764  7.45315927
   6.17982661  2.16142712  7.41492981
   6.17995693  3.59005986  7.48229764
   8.66432780  2.13041523  7.37820906
   8.66470921  3.54981051  7.42125711
  11.14028097  2.11983002  7.36263398
  11.13951767  3.54164267  7.38271738
  12.37152590  4.25388767  7.38242539
  -2.49422857  5.67654813  7.39075921
  -0.02137184  4.25075689  7.37324290
  -0.03767971  5.66938174  7.39378679
   2.46450546  4.28308292  7.37246091
   2.43345619  5.69036371  7.37525759
   4.94000323  4.33160415  7.55465107
   4.96111181  5.75880204  7.71740230
   7.43671427  4.26469540  7.48102799
   7.45324812  5.68566483  7.52091807
   9.90622923  4.25461461  7.41024836
   9.91066718  5.67060788  7.42458154
  11.13073706  6.39364427  7.40205262
  -3.73411081  7.80916087  7.39618295
  -1.26866362  6.38263790  7.39366882
  -1.27664159  7.80206988  7.38348440
   1.18966022  6.37564959  7.34703617
   1.18641212  7.81421787  7.31327973
   6.23912860  6.38573283  7.62617147
   6.24637255  7.80313697  7.61589144
   8.69363670  6.39500547  7.46574177
   8.69705477  7.80870602  7.46285863
  -4.95014195  8.51186844  7.41777844
  -4.95727733  9.91984240  7.40074457
  -2.50574347  8.51828393  7.37535516
  -2.48712513  9.93899567  7.36126328
  -0.04676626  8.51759300  7.36020767
  -0.02298142  9.93309779  7.32284790
   2.42944710  8.49132976  7.25653366
   2.46225602  9.89590689  7.29481310
   4.97310978  8.43314304  7.69449541
   4.94075269  9.85167029  7.51541699
   7.46514611  8.51425112  7.50635926
   7.43213470  9.92771715  7.45964283
   8.67038810 10.62691272  7.41108927
  -6.19012195 12.04823873  7.38586742
  -3.72760266 10.63313364  7.37563188
  -3.72919850 12.06021899  7.37625976
  -1.25757845 10.64679691  7.33942618
  -1.25379826 12.06812885  7.34840722
   1.22271772 10.62641309  7.29493301
   1.22568312 12.04871004  7.31976901
   3.71076844 10.59453910  7.39531505
   3.71003463 12.01398483  7.36265213
   6.18089681 10.59759423  7.45361937
   6.18282808 12.02608624  7.39362980
   3.48745034  7.10693058  8.12318635
   3.91439356  6.60969892  9.91988049
   4.13745688  6.35319217 11.03347277
 


--------------------------------------------------------------------------------------------------------


 k-point  1 :   0.0000 0.0000 0.0000  plane waves:   59577
 k-point  2 :   0.3333-0.0000 0.0000  plane waves:   59554
 k-point  3 :  -0.0000 0.3333 0.0000  plane waves:   59606
 k-point  4 :   0.3333 0.3333 0.0000  plane waves:   59628
 k-point  5 :  -0.3333 0.3333 0.0000  plane waves:   59552

 maximum and minimum number of plane-waves per node :      4988     4935

 maximum number of plane-waves:     59628
 maximum index in each direction: 
   IXMAX=   25   IYMAX=   25   IZMAX=   25
   IXMIN=  -25   IYMIN=  -25   IZMIN=  -25


 parallel 3D FFT for wavefunctions:
    minimum data exchange during FFTs selected (reduces bandwidth)
 parallel 3D FFT for charge:
    minimum data exchange during FFTs selected (reduces bandwidth)


 total amount of memory used by VASP MPI-rank0   116147. kBytes
=======================================================================

   base      :      30000. kBytes
   nonl-proj :      27330. kBytes
   fftplans  :       4700. kBytes
   grid      :      15193. kBytes
   one-center:        217. kBytes
   wavefun   :      38707. kBytes
 
     INWAV:  cpu time    0.0000: real time    0.0001
 Broyden mixing: mesh for mixing (old mesh)
   NGX = 51   NGY = 51   NGZ = 51
  (NGX  =160   NGY  =160   NGZ  =160)
  gives a total of 132651 points

 initial charge density was supplied:
 charge density of overlapping atoms calculated
 number of electron     303.0000000 magnetization       2.0000000
 keeping initial charge density in first step


--------------------------------------------------------------------------------------------------------


 Maximum index for augmentation-charges          182 (set IRDMAX)


--------------------------------------------------------------------------------------------------------


 First call to EWALD:  gamma=   0.125
 Maximum number of real-space cells 3x 3x 3
 Maximum number of reciprocal cells 3x 3x 3

    FEWALD:  cpu time    0.0029: real time    0.0030


--------------------------------------- Iteration      1(   1)  ---------------------------------------


    POTLOK:  cpu time    0.2284: real time    0.2786
    SETDIJ:  cpu time    0.0085: real time    0.0094
     EDDAV:  cpu time   11.0816: real time   11.1813
 BZINTS: Fermi energy:  8.024996;303.000000 electrons
         Band energy:***********;  BLOECHL correction: -0.018935
       DOS:  cpu time    0.1118: real time    0.1124
    --------------------------------------------
      LOOP:  cpu time   11.4303: real time   11.5817

 eigenvalue-minimisations  :  4360
 total energy-change (2. order) : 0.2539711E+04  (-0.1120808E+05)
 number of electron     303.0000000 magnetization       2.0000000
 augmentation part      303.0000000 magnetization       2.0000000

 Free energy of the ion-electron system (eV)
  ---------------------------------------------------
  alpha Z        PSCENC =       167.26608108
  Ewald energy   TEWEN  =     30883.78910150
  -Hartree energ DENC   =    -40554.34273440
  -exchange      EXHF   =         0.00000000
  -V(xc)+E(xc)   XCENC  =      1023.27536814
  PAW double counting   =      9455.23336183    -9546.47664214
  entropy T*S    EENTRO =         0.00000000
  eigenvalues    EBANDS =     -1533.78685093
  atomic energy  EATOM  =     12644.75315347
  Solvation  Ediel_sol  =         0.00000000
  ---------------------------------------------------
  free energy    TOTEN  =      2539.71083855 eV

  energy without entropy =     2539.71083855  energy(sigma->0) =     2539.71083855


--------------------------------------------------------------------------------------------------------




--------------------------------------- Iteration      1(   2)  ---------------------------------------


     EDDAV:  cpu time   14.9977: real time   15.3070
 BZINTS: Fermi energy: -1.891348;303.000000 electrons
         Band energy:***********;  BLOECHL correction:  0.000000
       DOS:  cpu time    0.0049: real time    0.0049
    --------------------------------------------
      LOOP:  cpu time   15.0026: real time   15.3119

 eigenvalue-minimisations  :  5488
 total energy-change (2. order) :-0.2779854E+04  (-0.2655678E+04)
 number of electron     303.0000000 magnetization       2.0000000
 augmentation part      303.0000000 magnetization       2.0000000

 Free energy of the ion-electron system (eV)
  ---------------------------------------------------
  alpha Z        PSCENC =       167.26608108
  Ewald energy   TEWEN  =     30883.78910150
  -Hartree energ DENC   =    -40554.34273440
  -exchange      EXHF   =         0.00000000
  -V(xc)+E(xc)   XCENC  =      1023.27536814
  PAW double counting   =      9455.23336183    -9546.47664214
  entropy T*S    EENTRO =         0.00000000
  eigenvalues    EBANDS =     -4313.64060447
  atomic energy  EATOM  =     12644.75315347
  Solvation  Ediel_sol  =         0.00000000
  ---------------------------------------------------
  free energy    TOTEN  =      -240.14291499 eV

  energy without entropy =     -240.14291499  energy(sigma->0) =     -240.14291499


--------------------------------------------------------------------------------------------------------




--------------------------------------- Iteration      1(   3)  ---------------------------------------


     EDDAV:  cpu time   12.7500: real time   12.9875
 BZINTS: Fermi energy: -4.556544;303.000000 electrons
         Band energy:***********;  BLOECHL correction: -0.041693
       DOS:  cpu time    0.0117: real time    0.0118
    --------------------------------------------
      LOOP:  cpu time   12.7618: real time   12.9992

 eigenvalue-minimisations  :  4560
 total energy-change (2. order) :-0.4600430E+03  (-0.4560360E+03)
 number of electron     303.0000000 magnetization       2.0000000
 augmentation part      303.0000000 magnetization       2.0000000

 Free energy of the ion-electron system (eV)
  ---------------------------------------------------
  alpha Z        PSCENC =       167.26608108
  Ewald energy   TEWEN  =     30883.78910150
  -Hartree energ DENC   =    -40554.34273440
  -exchange      EXHF   =         0.00000000
  -V(xc)+E(xc)   XCENC  =      1023.27536814
  PAW double counting   =      9455.23336183    -9546.47664214
  entropy T*S    EENTRO =         0.00000000
  eigenvalues    EBANDS =     -4773.68358501
  atomic energy  EATOM  =     12644.75315347
  Solvation  Ediel_sol  =         0.00000000
  ---------------------------------------------------
  free energy    TOTEN  =      -700.18589553 eV

  energy without entropy =     -700.18589553  energy(sigma->0) =     -700.18589553


--------------------------------------------------------------------------------------------------------




--------------------------------------- Iteration      1(   4)  ---------------------------------------


     EDDAV:  cpu time   12.8479: real time   13.0273
 BZINTS: Fermi energy: -4.724076;303.000000 electrons
         Band energy:***********;  BLOECHL correction: -0.045271
       DOS:  cpu time    0.0106: real time    0.0107
    --------------------------------------------
      LOOP:  cpu time   12.8585: real time   13.0380

 eigenvalue-minimisations  :  4680
 total energy-change (2. order) :-0.1664786E+02  (-0.1650129E+02)
 number of electron     303.0000000 magnetization       2.0000000
 augmentation part      303.0000000 magnetization       2.0000000

 Free energy of the ion-electron system (eV)
  ---------------------------------------------------
  alpha Z        PSCENC =       167.26608108
  Ewald energy   TEWEN  =     30883.78910150
  -Hartree energ DENC   =    -40554.34273440
  -exchange      EXHF   =         0.00000000
  -V(xc)+E(xc)   XCENC  =      1023.27536814
  PAW double counting   =      9455.23336183    -9546.47664214
  entropy T*S    EENTRO =         0.00000000
  eigenvalues    EBANDS =     -4790.33144725
  atomic energy  EATOM  =     12644.75315347
  Solvation  Ediel_sol  =         0.00000000
  ---------------------------------------------------
  free energy    TOTEN  =      -716.83375777 eV

  energy without entropy =     -716.83375777  energy(sigma->0) =     -716.83375777


--------------------------------------------------------------------------------------------------------




--------------------------------------- Iteration      1(   5)  ---------------------------------------


     EDDAV:  cpu time   14.1588: real time   14.3394
 BZINTS: Fermi energy: -4.733623;303.000000 electrons
         Band energy:***********;  BLOECHL correction: -0.045286
       DOS:  cpu time    0.0104: real time    0.0105
    CHARGE:  cpu time    0.1638: real time    0.1674
    MIXING:  cpu time    0.0051: real time    0.0052
    --------------------------------------------
      LOOP:  cpu time   14.3382: real time   14.5225

 eigenvalue-minimisations  :  5256
 total energy-change (2. order) :-0.5391008E+00  (-0.5371428E+00)
 number of electron     303.0000008 magnetization       0.0533490
 augmentation part       12.4718135 magnetization       0.0873014

 Broyden mixing:
  rms(total) = 0.47924E+01    rms(broyden)= 0.47918E+01
  rms(prec ) = 0.54778E+01
  weight for this iteration     100.00

 Free energy of the ion-electron system (eV)
  ---------------------------------------------------
  alpha Z        PSCENC =       167.26608108
  Ewald energy   TEWEN  =     30883.78910150
  -Hartree energ DENC   =    -40554.34273440
  -exchange      EXHF   =         0.00000000
  -V(xc)+E(xc)   XCENC  =      1023.27536814
  PAW double counting   =      9455.23336183    -9546.47664214
  entropy T*S    EENTRO =         0.00000000
  eigenvalues    EBANDS =     -4790.87054803
  atomic energy  EATOM  =     12644.75315347
  Solvation  Ediel_sol  =         0.00000000
  ---------------------------------------------------
  free energy    TOTEN  =      -717.37285855 eV

  energy without entropy =     -717.37285855  energy(sigma->0) =     -717.37285855


--------------------------------------------------------------------------------------------------------




--------------------------------------- Iteration      1(   6)  ---------------------------------------


    POTLOK:  cpu time    0.1480: real time    0.1504
    SETDIJ:  cpu time    0.0084: real time    0.0084
     EDDAV:  cpu time   12.4502: real time   12.5483
 BZINTS: Fermi energy: -5.549181;303.000000 electrons
         Band energy:***********;  BLOECHL correction: -0.012507
       DOS:  cpu time    0.0119: real time    0.0119
    CHARGE:  cpu time    0.2061: real time    0.2143
    MIXING:  cpu time    0.0037: real time    0.0041
    --------------------------------------------
      LOOP:  cpu time   12.8283: real time   12.9374

 eigenvalue-minimisations  :  4768
 total energy-change (2. order) : 0.5921380E+01  (-0.7116647E+01)
 number of electron     303.0000025 magnetization       0.0382140
 augmentation part       17.8455248 magnetization       0.0627633

 Broyden mixing:
  rms(total) = 0.72134E+01    rms(broyden)= 0.72131E+01
  rms(prec ) = 0.82430E+01
  weight for this iteration     100.00

 eigenvalues of (default mixing * dielectric matrix)
  average eigenvalue GAMMA=   0.2801
  0.2801

 Free energy of the ion-electron system (eV)
  ---------------------------------------------------
  alpha Z        PSCENC =       167.26608108
  Ewald energy   TEWEN  =     30883.78910150
  -Hartree energ DENC   =    -40914.64066488
  -exchange      EXHF   =         0.00000000
  -V(xc)+E(xc)   XCENC  =      1035.87973184
  PAW double counting   =     13272.77684466   -13364.36736742
  entropy T*S    EENTRO =         0.00000000
  eigenvalues    EBANDS =     -4436.90835902
  atomic energy  EATOM  =     12644.75315347
  Solvation  Ediel_sol  =         0.00000000
  ---------------------------------------------------
  free energy    TOTEN  =      -711.45147877 eV

  energy without entropy =     -711.45147877  energy(sigma->0) =     -711.45147877


--------------------------------------------------------------------------------------------------------




--------------------------------------- Iteration      1(   7)  ---------------------------------------


    POTLOK:  cpu time    0.1358: real time    0.1422
    SETDIJ:  cpu time    0.0083: real time    0.0083
     EDDAV:  cpu time   13.5087: real time   13.6400
 BZINTS: Fermi energy: -4.015349;303.000000 electrons
         Band energy:***********;  BLOECHL correction: -0.009499
       DOS:  cpu time    0.0119: real time    0.0120
    CHARGE:  cpu time    0.1616: real time    0.1671
    MIXING:  cpu time    0.0034: real time    0.0037
    --------------------------------------------
      LOOP:  cpu time   13.8298: real time   13.9733

 eigenvalue-minimisations  :  5304
 total energy-change (2. order) : 0.3604048E+02  (-0.7668339E+01)
 number of electron     303.0000011 magnetization       0.5006621
 augmentation part       13.9842401 magnetization       0.2237133

 Broyden mixing:
  rms(total) = 0.25365E+01    rms(broyden)= 0.25360E+01
  rms(prec ) = 0.27718E+01
  weight for this iteration     100.00

 eigenvalues of (default mixing * dielectric matrix)
  average eigenvalue GAMMA=   0.7554
  1.2287  0.2821

 Free energy of the ion-electron system (eV)
  ---------------------------------------------------
  alpha Z        PSCENC =       167.26608108
  Ewald energy   TEWEN  =     30883.78910150
  -Hartree energ DENC   =    -41066.97337086
  -exchange      EXHF   =         0.00000000
  -V(xc)+E(xc)   XCENC  =      1040.22039697
  PAW double counting   =     14453.08158106   -14548.99206827
  entropy T*S    EENTRO =         0.00000000
  eigenvalues    EBANDS =     -4248.55586946
  atomic energy  EATOM  =     12644.75315347
  Solvation  Ediel_sol  =         0.00000000
  ---------------------------------------------------
  free energy    TOTEN  =      -675.41099451 eV

  energy without entropy =     -675.41099451  energy(sigma->0) =     -675.41099451


--------------------------------------------------------------------------------------------------------




--------------------------------------- Iteration      1(   8)  ---------------------------------------


    POTLOK:  cpu time    0.1417: real time    0.1442
    SETDIJ:  cpu time    0.0083: real time    0.0083
     EDDAV:  cpu time   12.5401: real time   12.6451
 BZINTS: Fermi energy: -2.484059;303.000000 electrons
         Band energy:***********;  BLOECHL correction: -0.032296
       DOS:  cpu time    0.0105: real time    0.0105
    CHARGE:  cpu time    0.1957: real time    0.1979
    MIXING:  cpu time    0.0038: real time    0.0038
    --------------------------------------------
      LOOP:  cpu time   12.9000: real time   13.0098

 eigenvalue-minimisations  :  4792
 total energy-change (2. order) : 0.6697442E+01  (-0.3064806E+01)
 number of electron     303.0000011 magnetization       0.1173249
 augmentation part       12.4811146 magnetization       0.0843023

 Broyden mixing:
  rms(total) = 0.22668E+01    rms(broyden)= 0.22665E+01
  rms(prec ) = 0.26273E+01
  weight for this iteration     100.00

 eigenvalues of (default mixing * dielectric matrix)
  average eigenvalue GAMMA=   1.2224
  2.7977  0.3161  0.5536

 Free energy of the ion-electron system (eV)
  ---------------------------------------------------
  alpha Z        PSCENC =       167.26608108
  Ewald energy   TEWEN  =     30883.78910150
  -Hartree energ DENC   =    -41387.51639717
  -exchange      EXHF   =         0.00000000
  -V(xc)+E(xc)   XCENC  =      1051.54278739
  PAW double counting   =     18886.13466427   -18985.50473816
  entropy T*S    EENTRO =         0.00000000
  eigenvalues    EBANDS =     -3929.17820451
  atomic energy  EATOM  =     12644.75315347
  Solvation  Ediel_sol  =         0.00000000
  ---------------------------------------------------
  free energy    TOTEN  =      -668.71355213 eV

  energy without entropy =     -668.71355213  energy(sigma->0) =     -668.71355213


--------------------------------------------------------------------------------------------------------




--------------------------------------- Iteration      1(   9)  ---------------------------------------


    POTLOK:  cpu time    0.1361: real time    0.1383
    SETDIJ:  cpu time    0.0098: real time    0.0099
     EDDAV:  cpu time   12.3228: real time   12.4245
 BZINTS: Fermi energy: -2.739858;303.000000 electrons
         Band energy:***********;  BLOECHL correction: -0.059039
       DOS:  cpu time    0.0113: real time    0.0113
    CHARGE:  cpu time    0.1842: real time    0.1853
    MIXING:  cpu time    0.0039: real time    0.0039
    --------------------------------------------
      LOOP:  cpu time   12.6679: real time   12.7732

 eigenvalue-minimisations  :  4648
 total energy-change (2. order) : 0.3767737E+01  (-0.2224696E+01)
 number of electron     303.0000012 magnetization       0.0155134
 augmentation part       14.4469705 magnetization      -0.1347868

 Broyden mixing:
  rms(total) = 0.15640E+01    rms(broyden)= 0.15632E+01
  rms(prec ) = 0.19342E+01
  weight for this iteration     100.00

 eigenvalues of (default mixing * dielectric matrix)
  average eigenvalue GAMMA=   1.2184
  3.1608  1.0042  0.3543  0.3543

 Free energy of the ion-electron system (eV)
  ---------------------------------------------------
  alpha Z        PSCENC =       167.26608108
  Ewald energy   TEWEN  =     30883.78910150
  -Hartree energ DENC   =    -41772.79903884
  -exchange      EXHF   =         0.00000000
  -V(xc)+E(xc)   XCENC  =      1065.74385795
  PAW double counting   =     26539.27844719   -26641.84736720
  entropy T*S    EENTRO =         0.00000000
  eigenvalues    EBANDS =     -3551.13005017
  atomic energy  EATOM  =     12644.75315347
  Solvation  Ediel_sol  =         0.00000000
  ---------------------------------------------------
  free energy    TOTEN  =      -664.94581502 eV

  energy without entropy =     -664.94581502  energy(sigma->0) =     -664.94581502


--------------------------------------------------------------------------------------------------------




--------------------------------------- Iteration      1(  10)  ---------------------------------------


    POTLOK:  cpu time    0.1451: real time    0.1474
    SETDIJ:  cpu time    0.0099: real time    0.0100
     EDDAV:  cpu time   13.4353: real time   13.5185
 BZINTS: Fermi energy: -1.940677;303.000000 electrons
         Band energy:***********;  BLOECHL correction: -0.003554
       DOS:  cpu time    0.0118: real time    0.0118
    CHARGE:  cpu time    0.1605: real time    0.1609
    MIXING:  cpu time    0.0038: real time    0.0038
    --------------------------------------------
      LOOP:  cpu time   13.7664: real time   13.8523

 eigenvalue-minimisations  :  5288
 total energy-change (2. order) : 0.1485206E+01  (-0.9440593E+00)
 number of electron     303.0000012 magnetization       0.0031723
 augmentation part       13.0176643 magnetization      -0.0490190

 Broyden mixing:
  rms(total) = 0.74727E+00    rms(broyden)= 0.74660E+00
  rms(prec ) = 0.82306E+00
  weight for this iteration     100.00

 eigenvalues of (default mixing * dielectric matrix)
  average eigenvalue GAMMA=   1.2751
  3.5249  1.3805  0.7800  0.3450  0.3450

 Free energy of the ion-electron system (eV)
  ---------------------------------------------------
  alpha Z        PSCENC =       167.26608108
  Ewald energy   TEWEN  =     30883.78910150
  -Hartree energ DENC   =    -41790.10286163
  -exchange      EXHF   =         0.00000000
  -V(xc)+E(xc)   XCENC  =      1066.32147652
  PAW double counting   =     28348.36782363   -28451.21155627
  entropy T*S    EENTRO =         0.00000000
  eigenvalues    EBANDS =     -3532.64382690
  atomic energy  EATOM  =     12644.75315347
  Solvation  Ediel_sol  =         0.00000000
  ---------------------------------------------------
  free energy    TOTEN  =      -663.46060862 eV

  energy without entropy =     -663.46060862  energy(sigma->0) =     -663.46060862


--------------------------------------------------------------------------------------------------------




--------------------------------------- Iteration      1(  11)  ---------------------------------------


    POTLOK:  cpu time    0.1358: real time    0.1379
    SETDIJ:  cpu time    0.0100: real time    0.0100
     EDDAV:  cpu time   13.1163: real time   13.2557
 BZINTS: Fermi energy: -1.942077;303.000000 electrons
         Band energy:***********;  BLOECHL correction: -0.005486
       DOS:  cpu time    0.0120: real time    0.0120
    CHARGE:  cpu time    0.1628: real time    0.1640
    MIXING:  cpu time    0.0038: real time    0.0039
    --------------------------------------------
      LOOP:  cpu time   13.4408: real time   13.5836

 eigenvalue-minimisations  :  5000
 total energy-change (2. order) : 0.1901580E+00  (-0.1029697E+00)
 number of electron     303.0000013 magnetization      -0.5334030
 augmentation part       13.1191382 magnetization      -0.2582275

 Broyden mixing:
  rms(total) = 0.54733E+00    rms(broyden)= 0.54720E+00
  rms(prec ) = 0.61165E+00
  weight for this iteration     100.00

 eigenvalues of (default mixing * dielectric matrix)
  average eigenvalue GAMMA=   1.2537
  3.5880  1.6793  1.0577  0.5073  0.3448  0.3448

 Free energy of the ion-electron system (eV)
  ---------------------------------------------------
  alpha Z        PSCENC =       167.26608108
  Ewald energy   TEWEN  =     30883.78910150
  -Hartree energ DENC   =    -41762.38916566
  -exchange      EXHF   =         0.00000000
  -V(xc)+E(xc)   XCENC  =      1065.92293197
  PAW double counting   =     30064.38514414   -30166.77989231
  entropy T*S    EENTRO =         0.00000000
  eigenvalues    EBANDS =     -3560.21780483
  atomic energy  EATOM  =     12644.75315347
  Solvation  Ediel_sol  =         0.00000000
  ---------------------------------------------------
  free energy    TOTEN  =      -663.27045065 eV

  energy without entropy =     -663.27045065  energy(sigma->0) =     -663.27045065


--------------------------------------------------------------------------------------------------------




--------------------------------------- Iteration      1(  12)  ---------------------------------------


    POTLOK:  cpu time    0.1355: real time    0.1375
    SETDIJ:  cpu time    0.0089: real time    0.0095
     EDDAV:  cpu time   12.9260: real time   13.0298
 BZINTS: Fermi energy: -2.241852;303.000000 electrons
         Band energy:***********;  BLOECHL correction: -0.002768
       DOS:  cpu time    0.0128: real time    0.0130
    CHARGE:  cpu time    0.1637: real time    0.1648
    MIXING:  cpu time    0.0040: real time    0.0040
    --------------------------------------------
      LOOP:  cpu time   13.2508: real time   13.3586

 eigenvalue-minimisations  :  4824
 total energy-change (2. order) : 0.6038027E-01  (-0.7466535E-01)
 number of electron     303.0000013 magnetization      -0.9663501
 augmentation part       13.4700689 magnetization      -0.3748123

 Broyden mixing:
  rms(total) = 0.44649E+00    rms(broyden)= 0.44614E+00
  rms(prec ) = 0.46559E+00
  weight for this iteration     100.00

 eigenvalues of (default mixing * dielectric matrix)
  average eigenvalue GAMMA=   1.1677
  3.5939  1.6088  1.2167  0.3520  0.3520  0.5251  0.5251

 Free energy of the ion-electron system (eV)
  ---------------------------------------------------
  alpha Z        PSCENC =       167.26608108
  Ewald energy   TEWEN  =     30883.78910150
  -Hartree energ DENC   =    -41711.88760099
  -exchange      EXHF   =         0.00000000
  -V(xc)+E(xc)   XCENC  =      1064.43161270
  PAW double counting   =     31238.66149959   -31340.41767350
  entropy T*S    EENTRO =         0.00000000
  eigenvalues    EBANDS =     -3609.80624424
  atomic energy  EATOM  =     12644.75315347
  Solvation  Ediel_sol  =         0.00000000
  ---------------------------------------------------
  free energy    TOTEN  =      -663.21007038 eV

  energy without entropy =     -663.21007038  energy(sigma->0) =     -663.21007038


--------------------------------------------------------------------------------------------------------




--------------------------------------- Iteration      1(  13)  ---------------------------------------


    POTLOK:  cpu time    0.1359: real time    0.1381
    SETDIJ:  cpu time    0.0096: real time    0.0096
     EDDAV:  cpu time   12.7288: real time   12.8343
 BZINTS: Fermi energy: -2.247061;303.000000 electrons
         Band energy:***********;  BLOECHL correction:  0.000000
       DOS:  cpu time    0.0078: real time    0.0078
    CHARGE:  cpu time    0.1632: real time    0.1642
    MIXING:  cpu time    0.0037: real time    0.0037
    --------------------------------------------
      LOOP:  cpu time   13.0490: real time   13.1578

 eigenvalue-minimisations  :  4704
 total energy-change (2. order) :-0.6548221E-01  (-0.2158352E-01)
 number of electron     303.0000012 magnetization      -0.9797824
 augmentation part       13.4508774 magnetization      -0.4917811

 Broyden mixing:
  rms(total) = 0.32309E+00    rms(broyden)= 0.32299E+00
  rms(prec ) = 0.33890E+00
  weight for this iteration     100.00

 eigenvalues of (default mixing * dielectric matrix)
  average eigenvalue GAMMA=   1.3073
  3.6614  1.8692  1.8692  0.8584  0.8584  0.3499  0.3499  0.6420

 Free energy of the ion-electron system (eV)
  ---------------------------------------------------
  alpha Z        PSCENC =       167.26608108
  Ewald energy   TEWEN  =     30883.78910150
  -Hartree energ DENC   =    -41702.07277469
  -exchange      EXHF   =         0.00000000
  -V(xc)+E(xc)   XCENC  =      1064.15116399
  PAW double counting   =     31552.94768230   -31654.52096804
  entropy T*S    EENTRO =         0.00000000
  eigenvalues    EBANDS =     -3619.58899220
  atomic energy  EATOM  =     12644.75315347
  Solvation  Ediel_sol  =         0.00000000
  ---------------------------------------------------
  free energy    TOTEN  =      -663.27555259 eV

  energy without entropy =     -663.27555259  energy(sigma->0) =     -663.27555259


--------------------------------------------------------------------------------------------------------




--------------------------------------- Iteration      1(  14)  ---------------------------------------


    POTLOK:  cpu time    0.1426: real time    0.1451
    SETDIJ:  cpu time    0.0099: real time    0.0103
     EDDAV:  cpu time   13.2304: real time   13.3064
 BZINTS: Fermi energy: -2.272068;303.000000 electrons
         Band energy:***********;  BLOECHL correction:  0.000000
       DOS:  cpu time    0.0080: real time    0.0081
    CHARGE:  cpu time    0.1627: real time    0.1632
    MIXING:  cpu time    0.0042: real time    0.0042
    --------------------------------------------
      LOOP:  cpu time   13.5577: real time   13.6373

 eigenvalue-minimisations  :  5176
 total energy-change (2. order) :-0.1135826E-01  (-0.5847063E-02)
 number of electron     303.0000012 magnetization      -1.0420983
 augmentation part       13.4486595 magnetization      -0.6573224

 Broyden mixing:
  rms(total) = 0.22181E+00    rms(broyden)= 0.22177E+00
  rms(prec ) = 0.23822E+00
  weight for this iteration     100.00

 eigenvalues of (default mixing * dielectric matrix)
  average eigenvalue GAMMA=   1.3295
  3.7746  2.3501  1.5639  1.1169  1.1169  0.3502  0.3502  0.6711  0.6711

 Free energy of the ion-electron system (eV)
  ---------------------------------------------------
  alpha Z        PSCENC =       167.26608108
  Ewald energy   TEWEN  =     30883.78910150
  -Hartree energ DENC   =    -41700.36836426
  -exchange      EXHF   =         0.00000000
  -V(xc)+E(xc)   XCENC  =      1064.11958454
  PAW double counting   =     31764.42879283   -31865.86451600
  entropy T*S    EENTRO =         0.00000000
  eigenvalues    EBANDS =     -3621.41074400
  atomic energy  EATOM  =     12644.75315347
  Solvation  Ediel_sol  =         0.00000000
  ---------------------------------------------------
  free energy    TOTEN  =      -663.28691085 eV

  energy without entropy =     -663.28691085  energy(sigma->0) =     -663.28691085


--------------------------------------------------------------------------------------------------------




--------------------------------------- Iteration      1(  15)  ---------------------------------------


    POTLOK:  cpu time    0.1369: real time    0.1395
    SETDIJ:  cpu time    0.0084: real time    0.0085
     EDDAV:  cpu time   11.9716: real time   12.0966
 BZINTS: Fermi energy: -2.287071;303.000000 electrons
         Band energy:***********;  BLOECHL correction:  0.000000
       DOS:  cpu time    0.0078: real time    0.0078
    CHARGE:  cpu time    0.1651: real time    0.1657
    MIXING:  cpu time    0.0040: real time    0.0040
    --------------------------------------------
      LOOP:  cpu time   12.2938: real time   12.4220

 eigenvalue-minimisations  :  4576
 total energy-change (2. order) : 0.5510674E-02  (-0.2886328E-02)
 number of electron     303.0000012 magnetization      -1.0092357
 augmentation part       13.4172465 magnetization      -0.6446209

 Broyden mixing:
  rms(total) = 0.14966E+00    rms(broyden)= 0.14965E+00
  rms(prec ) = 0.15914E+00
  weight for this iteration     100.00

 eigenvalues of (default mixing * dielectric matrix)
  average eigenvalue GAMMA=   1.3456
  3.8088  2.4731  1.5913  1.5913  1.1404  0.3501  0.3501  0.7395  0.7395  0.6719

 Free energy of the ion-electron system (eV)
  ---------------------------------------------------
  alpha Z        PSCENC =       167.26608108
  Ewald energy   TEWEN  =     30883.78910150
  -Hartree energ DENC   =    -41696.33725081
  -exchange      EXHF   =         0.00000000
  -V(xc)+E(xc)   XCENC  =      1063.98316823
  PAW double counting   =     31870.98857305   -31972.32201321
  entropy T*S    EENTRO =         0.00000000
  eigenvalues    EBANDS =     -3625.40221348
  atomic energy  EATOM  =     12644.75315347
  Solvation  Ediel_sol  =         0.00000000
  ---------------------------------------------------
  free energy    TOTEN  =      -663.28140018 eV

  energy without entropy =     -663.28140018  energy(sigma->0) =     -663.28140018


--------------------------------------------------------------------------------------------------------




--------------------------------------- Iteration      1(  16)  ---------------------------------------


    POTLOK:  cpu time    0.1383: real time    0.1403
    SETDIJ:  cpu time    0.0080: real time    0.0081
     EDDAV:  cpu time   12.5859: real time   12.8222
 BZINTS: Fermi energy: -2.282070;303.000000 electrons
         Band energy:***********;  BLOECHL correction:  0.000000
       DOS:  cpu time    0.0076: real time    0.0077
    CHARGE:  cpu time    0.1617: real time    0.1664
    MIXING:  cpu time    0.0042: real time    0.0044
    --------------------------------------------
      LOOP:  cpu time   12.9057: real time   13.1491

 eigenvalue-minimisations  :  4664
 total energy-change (2. order) : 0.1744725E-03  (-0.5353671E-03)
 number of electron     303.0000012 magnetization      -0.9952386
 augmentation part       13.4031856 magnetization      -0.6210304

 Broyden mixing:
  rms(total) = 0.12311E+00    rms(broyden)= 0.12311E+00
  rms(prec ) = 0.12936E+00
  weight for this iteration     100.00

 eigenvalues of (default mixing * dielectric matrix)
  average eigenvalue GAMMA=   1.3230
  3.7224  2.1619  2.0171  1.4523  1.4523  0.3502  0.3502  0.8327  0.8327  0.6906
  0.6906

 Free energy of the ion-electron system (eV)
  ---------------------------------------------------
  alpha Z        PSCENC =       167.26608108
  Ewald energy   TEWEN  =     30883.78910150
  -Hartree energ DENC   =    -41697.11990689
  -exchange      EXHF   =         0.00000000
  -V(xc)+E(xc)   XCENC  =      1063.99244814
  PAW double counting   =     31884.44113296   -31985.73547542
  entropy T*S    EENTRO =         0.00000000
  eigenvalues    EBANDS =     -3624.66776055
  atomic energy  EATOM  =     12644.75315347
  Solvation  Ediel_sol  =         0.00000000
  ---------------------------------------------------
  free energy    TOTEN  =      -663.28122570 eV

[...]
   0.119E+02 -.348E+01 0.716E+01   -.112E+02 0.321E+01 -.694E+01   -.644E+00 0.291E+00 -.194E+00   -.216E-01 -.487E-02 -.152E-01
   0.531E+02 0.151E+02 0.630E+02   -.529E+02 -.156E+02 -.648E+02   -.552E-01 0.646E+00 0.183E+01   -.966E-01 -.811E-01 -.669E-01
   0.510E+02 -.197E+02 0.660E+02   -.504E+02 0.205E+02 -.674E+02   -.406E+00 -.905E+00 0.142E+01   -.125E+00 0.250E-01 -.775E-01
   -.392E+02 0.157E+02 0.119E+02   0.378E+02 -.159E+02 -.116E+02   0.139E+01 0.259E+00 -.313E+00   0.712E-01 -.426E-01 -.441E-01
   -.361E+02 -.234E+02 0.814E+01   0.341E+02 0.233E+02 -.767E+01   0.191E+01 0.888E-01 -.424E+00   0.954E-01 0.219E-01 -.471E-01
   -.866E+01 0.117E+02 0.912E+01   0.801E+01 -.132E+02 -.913E+01   0.641E+00 0.143E+01 0.274E-01   0.969E-02 0.192E-01 -.960E-02
   0.882E+01 0.837E+01 0.728E+01   -.145E+02 -.115E+02 -.700E+01   0.570E+01 0.313E+01 -.260E+00   0.212E-01 0.639E-02 -.979E-02
   -.783E+01 -.579E+01 0.963E+01   0.758E+01 0.586E+01 -.969E+01   0.237E+00 -.590E-01 0.350E-01   -.294E-03 0.259E-02 -.760E-02
   -.397E+01 -.318E+02 0.847E+01   0.382E+01 0.380E+02 -.852E+01   0.181E+00 -.629E+01 0.567E-01   0.138E-02 -.230E-01 -.522E-02
   -.367E+01 -.313E+01 0.102E+02   0.506E+01 0.354E+01 -.102E+02   -.138E+01 -.402E+00 0.532E-01   -.235E-01 -.106E-02 -.730E-02
   -.277E+01 -.860E+01 0.110E+02   0.352E+01 0.905E+01 -.110E+02   -.792E+00 -.479E+00 0.127E-01   -.177E-01 -.965E-02 -.622E-02
   0.230E+02 -.114E+02 0.143E+02   -.226E+02 0.114E+02 -.140E+02   -.427E+00 0.222E-01 -.308E+00   -.353E-01 -.506E-02 -.271E-01
   0.102E+02 -.168E+02 0.227E+02   -.973E+01 0.169E+02 -.228E+02   -.437E+00 -.343E-01 0.968E-01   -.287E-01 -.292E-02 -.158E-01
   -.382E+01 -.560E+02 0.142E+03   0.115E+02 0.523E+02 -.144E+03   -.752E+01 0.350E+01 0.139E+01   -.164E+00 0.179E+00 -.166E+00
   0.255E+01 -.372E+02 0.569E+02   -.214E+01 0.364E+02 -.569E+02   -.423E+00 0.745E+00 0.339E-01   -.309E-01 0.360E-01 -.475E-01
   -.117E+02 -.536E+02 -.639E+00   0.477E+01 0.491E+02 0.263E+01   0.666E+01 0.434E+01 -.187E+01   0.211E+00 0.156E+00 -.101E+00
   -.530E+01 -.321E+02 0.845E+01   0.480E+01 0.305E+02 -.850E+01   0.444E+00 0.159E+01 0.671E-01   0.563E-01 0.267E-01 -.324E-01
   -.117E+02 -.115E+02 0.876E+01   0.970E+01 0.117E+02 -.885E+01   0.202E+01 -.142E+00 0.116E+00   0.337E-01 -.387E-02 -.160E-01
   -.380E+01 -.203E+02 0.749E+01   0.276E+01 0.206E+02 -.737E+01   0.103E+01 -.355E+00 -.103E+00   0.259E-01 -.110E-01 -.106E-01
   -.699E+00 -.151E+02 0.925E+01   -.588E+00 0.161E+02 -.927E+01   0.124E+01 -.874E+00 0.320E-01   0.192E-01 -.252E-01 -.614E-02
   -.285E+00 -.630E+01 0.105E+02   0.210E+00 0.698E+01 -.105E+02   0.531E-01 -.629E+00 0.331E-01   0.145E-01 -.165E-01 -.538E-02
   -.380E+01 -.118E+02 0.951E+01   0.481E+01 0.128E+02 -.955E+01   -.963E+00 -.973E+00 0.481E-01   -.125E-01 -.187E-01 -.470E-02
   -.280E+01 -.213E+01 0.853E+01   0.286E+01 0.284E+01 -.850E+01   -.107E-01 -.713E+00 -.355E-01   -.682E-02 -.123E-01 -.501E-02
   0.263E+01 -.755E+01 0.150E+02   -.209E+01 0.787E+01 -.150E+02   -.502E+00 -.300E+00 0.423E-01   -.250E-01 -.119E-01 -.771E-02
   0.733E+00 -.450E+01 0.132E+02   -.620E+00 0.474E+01 -.132E+02   -.129E+00 -.239E+00 0.172E-01   -.173E-01 -.102E-01 -.632E-02
   0.519E+01 -.174E+02 0.343E+02   -.452E+01 0.172E+02 -.343E+02   -.619E+00 0.195E+00 0.109E+00   -.275E-01 0.549E-02 -.193E-01
   0.341E+01 -.112E+02 0.203E+02   -.334E+01 0.112E+02 -.202E+02   -.136E+00 0.660E-01 0.179E-02   -.114E-01 0.357E-02 -.103E-01
   -.396E+01 -.218E+02 0.215E+02   0.417E+01 0.209E+02 -.212E+02   -.190E+00 0.802E+00 -.252E+00   0.139E-01 0.393E-01 -.288E-01
   0.412E+00 -.150E+02 0.163E+02   -.396E+00 0.145E+02 -.163E+02   -.303E-01 0.489E+00 0.219E-01   0.763E-02 0.984E-02 -.128E-01
   0.709E+00 -.176E+02 0.955E+01   -.185E+01 0.173E+02 -.959E+01   0.105E+01 0.266E+00 0.439E-01   0.322E-01 -.597E-02 -.136E-01
   -.219E+01 -.913E+01 0.129E+02   0.199E+01 0.899E+01 -.130E+02   0.202E+00 0.135E+00 0.119E+00   0.148E-01 -.761E-02 -.796E-02
   0.498E+02 -.860E+02 -.295E+03   -.405E+02 0.842E+02 0.288E+03   -.938E+01 0.193E+01 0.753E+01   0.131E-01 -.146E+00 -.390E+00
   0.224E+02 -.134E+02 -.264E+03   -.264E+02 0.182E+02 0.246E+03   0.409E+01 -.466E+01 0.183E+02   0.741E-01 -.895E-01 0.247E+00
   -.446E+02 0.613E+02 -.680E+03   0.559E+02 -.742E+02 0.736E+03   -.112E+02 0.129E+02 -.563E+02   0.413E-01 -.463E-01 0.113E+00
 -----------------------------------------------------------------------------------------------
   0.146E+02 -.112E+02 0.315E+02   0.711E-13 0.199E-12 0.227E-12   -.147E+02 0.115E+02 -.299E+02   0.102E+00 -.217E+00 -.155E+01
 
 
 POSITION                                       TOTAL-FORCE (eV/Angst)
 -----------------------------------------------------------------------------------
      7.42274     12.74314      7.38016        -0.001386      0.012495      0.006250
     -0.00963      1.41403      7.36959         0.070323     -0.019432     -0.007280
      2.47077      0.01841      7.37850        -0.039278      0.000020     -0.001860
      2.47197      1.44224      7.38005        -0.005755     -0.001807     -0.019276
      4.94004      0.02416      7.37475         0.010923      0.000519     -0.001957
      4.94389      1.44846      7.40582        -0.028872     -0.005548     -0.015147
      7.41671      0.01686      7.34478         0.050124      0.027569     -0.000058
      7.41730      1.44115      7.37627        -0.004251     -0.062419     -0.000226
      2.47057     12.74144      7.33231         0.021492      0.008106     -0.004435
      9.90179      1.41264      7.35134        -0.034477     -0.030755      0.014153
      4.94791     12.73469      7.37569        -0.018863     -0.002077     -0.001049
     12.37666      1.40616      7.36207        -0.021264     -0.004239      0.012568
     13.61174      2.11894      7.36461        -0.016830      0.039172      0.006017
     -1.25378      3.53905      7.37176        -0.009688     -0.015278     -0.005321
      1.22824      2.13411      7.36850        -0.072152      0.029096     -0.004708
      1.22558      3.55668      7.35564         0.017628     -0.016594      0.003393
      3.70857      2.16528      7.41122         0.018955     -0.009985      0.000108
      3.71146      3.58864      7.45316         0.044138      0.043967      0.001927
      6.17983      2.16143      7.41493         0.007700      0.017663      0.017429
      6.17996      3.59006      7.48230        -0.058475      0.010149      0.004372
      8.66433      2.13042      7.37821        -0.004744     -0.011711      0.008223
      8.66471      3.54981      7.42126        -0.023791      0.000405      0.000523
     11.14028      2.11983      7.36263         0.019229      0.028509      0.009447
     11.13952      3.54164      7.38272         0.032168     -0.030733     -0.006922
     12.37153      4.25389      7.38243        -0.038665      0.021580      0.004251
     -2.49423      5.67655      7.39076        -0.038853      0.007104     -0.006840
     -0.02137      4.25076      7.37324         0.035428     -0.011311     -0.011710
     -0.03768      5.66938      7.39379         0.002251      0.015933     -0.006124
      2.46451      4.28308      7.37246        -0.034523      0.022092      0.038271
      2.43346      5.69036      7.37526         0.047413      0.023114     -0.035925
      4.94000      4.33160      7.55465        -0.002981     -0.026524     -0.014537
      4.96111      5.75880      7.71740        -0.013599      0.028650     -0.016795
      7.43671      4.26470      7.48103         0.037237     -0.029299     -0.001348
      7.45325      5.68566      7.52092         0.002687      0.016041      0.003258
      9.90623      4.25461      7.41025        -0.014406      0.008608     -0.008173
      9.91067      5.67061      7.42458         0.010160      0.004628     -0.021785
     11.13074      6.39364      7.40205         0.010187     -0.014551      0.004570
     -3.73411      7.80916      7.39618         0.010267      0.008188      0.014529
     -1.26866      6.38264      7.39367        -0.009102      0.004500      0.018217
     -1.27664      7.80207      7.38348         0.004148      0.015170      0.011807
      1.18966      6.37565      7.34704         0.012081     -0.006664     -0.004909
      1.18641      7.81422      7.31328         0.036494      0.016783     -0.002654
      6.23913      6.38573      7.62617         0.014474      0.021576     -0.016250
      6.24637      7.80314      7.61589        -0.047766     -0.047650      0.007727
      8.69364      6.39501      7.46574         0.008610     -0.045945      0.014211
      8.69705      7.80871      7.46286         0.025546      0.047294      0.011908
     -4.95014      8.51187      7.41778        -0.016048      0.011218     -0.024512
     -4.95728      9.91984      7.40074         0.030230     -0.045572      0.003586
     -2.50574      8.51828      7.37536        -0.027699      0.011899      0.009355
     -2.48713      9.93900      7.36126        -0.062436     -0.036646      0.016895
     -0.04677      8.51759      7.36021        -0.023200     -0.038357     -0.026183
     -0.02298      9.93310      7.32285         0.010883      0.023863     -0.011147
      2.42945      8.49133      7.25653         0.054575     -0.022953     -0.035231
      2.46226      9.89591      7.29481        -0.031374     -0.038190      0.017087
      4.97311      8.43314      7.69450        -0.021732     -0.040951      0.019571
      4.94075      9.85167      7.51542        -0.015611      0.022209     -0.016492
      7.46515      8.51425      7.50636         0.045239      0.000184      0.010564
      7.43213      9.92772      7.45964         0.021550     -0.004151      0.006283
      8.67039     10.62691      7.41109        -0.022362      0.016926      0.004667
     -6.19012     12.04824      7.38587        -0.009569      0.043150      0.004946
     -3.72760     10.63313      7.37563         0.022082      0.020821      0.007789
     -3.72920     12.06022      7.37626         0.042167     -0.014195     -0.010847
     -1.25758     10.64680      7.33943         0.019081      0.012193      0.004495
     -1.25380     12.06813      7.34841        -0.032947     -0.016407      0.005755
      1.22272     10.62641      7.29493         0.025124      0.009384     -0.000142
      1.22568     12.04871      7.31977        -0.078920     -0.005091      0.006309
      3.71077     10.59454      7.39532         0.039104     -0.016749     -0.009783
      3.71003     12.01398      7.36265        -0.005312      0.014996      0.007456
      6.18090     10.59759      7.45362        -0.061482      0.028528     -0.005120
      6.18283     12.02609      7.39363         0.008422     -0.016627      0.021726
      3.48745      7.10693      8.12319        -0.031178      0.024067      0.073034
      3.91439      6.60970      9.91988         0.073839     -0.000953     -0.087441
      4.13746      6.35319     11.03347         0.037632     -0.029009      0.009511
 -----------------------------------------------------------------------------------
    total drift:                               -0.019094      0.010616      0.020790


--------------------------------------------------------------------------------------------------------



  FREE ENERGIE OF THE ION-ELECTRON SYSTEM (eV)
  ---------------------------------------------------
  free  energy   TOTEN  =      -669.85127099 eV

  energy  without entropy=     -669.85127099  energy(sigma->0) =     -669.85127099
 


--------------------------------------------------------------------------------------------------------


    POTLOK:  cpu time    0.1465: real time    0.1469


--------------------------------------------------------------------------------------------------------


 stress matrix after NEB project (eV)
     -9.23475     -0.53922      0.21050
     -0.53922     -1.23412     -0.06432
      0.21050     -0.06432     -3.07080
  FORCES: max atom, RMS     0.114451    0.044796
  FORCE total and by dimension    0.382739    0.087441
  Stress total and by dimension    9.844387    9.234752
     LOOP+:  cpu time  259.8308: real time  262.6566
    4ORBIT:  cpu time    0.0000: real time    0.0000
 


 total charge     
 
# of ion       s       p       d       tot
------------------------------------------
    1        0.863   1.779   0.000   2.641
    2        0.864   1.779   0.000   2.642
    3        0.865   1.788   0.000   2.653
    4        0.864   1.782   0.000   2.645
    5        0.863   1.782   0.000   2.645
    6        0.864   1.781   0.000   2.645
    7        0.863   1.781   0.000   2.645
    8        0.864   1.779   0.000   2.643
    9        0.862   1.782   0.000   2.644
   10        0.865   1.778   0.000   2.643
   11        0.863   1.785   0.000   2.648
   12        0.865   1.781   0.000   2.646
   13        0.864   1.787   0.000   2.652
   14        0.865   1.785   0.000   2.650
   15        0.864   1.783   0.000   2.647
   16        0.864   1.775   0.000   2.639
   17        0.863   1.777   0.000   2.640
   18        0.865   1.768   0.000   2.633
   19        0.862   1.775   0.000   2.637
   20        0.862   1.763   0.000   2.625
   21        0.864   1.787   0.000   2.651
   22        0.866   1.785   0.000   2.651
   23        0.864   1.788   0.000   2.652
   24        0.866   1.785   0.000   2.651
   25        0.864   1.787   0.000   2.651
   26        0.865   1.789   0.000   2.654
   27        0.866   1.788   0.000   2.654
   28        0.869   1.794   0.000   2.663
   29        0.866   1.776   0.000   2.642
   30        0.882   1.691   0.000   2.572
   31        0.858   1.747   0.000   2.605
   32        0.869   1.628   0.000   2.497
   33        0.865   1.791   0.000   2.656
   34        0.868   1.795   0.000   2.663
   35        0.864   1.795   0.000   2.659
   36        0.869   1.795   0.000   2.664
   37        0.864   1.798   0.000   2.662
   38        0.855   1.759   0.000   2.613
   39        0.867   1.798   0.000   2.665
   40        0.866   1.791   0.000   2.657
   41        0.869   1.778   0.000   2.647
   42        0.870   1.772   0.000   2.642
   43        0.876   1.798   0.000   2.674
   44        0.876   1.785   0.000   2.661
   45        0.865   1.801   0.000   2.666
   46        0.856   1.759   0.000   2.615
   47        1.211   2.706   0.000   3.918
   48        0.853   1.754   0.000   2.607
   49        0.864   1.800   0.000   2.664
   50        0.867   1.790   0.000   2.657
   51        0.868   1.796   0.000   2.664
   52        0.867   1.787   0.000   2.653
   53        0.879   1.705   0.000   2.584
   54        0.865   1.769   0.000   2.634
   55        0.870   1.649   0.000   2.520
   56        0.859   1.743   0.000   2.602
   57        0.868   1.806   0.000   2.674
   58        0.868   1.794   0.000   2.662
   59        0.863   1.795   0.000   2.658
   60        0.863   1.783   0.000   2.646
   61        0.863   1.793   0.000   2.656
   62        0.863   1.784   0.000   2.647
   63        0.865   1.794   0.000   2.659
   64        0.866   1.787   0.000   2.653
   65        0.864   1.776   0.000   2.640
   66        0.865   1.778   0.000   2.643
   67        0.864   1.771   0.000   2.635
   68        0.864   1.770   0.000   2.634
   69        0.862   1.770   0.000   2.632
   70        0.864   1.774   0.000   2.638
   71        0.411   6.449   4.326  11.186
   72        0.983   1.542   0.000   2.525
   73        1.627   3.528   0.000   5.155
--------------------------------------------------
tot         63.929 136.744   4.326 204.998
 


 magnetization (x)
 
# of ion       s       p       d       tot
------------------------------------------
    1       -0.000  -0.003   0.000  -0.004
    2        0.000   0.003   0.000   0.003
    3       -0.000  -0.002   0.000  -0.002
    4        0.000   0.007   0.000   0.008
    5       -0.000  -0.005   0.000  -0.005
    6        0.000   0.006   0.000   0.006
    7       -0.000  -0.004   0.000  -0.004
    8        0.000   0.003   0.000   0.004
    9       -0.000  -0.005   0.000  -0.006
   10        0.000   0.006   0.000   0.006
   11       -0.000  -0.004   0.000  -0.004
   12        0.000   0.003   0.000   0.004
   13       -0.000  -0.003   0.000  -0.004
   14        0.001   0.007   0.000   0.007
   15       -0.000  -0.004   0.000  -0.005
   16        0.001   0.006   0.000   0.007
   17       -0.001  -0.007   0.000  -0.007
   18        0.001   0.015   0.000   0.016
   19       -0.000  -0.003   0.000  -0.003
   20        0.001   0.007   0.000   0.007
   21       -0.000  -0.006   0.000  -0.007
   22        0.000   0.005   0.000   0.005
   23       -0.000  -0.006   0.000  -0.007
   24        0.000   0.003   0.000   0.003
   25       -0.000  -0.006   0.000  -0.006
   26        0.000   0.004   0.000   0.004
   27       -0.001  -0.011   0.000  -0.011
   28        0.000   0.006   0.000   0.006
   29       -0.002  -0.016   0.000  -0.017
   30        0.008   0.049   0.000   0.057
   31       -0.001  -0.012   0.000  -0.013
   32        0.007   0.039   0.000   0.046
   33       -0.000  -0.005   0.000  -0.006
   34        0.000   0.005   0.000   0.005
   35       -0.000  -0.002   0.000  -0.002
   36        0.000   0.005   0.000   0.006
   37       -0.000  -0.003   0.000  -0.004
   38        0.000   0.003   0.000   0.003
   39       -0.000  -0.002   0.000  -0.002
   40        0.000   0.007   0.000   0.008
   41       -0.002  -0.015   0.000  -0.017
   42       -0.000   0.008   0.000   0.008
   43       -0.002  -0.008   0.000  -0.010
   44       -0.001   0.006   0.000   0.005
   45       -0.000  -0.004   0.000  -0.004
   46        0.000   0.007   0.000   0.007
   47       -0.000  -0.002   0.000  -0.002
   48        0.000   0.006   0.000   0.007
   49       -0.000  -0.006   0.000  -0.006
   50        0.000   0.005   0.000   0.006
   51       -0.001  -0.005   0.000  -0.006
   52        0.000   0.002   0.000   0.003
   53        0.003   0.003   0.000   0.006
   54       -0.000   0.001   0.000   0.001
   55        0.005   0.016   0.000   0.021
   56        0.000  -0.001   0.000  -0.001
   57       -0.000  -0.001   0.000  -0.002
   58        0.000  -0.000   0.000  -0.000
   59       -0.000  -0.002   0.000  -0.002
   60        0.000   0.002   0.000   0.003
   61       -0.000  -0.004   0.000  -0.004
   62        0.000   0.005   0.000   0.005
   63       -0.000  -0.002   0.000  -0.002
   64        0.000   0.004   0.000   0.004
   65       -0.000  -0.006   0.000  -0.006
   66        0.000   0.003   0.000   0.004
   67       -0.001  -0.006   0.000  -0.007
   68        0.000   0.003   0.000   0.003
   69        0.000  -0.000   0.000   0.000
   70        0.000   0.005   0.000   0.005
   71       -0.010  -0.013  -0.962  -0.986
   72        0.003  -0.013   0.000  -0.010
   73       -0.001  -0.038   0.000  -0.038
--------------------------------------------------
tot          0.010   0.028  -0.962  -0.925
 
 BZINTS: Fermi energy: -2.277069;303.000000 electrons
         Band energy:***********;  BLOECHL correction:  0.000000

 total amount of memory used by VASP MPI-rank0   116147. kBytes
=======================================================================

   base      :      30000. kBytes
   nonl-proj :      27330. kBytes
   fftplans  :       4700. kBytes
   grid      :      15193. kBytes
   one-center:        217. kBytes
   wavefun   :      38707. kBytes
 
  
  
 General timing and accounting informations for this job:
 ========================================================
  
                  Total CPU time used (sec):      276.392
                            User time (sec):      268.545
                          System time (sec):        7.847
                         Elapsed time (sec):      287.819
  
                   Maximum memory used (kb):      474536.
                   Average memory used (kb):           0.
  
                          Minor page faults:      1343940
                          Major page faults:            0
                 Voluntary context switches:         8593
