 vasp.5.4.4.18Apr17-6-g9f103f2a35 (build Nov  8 2022 18:58:45) complex           
 executed on             LinuxGNU date 2023.04.13  15:54:38
 running on   48 total cores
 distrk:  each k-point on   48 cores,    1 groups
 distr:  one band on NCORES_PER_BAND=  12 cores,    4 groups


--------------------------------------------------------------------------------------------------------


 INCAR:
 POTCAR:    PAW_PBE C 08Apr2002                   
 POTCAR:    PAW_PBE N 08Apr2002                   
 POTCAR:    PAW_PBE Ge_d 03Jul2007                
 POTCAR:    PAW_PBE C 08Apr2002                   
 POTCAR:    PAW_PBE O 08Apr2002                   
 POTCAR:    PAW_PBE C 08Apr2002                   
   SHA256 =  253f7b50bb8d59471dbedb8285d89021f4a42ed1a2c5d38a03a736e69125dd95 C/
   COPYR  = (c) Copyright 08Apr2002 Georg Kresse                                
   COPYR  = This file is part of the software VASP. Any use, copying, and all ot
   COPYR  = If you do not have a valid VASP license, you may not use, copy or di
   VRHFIN =C: s2p2                                                              
   LEXCH  = PE                                                                  
   EATOM  =   147.1560 eV,   10.8157 Ry                                         
                                                                                
   TITEL  = PAW_PBE C 08Apr2002                                                 
   LULTRA =        F    use ultrasoft PP ?                                      
   IUNSCR =        1    unscreen: 0-lin 1-nonlin 2-no                           
   RPACOR =    1.200    partial core radius                                     
   POMASS =   12.011; ZVAL   =    4.000    mass and valenz                      
   RCORE  =    1.500    outmost cutoff radius                                   
   RWIGS  =    1.630; RWIGS  =    0.863    wigner-seitz radius (au A)           
   ENMAX  =  400.000; ENMIN  =  300.000 eV                                      
   ICORE  =        2    local potential                                         
   LCOR   =        T    correct aug charges                                     
   LPAW   =        T    paw PP                                                  
   EAUG   =  644.873                                                            
   DEXC   =    0.000                                                            
   RMAX   =    1.529    core radius for proj-oper                               
   RAUG   =    1.300    factor for augmentation sphere                          
   RDEP   =    1.501    radius for radial grids                                 
   RDEPT  =    1.300    core radius for aug-charge                              
                                                                                
   Atomic configuration                                                         
    4 entries                                                                   
     n  l   j            E        occ.                                          
     1  0  0.50      -273.3789   2.0000                                         
     2  0  0.50       -13.7508   2.0000                                         
     2  1  0.50        -5.2854   2.0000                                         
     3  2  1.50        -5.4423   0.0000                                         
   Description                                                                  
     l       E           TYP  RCUT    TYP  RCUT                                 
     0    -13.7508458     23  1.200                                             
     0     -8.2022199     23  1.200                                             
     1     -5.2854383     23  1.500                                             
     1     34.0145650     23  1.500                                             
     2     -5.4423304      7  1.500                                             
  local pseudopotential read in
  partial core-charges read in
  partial kinetic energy density read in
  atomic valenz-charges read in
  non local Contribution for L=           0  read in
    real space projection operators read in
  non local Contribution for L=           0  read in
    real space projection operators read in
  non local Contribution for L=           1  read in
    real space projection operators read in
  non local Contribution for L=           1  read in
    real space projection operators read in
    PAW grid and wavefunctions read in

   number of l-projection  operators is LMAX  =           4
   number of lm-projection operators is LMMAX =           8

 POTCAR:    PAW_PBE N 08Apr2002                   
   SHA256 =  e053789ff3a61a86a1b75d8a110fcc91f86041011e7b0817c7c99e4e8a6349d7 N/
   COPYR  = (c) Copyright 08Apr2002 Georg Kresse                                
   COPYR  = This file is part of the software VASP. Any use, copying, and all ot
   COPYR  = If you do not have a valid VASP license, you may not use, copy or di
   VRHFIN =N: s2p3                                                              
   LEXCH  = PE                                                                  
   EATOM  =   264.5486 eV,   19.4438 Ry                                         
                                                                                
   TITEL  = PAW_PBE N 08Apr2002                                                 
   LULTRA =        F    use ultrasoft PP ?                                      
   IUNSCR =        1    unscreen: 0-lin 1-nonlin 2-no                           
   RPACOR =    1.200    partial core radius                                     
   POMASS =   14.001; ZVAL   =    5.000    mass and valenz                      
   RCORE  =    1.500    outmost cutoff radius                                   
   RWIGS  =    1.400; RWIGS  =    0.741    wigner-seitz radius (au A)           
   ENMAX  =  400.000; ENMIN  =  300.000 eV                                      
   ICORE  =        2    local potential                                         
   LCOR   =        T    correct aug charges                                     
   LPAW   =        T    paw PP                                                  
   EAUG   =  627.112                                                            
   DEXC   =    0.000                                                            
   RMAX   =    1.529    core radius for proj-oper                               
   RAUG   =    1.300    factor for augmentation sphere                          
   RDEP   =    1.514    radius for radial grids                                 
   RDEPT  =    1.338    core radius for aug-charge                              
                                                                                
   Atomic configuration                                                         
    4 entries                                                                   
     n  l   j            E        occ.                                          
     1  0  0.50      -384.7179   2.0000                                         
     2  0  0.50       -18.5828   2.0000                                         
     2  1  0.50        -7.0898   3.0000                                         
     3  2  1.50        -6.8029   0.0000                                         
   Description                                                                  
     l       E           TYP  RCUT    TYP  RCUT                                 
     0    -18.5828119     23  1.200                                             
     0    -13.5018863     23  1.200                                             
     1     -7.0897853     23  1.500                                             
     1      9.5240782     23  1.500                                             
     2     -6.8029130      7  1.500                                             
  local pseudopotential read in
  partial core-charges read in
  partial kinetic energy density read in
  atomic valenz-charges read in
  non local Contribution for L=           0  read in
    real space projection operators read in
  non local Contribution for L=           0  read in
    real space projection operators read in
  non local Contribution for L=           1  read in
    real space projection operators read in
  non local Contribution for L=           1  read in
    real space projection operators read in
    PAW grid and wavefunctions read in

   number of l-projection  operators is LMAX  =           4
   number of lm-projection operators is LMMAX =           8

 POTCAR:    PAW_PBE Ge_d 03Jul2007                
   SHA256 =  944b26c40d2d7c4f4eb1ff3a2e8dbfdd7129146276cd341854bfd5c0e57780ed Ge
   COPYR  = (c) Copyright 03Jul2007 Georg Kresse                                
   COPYR  = This file is part of the software VASP. Any use, copying, and all ot
   COPYR  = If you do not have a valid VASP license, you may not use, copy or di
   VRHFIN =Ge: 3d4s4p                                                           
   LEXCH  = PE                                                                  
   EATOM  =  2596.2402 eV,  190.8183 Ry                                         
                                                                                
   TITEL  = PAW_PBE Ge_d 03Jul2007                                              
   LULTRA =        F    use ultrasoft PP ?                                      
   IUNSCR =        1    unscreen: 0-lin 1-nonlin 2-no                           
   RPACOR =    2.000    partial core radius                                     
   POMASS =   72.610; ZVAL   =   14.000    mass and valenz                      
   RCORE  =    2.300    outmost cutoff radius                                   
   RWIGS  =    2.300; RWIGS  =    1.217    wigner-seitz radius (au A)           
   ENMAX  =  310.294; ENMIN  =  232.720 eV                                      
   ICORE  =        3    local potential                                         
   LCOR   =        T    correct aug charges                                     
   LPAW   =        T    paw PP                                                  
   EAUG   =  531.356                                                            
   DEXC   =    0.000                                                            
   RMAX   =    2.342    core radius for proj-oper                               
   RAUG   =    1.300    factor for augmentation sphere                          
   RDEP   =    2.318    radius for radial grids                                 
   RDEPT  =    1.783    core radius for aug-charge                              
                                                                                
   Atomic configuration                                                         
    9 entries                                                                   
     n  l   j            E        occ.                                          
     1  0  0.50    -10959.8463   2.0000                                         
     2  0  0.50     -1371.6056   2.0000                                         
     2  1  1.50     -1198.4791   6.0000                                         
     3  0  0.50      -168.4733   2.0000                                         
     3  1  1.50      -115.6019   6.0000                                         
     3  2  2.50       -29.3106  10.0000                                         
     4  0  0.50       -11.7309   2.0000                                         
     4  1  0.50        -3.8952   2.0000                                         
     4  3  2.50        -4.0817   0.0000                                         
   Description                                                                  
     l       E           TYP  RCUT    TYP  RCUT                                 
     2    -29.3105938     23  2.200                                             
     2    -13.6058260     23  2.200                                             
     0    -11.7309493     23  2.300                                             
     0     -7.4578696     23  2.300                                             
     1     -3.8952261     23  2.300                                             
     1      6.1178114     23  2.300                                             
     3     -1.3605826     23  2.300                                             
  local pseudopotential read in
  partial core-charges read in
  partial kinetic energy density read in
  atomic valenz-charges read in
  non local Contribution for L=           2  read in
    real space projection operators read in
  non local Contribution for L=           2  read in
    real space projection operators read in
  non local Contribution for L=           0  read in
    real space projection operators read in
  non local Contribution for L=           0  read in
    real space projection operators read in
  non local Contribution for L=           1  read in
    real space projection operators read in
  non local Contribution for L=           1  read in
    real space projection operators read in
    PAW grid and wavefunctions read in

   number of l-projection  operators is LMAX  =           6
   number of lm-projection operators is LMMAX =          18

 POTCAR:    PAW_PBE C 08Apr2002                   
   SHA256 =  253f7b50bb8d59471dbedb8285d89021f4a42ed1a2c5d38a03a736e69125dd95 C/
   COPYR  = (c) Copyright 08Apr2002 Georg Kresse                                
   COPYR  = This file is part of the software VASP. Any use, copying, and all ot
   COPYR  = If you do not have a valid VASP license, you may not use, copy or di
   VRHFIN =C: s2p2                                                              
   LEXCH  = PE                                                                  
   EATOM  =   147.1560 eV,   10.8157 Ry                                         
                                                                                
   TITEL  = PAW_PBE C 08Apr2002                                                 
   LULTRA =        F    use ultrasoft PP ?                                      
   IUNSCR =        1    unscreen: 0-lin 1-nonlin 2-no                           
   RPACOR =    1.200    partial core radius                                     
   POMASS =   12.011; ZVAL   =    4.000    mass and valenz                      
   RCORE  =    1.500    outmost cutoff radius                                   
   RWIGS  =    1.630; RWIGS  =    0.863    wigner-seitz radius (au A)           
   ENMAX  =  400.000; ENMIN  =  300.000 eV                                      
   ICORE  =        2    local potential                                         
   LCOR   =        T    correct aug charges                                     
   LPAW   =        T    paw PP                                                  
   EAUG   =  644.873                                                            
   DEXC   =    0.000                                                            
   RMAX   =    1.529    core radius for proj-oper                               
   RAUG   =    1.300    factor for augmentation sphere                          
   RDEP   =    1.501    radius for radial grids                                 
   RDEPT  =    1.300    core radius for aug-charge                              
                                                                                
   Atomic configuration                                                         
    4 entries                                                                   
     n  l   j            E        occ.                                          
     1  0  0.50      -273.3789   2.0000                                         
     2  0  0.50       -13.7508   2.0000                                         
     2  1  0.50        -5.2854   2.0000                                         
     3  2  1.50        -5.4423   0.0000                                         
   Description                                                                  
     l       E           TYP  RCUT    TYP  RCUT                                 
     0    -13.7508458     23  1.200                                             
     0     -8.2022199     23  1.200                                             
     1     -5.2854383     23  1.500                                             
     1     34.0145650     23  1.500                                             
     2     -5.4423304      7  1.500                                             
  local pseudopotential read in
  partial core-charges read in
  partial kinetic energy density read in
  atomic valenz-charges read in
  non local Contribution for L=           0  read in
    real space projection operators read in
  non local Contribution for L=           0  read in
    real space projection operators read in
  non local Contribution for L=           1  read in
    real space projection operators read in
  non local Contribution for L=           1  read in
    real space projection operators read in
    PAW grid and wavefunctions read in

   number of l-projection  operators is LMAX  =           4
   number of lm-projection operators is LMMAX =           8

 POTCAR:    PAW_PBE O 08Apr2002                   
   SHA256 =  818f92134a0a090dccd8ba1447fa70422a3b330e708bb4f08108d8ae51209ddf O/
   COPYR  = (c) Copyright 08Apr2002 Georg Kresse                                
   COPYR  = This file is part of the software VASP. Any use, copying, and all ot
   COPYR  = If you do not have a valid VASP license, you may not use, copy or di
   VRHFIN =O: s2p4                                                              
   LEXCH  = PE                                                                  
   EATOM  =   432.3788 eV,   31.7789 Ry                                         
                                                                                
   TITEL  = PAW_PBE O 08Apr2002                                                 
   LULTRA =        F    use ultrasoft PP ?                                      
   IUNSCR =        1    unscreen: 0-lin 1-nonlin 2-no                           
   RPACOR =    1.200    partial core radius                                     
   POMASS =   16.000; ZVAL   =    6.000    mass and valenz                      
   RCORE  =    1.520    outmost cutoff radius                                   
   RWIGS  =    1.550; RWIGS  =    0.820    wigner-seitz radius (au A)           
   ENMAX  =  400.000; ENMIN  =  300.000 eV                                      
   ICORE  =        2    local potential                                         
   LCOR   =        T    correct aug charges                                     
   LPAW   =        T    paw PP                                                  
   EAUG   =  605.392                                                            
   DEXC   =    0.000                                                            
   RMAX   =    1.553    core radius for proj-oper                               
   RAUG   =    1.300    factor for augmentation sphere                          
   RDEP   =    1.550    radius for radial grids                                 
   RDEPT  =    1.329    core radius for aug-charge                              
                                                                                
   Atomic configuration                                                         
    4 entries                                                                   
     n  l   j            E        occ.                                          
     1  0  0.50      -514.6923   2.0000                                         
     2  0  0.50       -23.9615   2.0000                                         
     2  1  0.50        -9.0305   4.0000                                         
     3  2  1.50        -9.5241   0.0000                                         
   Description                                                                  
     l       E           TYP  RCUT    TYP  RCUT                                 
     0    -23.9615318     23  1.200                                             
     0     -9.5240782     23  1.200                                             
     1     -9.0304911     23  1.520                                             
     1      8.1634956     23  1.520                                             
     2     -9.5240782      7  1.500                                             
  local pseudopotential read in
  partial core-charges read in
  partial kinetic energy density read in
  kinetic energy density of atom read in
  atomic valenz-charges read in
  non local Contribution for L=           0  read in
    real space projection operators read in
  non local Contribution for L=           0  read in
    real space projection operators read in
  non local Contribution for L=           1  read in
    real space projection operators read in
  non local Contribution for L=           1  read in
    real space projection operators read in
    PAW grid and wavefunctions read in

   number of l-projection  operators is LMAX  =           4
   number of lm-projection operators is LMMAX =           8


 ----------------------------------------------------------------------------- 
|                                                                             |
|  ADVICE TO THIS USER RUNNING 'VASP/VAMP'   (HEAR YOUR MASTER'S VOICE ...):  |
|                                                                             |
|      You have a (more or less) 'large supercell' and for larger cells       |
|      it might be more efficient to use real space projection opertators     |
|      So try LREAL= Auto  in the INCAR   file.                               |
|      Mind:          For very  accurate calculation you might also keep the  |
|      reciprocal projection scheme          (i.e. LREAL=.FALSE.)             |
|                                                                             |
 ----------------------------------------------------------------------------- 

  PAW_PBE C 08Apr2002                   :
 energy of atom  1       EATOM= -147.1560
 kinetic energy error for atom=    0.0132 (will be added to EATOM!!)
  PAW_PBE N 08Apr2002                   :
 energy of atom  2       EATOM= -264.5486
 kinetic energy error for atom=    0.0298 (will be added to EATOM!!)
  PAW_PBE Ge_d 03Jul2007                :
 energy of atom  3       EATOM=-2596.2402
 kinetic energy error for atom=    0.0090 (will be added to EATOM!!)
  PAW_PBE C 08Apr2002                   :
 energy of atom  4       EATOM= -147.1560
 kinetic energy error for atom=    0.0132 (will be added to EATOM!!)
  PAW_PBE O 08Apr2002                   :
 energy of atom  5       EATOM= -432.3788
 kinetic energy error for atom=    0.0458 (will be added to EATOM!!)


 POSCAR: POSCAR-c3n4                             
  positions in cartesian coordinates
  No initial velocities read in
 exchange correlation table for  LEXCH =        8
   RHO(1)=    0.500       N(1)  =     2000
   RHO(2)=  100.500       N(2)  =     4000



--------------------------------------------------------------------------------------------------------


 ion  position               nearest neighbor table
   1  0.106  0.214  0.436-  26 1.39  46 1.40  25 1.47
   2  0.288  0.399  0.443-  29 1.37  35 1.44  25 1.49
   3  0.104  0.392  0.437-  44 1.37  39 1.43  25 1.49
   4  0.447  0.064  0.516-  30 1.38  27 1.39  48 1.47
   5  0.453  0.401  0.422-  28 1.38  29 1.39  56 1.48
   6  0.112  0.053  0.459-  26 1.38  31 1.39  32 1.46
   7  0.096  0.712  0.494-  54 1.38  34 1.41  33 1.46
   8  0.284  0.890  0.511-  27 1.39  37 1.40  33 1.47
   9  0.109  0.895  0.508-  31 1.38  52 1.40  33 1.49
  10  0.448  0.548  0.512-  38 1.38  56 1.41  35 1.41
  11  0.445  0.885  0.499-  37 1.39  36 1.39  48 1.44
  12  0.087  0.542  0.491-  34 1.37  40 1.40  39 1.41
  13  0.616  0.223  0.483-  42 1.40  30 1.41  41 1.46
  14  0.780  0.390  0.410-  45 1.40  51 1.42  41 1.46
  15  0.610  0.394  0.445-  28 1.39  55 1.40  41 1.51
  16  0.940  0.052  0.471-  46 1.37  43 1.39  32 1.45
  17  0.941  0.387  0.404-  45 1.37  44 1.40  40 1.48
  18  0.623  0.066  0.522-  42 1.38  47 1.39  48 1.47
  19  0.613  0.711  0.541-  50 1.38  38 1.42  49 1.46
  20  0.790  0.897  0.533-  43 1.38  53 1.39  49 1.50
  21  0.609  0.892  0.531-  47 1.39  36 1.40  49 1.49
  22  0.938  0.563  0.430-  51 1.36  54 1.40  40 1.48
  23  0.954  0.902  0.545-  52 1.39  53 1.39  32 1.45
  24  0.621  0.555  0.500-  55 1.37  50 1.38  56 1.47
  25  0.167  0.335  0.435-   1 1.47   3 1.49   2 1.49
  26  0.165  0.161  0.431-   6 1.38   1 1.39
  27  0.336  0.002  0.532-   8 1.39   4 1.39
  28  0.512  0.352  0.402-   5 1.38  15 1.39
  29  0.345  0.361  0.400-   2 1.37   5 1.39
  30  0.506  0.177  0.503-   4 1.38  13 1.41
  31  0.159  0.988  0.457-   9 1.38   6 1.39
  32  0.002  0.002  0.493-  16 1.45  23 1.45   6 1.46
  33  0.165  0.831  0.510-   7 1.46   8 1.47   9 1.49
  34  0.134  0.645  0.528-  12 1.37   7 1.41
  35  0.334  0.491  0.501-  10 1.41   2 1.44  57 2.15
  36  0.503  0.831  0.500-  11 1.39  21 1.40
  37  0.333  0.829  0.489-  11 1.39   8 1.40
  38  0.499  0.648  0.555-  10 1.38  19 1.42
  39  0.142  0.484  0.495-  12 1.41   3 1.43  57 2.16
  40  0.988  0.496  0.446-  12 1.40  22 1.48  17 1.48
  41  0.667  0.330  0.439-  13 1.46  14 1.46  15 1.51
  42  0.680  0.178  0.505-  18 1.38  13 1.40
  43  0.827  0.986  0.478-  20 1.38  16 1.39
  44  0.011  0.348  0.389-   3 1.37  17 1.40
  45  0.830  0.330  0.389-  17 1.37  14 1.40
  46  0.993  0.161  0.445-  16 1.37   1 1.40
  47  0.669  0.005  0.549-  21 1.39  18 1.39
  48  0.505  0.004  0.508-  11 1.44  18 1.47   4 1.47
  49  0.668  0.832  0.544-  19 1.46  21 1.49  20 1.50
  50  0.675  0.666  0.522-  19 1.38  24 1.38
  51  0.832  0.507  0.406-  22 1.36  14 1.42
  52  0.016  0.853  0.559-  23 1.39   9 1.40
  53  0.849  0.860  0.576-  20 1.39  23 1.39
  54  0.004  0.677  0.444-   7 1.38  22 1.40
  55  0.668  0.491  0.494-  24 1.37  15 1.40
  56  0.506  0.502  0.477-  10 1.41  24 1.47   5 1.48
  57  0.287  0.593  0.568-  35 2.15  39 2.16
  58  0.287  0.593  0.966-  59 1.21
  59  0.232  0.530  0.023-  58 1.21


IMPORTANT INFORMATION: All symmetrisations will be switched off!
NOSYMM: (Re-)initialisation of all symmetry stuff for point group C_1.



 KPOINTS: K-Points                                

Automatic generation of k-mesh.
Space group operators:
 irot       det(A)        alpha          n_x          n_y          n_z        tau_x        tau_y        tau_z
    1     1.000000     0.000000     1.000000     0.000000     0.000000     0.000000     0.000000     0.000000
 
 Subroutine IBZKPT returns following result:
 ===========================================
 
 Found      5 irreducible k-points:
 
 Following reciprocal coordinates:
            Coordinates               Weight
  0.000000  0.000000  0.000000      1.000000
  0.333333  0.000000  0.000000      2.000000
  0.000000  0.333333  0.000000      2.000000
  0.333333  0.333333  0.000000      2.000000
 -0.333333  0.333333  0.000000      2.000000
 
 Following cartesian coordinates:
            Coordinates               Weight
  0.000000  0.000000  0.000000      1.000000
  0.024277  0.014368  0.000000      2.000000
  0.000396  0.028736  0.000000      2.000000
  0.024673  0.043104  0.000000      2.000000
 -0.023881  0.014368  0.000000      2.000000
 
 TETIRR: Found     24 inequivalent tetrahedra from       54


--------------------------------------------------------------------------------------------------------




 Dimension of arrays:
   k-points           NKPTS =      5   k-points in BZ     NKDIM =      5   number of bands    NBANDS=    172
   number of dos      NEDOS =   4000   number of ions     NIONS =     59
   non local maximal  LDIM  =      6   non local SUM 2l+1 LMDIM =     18
   total plane-waves  NPLWV = 512000
   max r-space proj   IRMAX =      1   max aug-charges    IRDMAX=   6554
   dimension x,y,z NGX =    80 NGY =   80 NGZ =   80
   dimension x,y,z NGXF=   160 NGYF=  160 NGZF=  160
   support grid    NGXF=   160 NGYF=  160 NGZF=  160
   ions per type =              24  32   1   1   1
   NGX,Y,Z   is equivalent  to a cutoff of   9.24,  9.41,  8.53 a.u.
   NGXF,Y,Z  is equivalent  to a cutoff of  18.47, 18.82, 17.05 a.u.

 SYSTEM =  unknown system                          
 POSCAR =  POSCAR-c3n4                             

 Startparameter for this run:
   NWRITE =      2    write-flag & timer
   PREC   = normal    normal or accurate (medium, high low for compatibility)
   ISTART =      0    job   : 0-new  1-cont  2-samecut
   ICHARG =      2    charge: 1-file 2-atom 10-const
   ISPIN  =      2    spin polarized calculation?
   LNONCOLLINEAR =      F non collinear calculations
   LSORBIT =      F    spin-orbit coupling
   INIWAV =      1    electr: 0-lowe 1-rand  2-diag
   LASPH  =      F    aspherical Exc in radial PAW
   METAGGA=      F    non-selfconsistent MetaGGA calc.

 Electronic Relaxation 1
   ENCUT  =  440.0 eV  32.34 Ry    5.69 a.u.  24.63 24.17 26.68*2*pi/ulx,y,z
   ENINI  =  440.0     initial cutoff
   ENAUG  =  644.9 eV  augmentation charge cutoff
   NELM   =    100;   NELMIN=  2; NELMDL= -5     # of ELM steps 
   EDIFF  = 0.1E-03   stopping-criterion for ELM
   LREAL  =      F    real-space projection
   NLSPLINE    = F    spline interpolate recip. space projectors
   LCOMPAT=      F    compatible to vasp.4.4
   GGA_COMPAT  = T    GGA compatible to vasp.4.4-vasp.4.6
   LMAXPAW     = -100 max onsite density
   LMAXMIX     =    2 max onsite mixed and CHGCAR
   VOSKOWN=      0    Vosko Wilk Nusair interpolation
   ROPT   =    0.00000   0.00000   0.00000   0.00000
   ROPT   =    0.00000
 Ionic relaxation
   EDIFFG = -.1E-01   stopping-criterion for IOM
   NSW    =      0    number of steps for IOM
   NBLOCK =      1;   KBLOCK =      1    inner block; outer block 
   IBRION =     -1    ionic relax: 0-MD 1-quasi-New 2-CG
   NFREE  =      0    steps in history (QN), initial steepest desc. (CG)
   ISIF   =      2    stress and relaxation
   IWAVPR =     10    prediction:  0-non 1-charg 2-wave 3-comb
   ISYM   =      0    0-nonsym 1-usesym 2-fastsym
   LCORR  =      T    Harris-Foulkes like correction to forces

   POTIM  = 0.5000    time-step for ionic-motion
   TEIN   =    0.0    initial temperature
   TEBEG  =    0.0;   TEEND  =   0.0 temperature during run
   SMASS  =  -3.00    Nose mass-parameter (am)
   estimated Nose-frequenzy (Omega)   =  0.10E-29 period in steps =****** mass=  -0.474E-26a.u.
   SCALEE = 1.0000    scale energy and forces
   NPACO  =    256;   APACO  = 16.0  distance and # of slots for P.C.
   PSTRESS=    0.0 pullay stress

  Mass of Ions in am
   POMASS =  12.01 14.00 72.61 12.01 16.00
  Ionic Valenz
   ZVAL   =   4.00  5.00 14.00  4.00  6.00
  Atomic Wigner-Seitz radii
   RWIGS  =  -1.00 -1.00 -1.00 -1.00 -1.00
  virtual crystal weights 
   VCA    =   1.00  1.00  1.00  1.00  1.00
   NELECT =     280.0000    total number of electrons
   NUPDOWN=      -1.0000    fix difference up-down

 DOS related values:
   EMIN   = -14.00;   EMAX   =  6.00  energy-range for DOS
   EFERMI =   0.00
   ISMEAR =    -5;   SIGMA  =   0.20  broadening in eV -4-tet -1-fermi 0-gaus

 Electronic relaxation 2 (details)
   IALGO  =     38    algorithm
   LDIAG  =      T    sub-space diagonalisation (order eigenvalues)
   LSUBROT=      F    optimize rotation matrix (better conditioning)
   TURBO    =      0    0=normal 1=particle mesh
   IRESTART =      0    0=no restart 2=restart with 2 vectors
   NREBOOT  =      0    no. of reboots
   NMIN     =      0    reboot dimension
   EREF     =   0.00    reference energy to select bands
   IMIX   =      4    mixing-type and parameters
     AMIX     =   0.25;   BMIX     =  0.00
     AMIX_MAG =   1.00;   BMIX_MAG =  0.00
     AMIN     =   0.10
     WC   =   100.;   INIMIX=   1;  MIXPRE=   1;  MAXMIX= -45

 Intra band minimization:
   WEIMIN = 0.0000     energy-eigenvalue tresh-hold
   EBREAK =  0.15E-06  absolut break condition
   DEPER  =   0.30     relativ break condition  

   TIME   =   0.40     timestep for ELM

  volume/ion in A,a.u.               =      45.92       309.91
  Fermi-wavevector in a.u.,A,eV,Ry     =   0.768243  1.451769  8.030129  0.590198
  Thomas-Fermi vector in A             =   1.868974

 Write flags
   LWAVE        =      F    write WAVECAR
   LDOWNSAMPLE  =      F    k-point downsampling of WAVECAR
   LCHARG       =      F    write CHGCAR
   LVTOT        =      F    write LOCPOT, total local potential
   LVHAR        =      F    write LOCPOT, Hartree potential only
   LELF         =      F    write electronic localiz. function (ELF)
   LORBIT       =     11    0 simple, 1 ext, 2 COOP (PROOUT), +10 PAW based schemes


 Dipole corrections
   LMONO  =      F    monopole corrections only (constant potential shift)
   LDIPOL =      F    correct potential (dipole corrections)
   IDIPOL =      0    1-x, 2-y, 3-z, 4-all directions 
   EPSILON=  1.0000000 bulk dielectric constant

 Exchange correlation treatment:
   GGA     =    --    GGA type
   LEXCH   =     8    internal setting for exchange type
   VOSKOWN=      0    Vosko Wilk Nusair interpolation
   LHFCALC =     F    Hartree Fock is set to
   LHFONE  =     F    Hartree Fock one center treatment
   AEXX    =    0.0000 exact exchange contribution

 Linear response parameters
   LEPSILON=     F    determine dielectric tensor
   LRPA    =     F    only Hartree local field effects (RPA)
   LNABLA  =     F    use nabla operator in PAW spheres
   LVEL    =     F    velocity operator in full k-point grid
   LINTERFAST=   F  fast interpolation
   KINTER  =     0    interpolate to denser k-point grid
   CSHIFT  =0.1000    complex shift for real part using Kramers Kronig
   OMEGAMAX=  -1.0    maximum frequency
   DEG_THRESHOLD= 0.2000000E-02 threshold for treating states as degnerate
   RTIME   =   -0.100 relaxation time in fs
  (WPLASMAI=    0.000 imaginary part of plasma frequency in eV, 0.658/RTIME)
   DFIELD  = 0.0000000 0.0000000 0.0000000 field for delta impulse in time

 Orbital magnetization related:
   ORBITALMAG=     F  switch on orbital magnetization
   LCHIMAG   =     F  perturbation theory with respect to B field
   DQ        =  0.001000  dq finite difference perturbation B field
   LLRAUG    =     F  two centre corrections for induced B field



--------------------------------------------------------------------------------------------------------


 Static calculation
 charge density and potential will be updated during run
 spin polarized calculation
 Variant of blocked Davidson
 Davidson routine will perform the subspace rotation
 perform sub-space diagonalisation
    after iterative eigenvector-optimisation
 modified Broyden-mixing scheme, WC =      100.0
 initial mixing is a Kerker type mixing with AMIX =  0.2500 and BMIX =      0.0001
 Hartree-type preconditioning will be used
 using additional bands           32
 reciprocal scheme for non local part
 use partial core corrections
 calculate Harris-corrections to forces   (improved forces if not selfconsistent)
 use gradient corrections 
 use of overlap-Matrix (Vanderbilt PP)
 Fermi weights with tetrahedron method with Bloechl corrections


--------------------------------------------------------------------------------------------------------


  energy-cutoff  :      440.00
  volume of cell :     2709.48
      direct lattice vectors                 reciprocal lattice vectors
    14.397161204 -0.198370093  0.000000000     0.070029201  0.041446264 -0.000000000
    -7.198580602 12.162998634  0.000000000     0.001142128  0.082892528 -0.000000000
     0.000000000  0.000000000 15.600000000    -0.000000000 -0.000000000  0.064102564

  length of vectors
    14.398527752 14.133580525 15.600000000     0.081374946  0.082900396  0.064102564



 k-points in units of 2pi/SCALE and weight: K-Points                                
   0.00000000  0.00000000  0.00000000       0.111
   0.02427679  0.01436804  0.00000000       0.222
   0.00039594  0.02873608  0.00000000       0.222
   0.02467273  0.04310411  0.00000000       0.222
  -0.02388085  0.01436804  0.00000000       0.222

 k-points in reciprocal lattice and weights: K-Points                                
   0.00000000  0.00000000  0.00000000       0.111
   0.33333333  0.00000000  0.00000000       0.222
   0.00000000  0.33333333  0.00000000       0.222
   0.33333333  0.33333333  0.00000000       0.222
  -0.33333333  0.33333333  0.00000000       0.222

 position of ions in fractional coordinates (direct lattice) 
   0.10567936  0.21351909  0.43638452
   0.28750403  0.39866334  0.44307848
   0.10379301  0.39177313  0.43720774
   0.44732828  0.06383887  0.51561413
   0.45258916  0.40124889  0.42244582
   0.11203481  0.05273921  0.45860169
   0.09638015  0.71191070  0.49382164
   0.28433946  0.89006364  0.51112159
   0.10941441  0.89537413  0.50804572
   0.44792521  0.54827090  0.51182417
   0.44544784  0.88520183  0.49889037
   0.08690842  0.54210436  0.49059155
   0.61614813  0.22292684  0.48262487
   0.78023735  0.38968276  0.40980308
   0.61037743  0.39432339  0.44538198
   0.93951642  0.05229783  0.47062057
   0.94071854  0.38652888  0.40380040
   0.62278394  0.06558106  0.52195204
   0.61322902  0.71118454  0.54116914
   0.78984871  0.89727295  0.53280047
   0.60944297  0.89248269  0.53124739
   0.93832005  0.56283419  0.43042990
   0.95436023  0.90171878  0.54458488
   0.62130548  0.55465507  0.49978063
   0.16668926  0.33545237  0.43494871
   0.16473950  0.16097029  0.43087242
   0.33626584  0.00180669  0.53207802
   0.51175722  0.35246859  0.40230650
   0.34471728  0.36074551  0.39967324
   0.50565751  0.17673507  0.50307206
   0.15873210  0.98821904  0.45657691
   0.00214731  0.00186372  0.49276218
   0.16462634  0.83083069  0.51017993
   0.13400723  0.64526801  0.52770834
   0.33371346  0.49116238  0.50147098
   0.50288345  0.83078126  0.49964378
   0.33307237  0.82932770  0.48929409
   0.49902190  0.64803204  0.55475412
   0.14173676  0.48364631  0.49503647
   0.98839512  0.49595573  0.44590834
   0.66736443  0.33015381  0.43923807
   0.67970142  0.17802103  0.50515807
   0.82720183  0.98622484  0.47776955
   0.01097216  0.34809993  0.38872280
   0.83047981  0.33016544  0.38944898
   0.99296173  0.16101876  0.44505124
   0.66886761  0.00524437  0.54940128
   0.50484899  0.00388347  0.50822952
   0.66830364  0.83227641  0.54411956
   0.67536455  0.66551462  0.52238502
   0.83211404  0.50666912  0.40566699
   0.01584380  0.85299492  0.55859758
   0.84924332  0.85956436  0.57597004
   0.00424175  0.67726383  0.44447513
   0.66753141  0.49127771  0.49374111
   0.50565566  0.50179634  0.47708161
   0.28676550  0.59288202  0.56771515
   0.28676550  0.59288202  0.96638181
   0.23209909  0.52992702  0.02273763

 position of ions in cartesian coordinates  (Angst):
  -0.01555154  2.57606872  6.80759845
   1.26943164  4.79190944  6.91202425
  -1.32588583  4.74454663  6.82044067
   5.98070813  0.68773550  8.04358043
   3.62757653  4.79060958  6.59015487
   1.23333578  0.61924262  7.15418630
  -3.73714602  8.63984995  7.70361752
  -2.31351384 10.76943837  7.97349676
  -4.87016602 10.86872979  7.92551327
   2.50207924  6.57976325  7.98445709
   0.04098767 10.67834514  7.78268977
  -2.65114748  6.57637461  7.65322820
   7.26602712  2.58923350  7.52894800
   8.42804010  4.58493516  6.39292810
   5.94913348  4.67507427  6.94795884
  13.14989927  0.44972644  7.34168084
  10.76121720  4.51473985  6.29928618
   8.49423023  0.67412058  8.14245185
   3.70923787  8.52849032  8.44223862
   4.91248752 10.75684734  8.31168733
   2.34964007 10.73437043  8.28745923
   9.45753772  6.65961689  6.71470652
   7.24898269 10.77828779  8.49552410
   4.95230596  6.62302047  7.79657784
  -0.01492877  4.04704058  6.78519991
   1.21302359  1.92520198  6.72160980
   4.82826785 -0.04473035  8.30041713
   4.83057770  4.18555762  6.27598139
   2.36609459  4.31936556  6.23490251
   6.00779098  2.04932115  7.84792417
  -4.82848286 11.98821915  7.12259975
   0.01749905  0.02224246  7.68708997
  -3.61064964 10.07273557  7.95880686
  -2.71569008  7.82181087  8.23225012
   1.26885456  5.90780854  7.82294735
   1.25964827 10.00503423  7.79444296
  -1.17468571 10.02104007  7.63298776
   2.51958788  7.78302180  8.65416422
  -1.44095997  5.85447302  7.72256887
  10.65990661  5.83624087  6.95617013
   7.23151447  3.88327523  6.85211383
   8.50427223  2.03043710  7.88046595
   4.80993915 11.83135926  7.45320501
  -2.34785745  4.23176237  6.06407575
   9.57982914  3.85105944  6.07540401
  13.13672352  1.76149704  6.94279934
   9.59204288 -0.06889611  8.57065998
   7.24043685 -0.05291230  7.92838058
   3.63046649  9.99040535  8.48826511
   4.93257162  7.96068130  8.14920636
   8.33278141  5.99754930  6.32840511
  -5.91224700 10.37183313  8.71412220
   6.03904964 10.28641571  8.98513268
  -4.81426917  8.23671764  6.93381210
   6.07405505  5.84299186  7.70236134
   3.66778462  6.00304128  7.44247314
  -0.13929991  7.15433756  8.85635630
  -0.13929991  7.15433756 15.07555630
  -0.47315441  6.39946012  0.35470697



--------------------------------------------------------------------------------------------------------


 k-point  1 :   0.0000 0.0000 0.0000  plane waves:   56765
 k-point  2 :   0.3333 0.0000 0.0000  plane waves:   56781
 k-point  3 :   0.0000 0.3333 0.0000  plane waves:   56808
 k-point  4 :   0.3333 0.3333 0.0000  plane waves:   56813
 k-point  5 :  -0.3333 0.3333 0.0000  plane waves:   56795

 maximum and minimum number of plane-waves per node :      4761     4701

 maximum number of plane-waves:     56813
 maximum index in each direction: 
   IXMAX=   24   IYMAX=   24   IZMAX=   26
   IXMIN=  -24   IYMIN=  -24   IZMIN=  -26


 parallel 3D FFT for wavefunctions:
    minimum data exchange during FFTs selected (reduces bandwidth)
 parallel 3D FFT for charge:
    minimum data exchange during FFTs selected (reduces bandwidth)


 total amount of memory used by VASP MPI-rank0   103817. kBytes
=======================================================================

   base      :      30000. kBytes
   nonl-proj :      21574. kBytes
   fftplans  :       4700. kBytes
   grid      :      14364. kBytes
   one-center:        155. kBytes
   wavefun   :      33024. kBytes

     INWAV:  cpu time    0.0001: real time    0.0001
 Broyden mixing: mesh for mixing (old mesh)
   NGX = 49   NGY = 49   NGZ = 53
  (NGX  =160   NGY  =160   NGZ  =160)
  gives a total of 127253 points

 initial charge density was supplied:
 charge density of overlapping atoms calculated
 number of electron     280.0000000 magnetization       2.0000000
 keeping initial charge density in first step


--------------------------------------------------------------------------------------------------------


 Maximum index for augmentation-charges          350 (set IRDMAX)


--------------------------------------------------------------------------------------------------------


 First call to EWALD:  gamma=   0.127
 Maximum number of real-space cells 3x 3x 3
 Maximum number of reciprocal cells 3x 3x 3

    FEWALD:  cpu time    0.0022: real time    0.0022


--------------------------------------- Iteration      1(   1)  ---------------------------------------


    POTLOK:  cpu time    0.1433: real time    0.1545
    SETDIJ:  cpu time    0.0092: real time    0.0093
     EDDAV:  cpu time   13.6040: real time   13.6300
 BZINTS: Fermi energy:  8.549250;280.000000 electrons
         Band energy:***********;  BLOECHL correction: -0.013034
       DOS:  cpu time    0.1515: real time    0.1515
    --------------------------------------------
      LOOP:  cpu time   13.9080: real time   13.9453

 eigenvalue-minimisations  :  3912
 total energy-change (2. order) : 0.2564356E+04  (-0.1017022E+05)
 number of electron     280.0000000 magnetization       2.0000000
 augmentation part      280.0000000 magnetization       2.0000000

 Free energy of the ion-electron system (eV)
  ---------------------------------------------------
  alpha Z        PSCENC =       137.52455878
  Ewald energy   TEWEN  =     24755.80918191
  -Hartree energ DENC   =    -36800.46738614
  -exchange      EXHF   =         0.00000000
  -V(xc)+E(xc)   XCENC  =      1052.61866678
  PAW double counting   =     11453.83848114   -11942.90478952
  entropy T*S    EENTRO =         0.00000000
  eigenvalues    EBANDS =     -1263.79929807
  atomic energy  EATOM  =     15171.73615219
  Solvation  Ediel_sol  =         0.00000000
  ---------------------------------------------------
  free energy    TOTEN  =      2564.35556707 eV

  energy without entropy =     2564.35556707  energy(sigma->0) =     2564.35556707


--------------------------------------------------------------------------------------------------------




--------------------------------------- Iteration      1(   2)  ---------------------------------------


     EDDAV:  cpu time   16.1039: real time   16.1177
 BZINTS: Fermi energy: -0.455364;280.000000 electrons
         Band energy:***********;  BLOECHL correction:  0.000000
       DOS:  cpu time    0.0144: real time    0.0144
    --------------------------------------------
      LOOP:  cpu time   16.1183: real time   16.1321

 eigenvalue-minimisations  :  4856
 total energy-change (2. order) :-0.2516394E+04  (-0.2417221E+04)
 number of electron     280.0000000 magnetization       2.0000000
 augmentation part      280.0000000 magnetization       2.0000000

 Free energy of the ion-electron system (eV)
  ---------------------------------------------------
  alpha Z        PSCENC =       137.52455878
  Ewald energy   TEWEN  =     24755.80918191
  -Hartree energ DENC   =    -36800.46738614
  -exchange      EXHF   =         0.00000000
  -V(xc)+E(xc)   XCENC  =      1052.61866678
  PAW double counting   =     11453.83848114   -11942.90478952
  entropy T*S    EENTRO =         0.00000000
  eigenvalues    EBANDS =     -3780.19328676
  atomic energy  EATOM  =     15171.73615219
  Solvation  Ediel_sol  =         0.00000000
  ---------------------------------------------------
  free energy    TOTEN  =        47.96157837 eV

  energy without entropy =       47.96157837  energy(sigma->0) =       47.96157837


--------------------------------------------------------------------------------------------------------




--------------------------------------- Iteration      1(   3)  ---------------------------------------


     EDDAV:  cpu time   14.2861: real time   14.3130
 BZINTS: Fermi energy: -3.492114;280.000000 electrons
         Band energy:***********;  BLOECHL correction: -0.036421
       DOS:  cpu time    0.0239: real time    0.0239
    --------------------------------------------
      LOOP:  cpu time   14.3100: real time   14.3369

 eigenvalue-minimisations  :  4172
 total energy-change (2. order) :-0.5390924E+03  (-0.5349369E+03)
 number of electron     280.0000000 magnetization       2.0000000
 augmentation part      280.0000000 magnetization       2.0000000

 Free energy of the ion-electron system (eV)
  ---------------------------------------------------
  alpha Z        PSCENC =       137.52455878
  Ewald energy   TEWEN  =     24755.80918191
  -Hartree energ DENC   =    -36800.46738614
  -exchange      EXHF   =         0.00000000
  -V(xc)+E(xc)   XCENC  =      1052.61866678
  PAW double counting   =     11453.83848114   -11942.90478952
  entropy T*S    EENTRO =         0.00000000
  eigenvalues    EBANDS =     -4319.28572330
  atomic energy  EATOM  =     15171.73615219
  Solvation  Ediel_sol  =         0.00000000
  ---------------------------------------------------
  free energy    TOTEN  =      -491.13085816 eV

  energy without entropy =     -491.13085816  energy(sigma->0) =     -491.13085816


--------------------------------------------------------------------------------------------------------




--------------------------------------- Iteration      1(   4)  ---------------------------------------


     EDDAV:  cpu time   14.2114: real time   14.2259
 BZINTS: Fermi energy: -3.916229;280.000000 electrons
         Band energy:***********;  BLOECHL correction:  0.000000
       DOS:  cpu time    0.0156: real time    0.0156
    --------------------------------------------
      LOOP:  cpu time   14.2270: real time   14.2415

 eigenvalue-minimisations  :  4152
 total energy-change (2. order) :-0.2264735E+02  (-0.2204566E+02)
 number of electron     280.0000000 magnetization       2.0000000
 augmentation part      280.0000000 magnetization       2.0000000

 Free energy of the ion-electron system (eV)
  ---------------------------------------------------
  alpha Z        PSCENC =       137.52455878
  Ewald energy   TEWEN  =     24755.80918191
  -Hartree energ DENC   =    -36800.46738614
  -exchange      EXHF   =         0.00000000
  -V(xc)+E(xc)   XCENC  =      1052.61866678
  PAW double counting   =     11453.83848114   -11942.90478952
  entropy T*S    EENTRO =         0.00000000
  eigenvalues    EBANDS =     -4341.93307139
  atomic energy  EATOM  =     15171.73615219
  Solvation  Ediel_sol  =         0.00000000
  ---------------------------------------------------
  free energy    TOTEN  =      -513.77820625 eV

  energy without entropy =     -513.77820625  energy(sigma->0) =     -513.77820625


--------------------------------------------------------------------------------------------------------




--------------------------------------- Iteration      1(   5)  ---------------------------------------


     EDDAV:  cpu time   16.8774: real time   16.9059
 BZINTS: Fermi energy: -3.954989;280.000000 electrons
         Band energy:***********;  BLOECHL correction:  0.000000
       DOS:  cpu time    0.0157: real time    0.0157
    CHARGE:  cpu time    0.2576: real time    0.2578
    MIXING:  cpu time    0.0037: real time    0.0038
    --------------------------------------------
      LOOP:  cpu time   17.1544: real time   17.1832

 eigenvalue-minimisations  :  5152
 total energy-change (2. order) :-0.1151629E+01  (-0.1139704E+01)
 number of electron     279.9999996 magnetization       0.0000000
 augmentation part       19.3960390 magnetization       0.0328888

 Broyden mixing:
  rms(total) = 0.38054E+01    rms(broyden)= 0.38024E+01
  rms(prec ) = 0.42052E+01
  weight for this iteration     100.00

 Free energy of the ion-electron system (eV)
  ---------------------------------------------------
  alpha Z        PSCENC =       137.52455878
  Ewald energy   TEWEN  =     24755.80918191
  -Hartree energ DENC   =    -36800.46738614
  -exchange      EXHF   =         0.00000000
  -V(xc)+E(xc)   XCENC  =      1052.61866678
  PAW double counting   =     11453.83848114   -11942.90478952
  entropy T*S    EENTRO =         0.00000000
  eigenvalues    EBANDS =     -4343.08469991
  atomic energy  EATOM  =     15171.73615219
  Solvation  Ediel_sol  =         0.00000000
  ---------------------------------------------------
  free energy    TOTEN  =      -514.92983477 eV

  energy without entropy =     -514.92983477  energy(sigma->0) =     -514.92983477


--------------------------------------------------------------------------------------------------------




--------------------------------------- Iteration      1(   6)  ---------------------------------------


    POTLOK:  cpu time    0.1260: real time    0.1343
    SETDIJ:  cpu time    0.0088: real time    0.0088
     EDDAV:  cpu time   14.4349: real time   14.4462
 BZINTS: Fermi energy: -3.829957;280.000000 electrons
         Band energy:***********;  BLOECHL correction:  0.000000
       DOS:  cpu time    0.0162: real time    0.0162
    CHARGE:  cpu time    0.2548: real time    0.2549
    MIXING:  cpu time    0.0041: real time    0.0042
    --------------------------------------------
      LOOP:  cpu time   14.8448: real time   14.8646

 eigenvalue-minimisations  :  4216
 total energy-change (2. order) : 0.2261160E+02  (-0.5740545E+01)
 number of electron     279.9999993 magnetization      -0.0000001
 augmentation part       18.2210888 magnetization       0.0134898

 Broyden mixing:
  rms(total) = 0.22780E+01    rms(broyden)= 0.22775E+01
  rms(prec ) = 0.24347E+01
  weight for this iteration     100.00

 eigenvalues of (default mixing * dielectric matrix)
  average eigenvalue GAMMA=   1.3034
  1.3034

 Free energy of the ion-electron system (eV)
  ---------------------------------------------------
  alpha Z        PSCENC =       137.52455878
  Ewald energy   TEWEN  =     24755.80918191
  -Hartree energ DENC   =    -37044.27030576
  -exchange      EXHF   =         0.00000000
  -V(xc)+E(xc)   XCENC  =      1065.80541001
  PAW double counting   =     14431.58081102   -14922.02353285
  entropy T*S    EENTRO =         0.00000000
  eigenvalues    EBANDS =     -4088.48051316
  atomic energy  EATOM  =     15171.73615219
  Solvation  Ediel_sol  =         0.00000000
  ---------------------------------------------------
  free energy    TOTEN  =      -492.31823786 eV

  energy without entropy =     -492.31823786  energy(sigma->0) =     -492.31823786


--------------------------------------------------------------------------------------------------------




--------------------------------------- Iteration      1(   7)  ---------------------------------------


    POTLOK:  cpu time    0.1384: real time    0.1451
    SETDIJ:  cpu time    0.0088: real time    0.0087
     EDDAV:  cpu time   14.6443: real time   14.6611
 BZINTS: Fermi energy: -3.489872;280.000000 electrons
         Band energy:***********;  BLOECHL correction:  0.000000
       DOS:  cpu time    0.0151: real time    0.0151
    CHARGE:  cpu time    0.2532: real time    0.2555
    MIXING:  cpu time    0.0033: real time    0.0033
    --------------------------------------------
      LOOP:  cpu time   15.0632: real time   15.0888

 eigenvalue-minimisations  :  4312
 total energy-change (2. order) : 0.2779415E+01  (-0.3717691E+01)
 number of electron     279.9999985 magnetization      -0.0000000
 augmentation part       17.9171831 magnetization       0.0010507

 Broyden mixing:
  rms(total) = 0.15420E+01    rms(broyden)= 0.15416E+01
  rms(prec ) = 0.16660E+01
  weight for this iteration     100.00

 eigenvalues of (default mixing * dielectric matrix)
  average eigenvalue GAMMA=   1.4065
  0.9266  1.8863

 Free energy of the ion-electron system (eV)
  ---------------------------------------------------
  alpha Z        PSCENC =       137.52455878
  Ewald energy   TEWEN  =     24755.80918191
  -Hartree energ DENC   =    -37236.10024325
  -exchange      EXHF   =         0.00000000
  -V(xc)+E(xc)   XCENC  =      1074.13088817
  PAW double counting   =     17851.23084634   -18343.52706949
  entropy T*S    EENTRO =         0.00000000
  eigenvalues    EBANDS =     -3900.34313710
  atomic energy  EATOM  =     15171.73615219
  Solvation  Ediel_sol  =         0.00000000
  ---------------------------------------------------
  free energy    TOTEN  =      -489.53882246 eV

  energy without entropy =     -489.53882246  energy(sigma->0) =     -489.53882246


--------------------------------------------------------------------------------------------------------




--------------------------------------- Iteration      1(   8)  ---------------------------------------


    POTLOK:  cpu time    0.1322: real time    0.1378
    SETDIJ:  cpu time    0.0088: real time    0.0088
     EDDAV:  cpu time   14.1658: real time   14.1830
 BZINTS: Fermi energy: -3.081020;280.000000 electrons
         Band energy:***********;  BLOECHL correction:  0.000000
       DOS:  cpu time    0.0164: real time    0.0164
    CHARGE:  cpu time    0.2523: real time    0.2523
    MIXING:  cpu time    0.0035: real time    0.0035
    --------------------------------------------
      LOOP:  cpu time   14.5790: real time   14.6018

 eigenvalue-minimisations  :  4128
 total energy-change (2. order) : 0.1575488E+01  (-0.1492308E+01)
 number of electron     279.9999991 magnetization       0.0000000
 augmentation part       17.7049997 magnetization      -0.0006478

 Broyden mixing:
  rms(total) = 0.10784E+01    rms(broyden)= 0.10782E+01
  rms(prec ) = 0.11572E+01
  weight for this iteration     100.00

 eigenvalues of (default mixing * dielectric matrix)
  average eigenvalue GAMMA=   1.6068
  2.9826  1.1937  0.6442

 Free energy of the ion-electron system (eV)
  ---------------------------------------------------
  alpha Z        PSCENC =       137.52455878
  Ewald energy   TEWEN  =     24755.80918191
  -Hartree energ DENC   =    -37321.73978005
  -exchange      EXHF   =         0.00000000
  -V(xc)+E(xc)   XCENC  =      1077.98062034
  PAW double counting   =     20396.30583312   -20890.47561439
  entropy T*S    EENTRO =         0.00000000
  eigenvalues    EBANDS =     -3815.10428614
  atomic energy  EATOM  =     15171.73615219
  Solvation  Ediel_sol  =         0.00000000
  ---------------------------------------------------
  free energy    TOTEN  =      -487.96333424 eV

  energy without entropy =     -487.96333424  energy(sigma->0) =     -487.96333424


--------------------------------------------------------------------------------------------------------




--------------------------------------- Iteration      1(   9)  ---------------------------------------


    POTLOK:  cpu time    0.1379: real time    0.1388
    SETDIJ:  cpu time    0.0089: real time    0.0088
     EDDAV:  cpu time   15.9730: real time   15.9959
 BZINTS: Fermi energy: -2.899725;280.000000 electrons
         Band energy:***********;  BLOECHL correction:  0.000000
       DOS:  cpu time    0.0147: real time    0.0147
    CHARGE:  cpu time    0.2534: real time    0.2534
    MIXING:  cpu time    0.0036: real time    0.0036
    --------------------------------------------
      LOOP:  cpu time   16.3914: real time   16.4153

 eigenvalue-minimisations  :  4816
 total energy-change (2. order) :-0.1775563E+00  (-0.1607155E+01)
 number of electron     279.9999994 magnetization       0.0000000
 augmentation part       17.8083560 magnetization      -0.0012612

 Broyden mixing:
  rms(total) = 0.62335E+00    rms(broyden)= 0.62301E+00
  rms(prec ) = 0.79466E+00
  weight for this iteration     100.00

 eigenvalues of (default mixing * dielectric matrix)
  average eigenvalue GAMMA=   1.5277
  3.5496  1.2459  0.6577  0.6577

 Free energy of the ion-electron system (eV)
  ---------------------------------------------------
  alpha Z        PSCENC =       137.52455878
  Ewald energy   TEWEN  =     24755.80918191
  -Hartree energ DENC   =    -37388.67285888
  -exchange      EXHF   =         0.00000000
  -V(xc)+E(xc)   XCENC  =      1080.66733439
  PAW double counting   =     23722.44960146   -24220.98014605
  entropy T*S    EENTRO =         0.00000000
  eigenvalues    EBANDS =     -3746.67471429
  atomic energy  EATOM  =     15171.73615219
  Solvation  Ediel_sol  =         0.00000000
  ---------------------------------------------------
  free energy    TOTEN  =      -488.14089050 eV

  energy without entropy =     -488.14089050  energy(sigma->0) =     -488.14089050


--------------------------------------------------------------------------------------------------------




--------------------------------------- Iteration      1(  10)  ---------------------------------------


    POTLOK:  cpu time    0.1362: real time    0.1371
    SETDIJ:  cpu time    0.0088: real time    0.0088
     EDDAV:  cpu time   15.4429: real time   15.4627
 BZINTS: Fermi energy: -2.550888;280.000000 electrons
         Band energy:***********;  BLOECHL correction:  0.000000
       DOS:  cpu time    0.0152: real time    0.0152
    CHARGE:  cpu time    0.2557: real time    0.2560
    MIXING:  cpu time    0.0039: real time    0.0039
    --------------------------------------------
      LOOP:  cpu time   15.8627: real time   15.8837

 eigenvalue-minimisations  :  4616
 total energy-change (2. order) : 0.7138415E+00  (-0.7135983E+00)
 number of electron     279.9999991 magnetization       0.0000000
 augmentation part       17.7929688 magnetization      -0.0013518

 Broyden mixing:
  rms(total) = 0.31945E+00    rms(broyden)= 0.31856E+00
  rms(prec ) = 0.40792E+00
  weight for this iteration     100.00

 eigenvalues of (default mixing * dielectric matrix)
  average eigenvalue GAMMA=   1.4330
  3.7906  1.3442  0.9523  0.5389  0.5389

 Free energy of the ion-electron system (eV)
  ---------------------------------------------------
  alpha Z        PSCENC =       137.52455878
  Ewald energy   TEWEN  =     24755.80918191
  -Hartree energ DENC   =    -37413.59845325
  -exchange      EXHF   =         0.00000000
  -V(xc)+E(xc)   XCENC  =      1082.08832042
  PAW double counting   =     25438.02725420   -25936.69268117
  entropy T*S    EENTRO =         0.00000000
  eigenvalues    EBANDS =     -3722.32138211
  atomic energy  EATOM  =     15171.73615219
  Solvation  Ediel_sol  =         0.00000000
  ---------------------------------------------------
  free energy    TOTEN  =      -487.42704902 eV

  energy without entropy =     -487.42704902  energy(sigma->0) =     -487.42704902


--------------------------------------------------------------------------------------------------------




--------------------------------------- Iteration      1(  11)  ---------------------------------------


    POTLOK:  cpu time    0.1324: real time    0.1400
    SETDIJ:  cpu time    0.0088: real time    0.0088
     EDDAV:  cpu time   15.4013: real time   15.4211
 BZINTS: Fermi energy: -2.614654;280.000000 electrons
         Band energy:***********;  BLOECHL correction:  0.000000
       DOS:  cpu time    0.0159: real time    0.0159
    CHARGE:  cpu time    0.2408: real time    0.2408
    MIXING:  cpu time    0.0040: real time    0.0040
    --------------------------------------------
      LOOP:  cpu time   15.8031: real time   15.8305

 eigenvalue-minimisations  :  4592
 total energy-change (2. order) : 0.6771421E-01  (-0.3153634E+00)
 number of electron     279.9999992 magnetization       0.0000000
 augmentation part       17.7785496 magnetization      -0.0009407

 Broyden mixing:
  rms(total) = 0.23315E+00    rms(broyden)= 0.23270E+00
  rms(prec ) = 0.31317E+00
  weight for this iteration     100.00

 eigenvalues of (default mixing * dielectric matrix)
  average eigenvalue GAMMA=   1.3612
  3.7978  1.3757  1.0045  1.0045  0.4924  0.4924

 Free energy of the ion-electron system (eV)
  ---------------------------------------------------
  alpha Z        PSCENC =       137.52455878
  Ewald energy   TEWEN  =     24755.80918191
  -Hartree energ DENC   =    -37408.73887126
  -exchange      EXHF   =         0.00000000
  -V(xc)+E(xc)   XCENC  =      1082.06681706
  PAW double counting   =     26103.55313404   -26601.80720662
  entropy T*S    EENTRO =         0.00000000
  eigenvalues    EBANDS =     -3727.50310091
  atomic energy  EATOM  =     15171.73615219
  Solvation  Ediel_sol  =         0.00000000
  ---------------------------------------------------
  free energy    TOTEN  =      -487.35933481 eV

  energy without entropy =     -487.35933481  energy(sigma->0) =     -487.35933481


--------------------------------------------------------------------------------------------------------




--------------------------------------- Iteration      1(  12)  ---------------------------------------


    POTLOK:  cpu time    0.1315: real time    0.1350
    SETDIJ:  cpu time    0.0087: real time    0.0087
     EDDAV:  cpu time   15.9602: real time   15.9762
 BZINTS: Fermi energy: -2.630908;280.000000 electrons
         Band energy:***********;  BLOECHL correction:  0.000000
       DOS:  cpu time    0.0155: real time    0.0155
    CHARGE:  cpu time    0.2394: real time    0.2395
    MIXING:  cpu time    0.0041: real time    0.0041
    --------------------------------------------
      LOOP:  cpu time   16.3596: real time   16.3791

 eigenvalue-minimisations  :  4808
 total energy-change (2. order) : 0.8728369E-01  (-0.1582940E+00)
 number of electron     279.9999991 magnetization      -0.0000000
 augmentation part       17.7428171 magnetization      -0.0003690

 Broyden mixing:
  rms(total) = 0.13880E+00    rms(broyden)= 0.13842E+00
  rms(prec ) = 0.17535E+00
  weight for this iteration     100.00

 eigenvalues of (default mixing * dielectric matrix)
  average eigenvalue GAMMA=   1.3527
  3.7526  1.9087  1.1903  0.8122  0.8122  0.4965  0.4965

 Free energy of the ion-electron system (eV)
  ---------------------------------------------------
  alpha Z        PSCENC =       137.52455878
  Ewald energy   TEWEN  =     24755.80918191
  -Hartree energ DENC   =    -37395.64641291
  -exchange      EXHF   =         0.00000000
  -V(xc)+E(xc)   XCENC  =      1081.65035884
  PAW double counting   =     26285.78694981   -26783.36232830
  entropy T*S    EENTRO =         0.00000000
  eigenvalues    EBANDS =     -3740.77051145
  atomic energy  EATOM  =     15171.73615219
  Solvation  Ediel_sol  =         0.00000000
  ---------------------------------------------------
  free energy    TOTEN  =      -487.27205113 eV

  energy without entropy =     -487.27205113  energy(sigma->0) =     -487.27205113


--------------------------------------------------------------------------------------------------------




--------------------------------------- Iteration      1(  13)  ---------------------------------------


    POTLOK:  cpu time    0.1355: real time    0.1363
    SETDIJ:  cpu time    0.0088: real time    0.0088
     EDDAV:  cpu time   13.7958: real time   13.8077
 BZINTS: Fermi energy: -2.659665;280.000000 electrons
         Band energy:***********;  BLOECHL correction:  0.000000
       DOS:  cpu time    0.0151: real time    0.0151
    CHARGE:  cpu time    0.2543: real time    0.2543
    MIXING:  cpu time    0.0044: real time    0.0044
    --------------------------------------------
      LOOP:  cpu time   14.2137: real time   14.2265

 eigenvalue-minimisations  :  3984
 total energy-change (2. order) : 0.3679480E-01  (-0.2191402E-01)
 number of electron     279.9999991 magnetization      -0.0000000
 augmentation part       17.7632858 magnetization       0.0000108

 Broyden mixing:
  rms(total) = 0.75239E-01    rms(broyden)= 0.75206E-01
  rms(prec ) = 0.91207E-01
  weight for this iteration     100.00

 eigenvalues of (default mixing * dielectric matrix)
  average eigenvalue GAMMA=   1.3462
  3.7485  2.3774  1.2243  0.8357  0.8357  0.7519  0.4982  0.4982

 Free energy of the ion-electron system (eV)
  ---------------------------------------------------
  alpha Z        PSCENC =       137.52455878
  Ewald energy   TEWEN  =     24755.80918191
  -Hartree energ DENC   =    -37379.41482559
  -exchange      EXHF   =         0.00000000
  -V(xc)+E(xc)   XCENC  =      1081.04138155
  PAW double counting   =     26380.25020376   -26877.72681021
  entropy T*S    EENTRO =         0.00000000
  eigenvalues    EBANDS =     -3756.45509872
  atomic energy  EATOM  =     15171.73615219
  Solvation  Ediel_sol  =         0.00000000
  ---------------------------------------------------
  free energy    TOTEN  =      -487.23525633 eV

  energy without entropy =     -487.23525633  energy(sigma->0) =     -487.23525633


--------------------------------------------------------------------------------------------------------




--------------------------------------- Iteration      1(  14)  ---------------------------------------


    POTLOK:  cpu time    0.1265: real time    0.1362
    SETDIJ:  cpu time    0.0088: real time    0.0088
     EDDAV:  cpu time   14.1651: real time   14.1796
 BZINTS: Fermi energy: -2.695924;280.000000 electrons
         Band energy:***********;  BLOECHL correction:  0.000000
       DOS:  cpu time    0.0155: real time    0.0155
    CHARGE:  cpu time    0.2567: real time    0.2567
    MIXING:  cpu time    0.0045: real time    0.0045
    --------------------------------------------
      LOOP:  cpu time   14.5771: real time   14.6014

 eigenvalue-minimisations  :  4120
 total energy-change (2. order) : 0.4781362E-02  (-0.1119682E-01)
 number of electron     279.9999991 magnetization      -0.0000000
 augmentation part       17.7705169 magnetization       0.0001440

 Broyden mixing:
  rms(total) = 0.43311E-01    rms(broyden)= 0.43146E-01
  rms(prec ) = 0.55688E-01
  weight for this iteration     100.00

 eigenvalues of (default mixing * dielectric matrix)
  average eigenvalue GAMMA=   1.3371
  3.7731  2.5186  1.2196  0.8997  0.8997  0.8653  0.8653  0.4962  0.4962

 Free energy of the ion-electron system (eV)
  ---------------------------------------------------
  alpha Z        PSCENC =       137.52455878
  Ewald energy   TEWEN  =     24755.80918191
  -Hartree energ DENC   =    -37371.91755264
  -exchange      EXHF   =         0.00000000
  -V(xc)+E(xc)   XCENC  =      1080.76286751
  PAW double counting   =     26458.53965483   -26955.94330528
  entropy T*S    EENTRO =         0.00000000
  eigenvalues    EBANDS =     -3763.74203226
  atomic energy  EATOM  =     15171.73615219
  Solvation  Ediel_sol  =         0.00000000
  ---------------------------------------------------
  free energy    TOTEN  =      -487.23047497 eV

  energy without entropy =     -487.23047497  energy(sigma->0) =     -487.23047497


--------------------------------------------------------------------------------------------------------




--------------------------------------- Iteration      1(  15)  ---------------------------------------


    POTLOK:  cpu time    0.1448: real time    0.1458
    SETDIJ:  cpu time    0.0087: real time    0.0087
     EDDAV:  cpu time   14.0243: real time   14.0481
 BZINTS: Fermi energy: -2.690923;280.000000 electrons
         Band energy:***********;  BLOECHL correction:  0.000000
       DOS:  cpu time    0.0150: real time    0.0150
    CHARGE:  cpu time    0.2542: real time    0.2542
    MIXING:  cpu time    0.0048: real time    0.0048
    --------------------------------------------
      LOOP:  cpu time   14.4518: real time   14.4765

 eigenvalue-minimisations  :  4088
 total energy-change (2. order) :-0.1420182E-02  (-0.9076952E-02)
 number of electron     279.9999991 magnetization      -0.0000000
 augmentation part       17.7689106 magnetization       0.0001830

 Broyden mixing:
  rms(total) = 0.44533E-01    rms(broyden)= 0.44434E-01
  rms(prec ) = 0.61409E-01
  weight for this iteration     100.00

 eigenvalues of (default mixing * dielectric matrix)
  average eigenvalue GAMMA=   1.3313
  3.7311  2.6864  1.2634  1.2101  1.2101  0.7842  0.7842  0.6621  0.4908  0.4908

 Free energy of the ion-electron system (eV)
  ---------------------------------------------------
  alpha Z        PSCENC =       137.52455878
  Ewald energy   TEWEN  =     24755.80918191
  -Hartree energ DENC   =    -37371.89790975
  -exchange      EXHF   =         0.00000000
  -V(xc)+E(xc)   XCENC  =      1080.75012510
  PAW double counting   =     26493.85582256   -26991.26900084
  entropy T*S    EENTRO =         0.00000000
  eigenvalues    EBANDS =     -3763.74082509
  atomic energy  EATOM  =     15171.73615219
  Solvation  Ediel_sol  =         0.00000000
  ---------------------------------------------------
  free energy    TOTEN  =      -487.23189515 eV

  energy without entropy =     -487.23189515  energy(sigma->0) =     -487.23189515


--------------------------------------------------------------------------------------------------------




--------------------------------------- Iteration      1(  16)  ---------------------------------------


    POTLOK:  cpu time    0.1231: real time    0.1356
    SETDIJ:  cpu time    0.0088: real time    0.0088
     EDDAV:  cpu time   14.6905: real time   14.7101
 BZINTS: Fermi energy: -2.695924;280.000000 electrons
         Band energy:***********;  BLOECHL correction:  0.000000
       DOS:  cpu time    0.0151: real time    0.0151
    CHARGE:  cpu time    0.2554: real time    0.2554
    MIXING:  cpu time    0.0049: real time    0.0049
    --------------------------------------------
      LOOP:  cpu time   15.0978: real time   15.1300

 eigenvalue-minimisations  :  4328
 total energy-change (2. order) : 0.2734945E-02  (-0.5375039E-02)
 number of electron     279.9999991 magnetization      -0.0000000
 augmentation part       17.7692760 magnetization       0.0001095

 Broyden mixing:
  rms(total) = 0.22139E-01    rms(broyden)= 0.22000E-01
  rms(prec ) = 0.29209E-01
  weight for this iteration     100.00

 eigenvalues of (default mixing * dielectric matrix)
  average eigenvalue GAMMA=   1.3196
  3.6865  2.9271  1.5879  1.1466  1.1466  0.7966  0.7966  0.8152  0.6406  0.4859
  0.4859

 Free energy of the ion-electron system (eV)
  ---------------------------------------------------
  alpha Z        PSCENC =       137.52455878
  Ewald energy   TEWEN  =     24755.80918191
  -Hartree energ DENC   =    -37371.39794440
  -exchange      EXHF   =         0.00000000
  -V(xc)+E(xc)   XCENC  =      1080.72575317
  PAW double counting   =     26500.92272196   -26998.37296129
  entropy T*S    EENTRO =         0.00000000
  eigenvalues    EBANDS =     -3764.17662252
  atomic energy  EATOM  =     15171.73615219
  Solvation  Ediel_sol  =         0.00000000
  ---------------------------------------------------
  free energy    TOTEN  =      -487.22916020 eV

  energy without entropy =     -487.22916020  energy(sigma->0) =     -487.22916020


--------------------------------------------------------------------------------------------------------




--------------------------------------- Iteration      1(  17)  ---------------------------------------


    POTLOK:  cpu time    0.1355: real time    0.1364
    SETDIJ:  cpu time    0.0088: real time    0.0088
     EDDAV:  cpu time   13.7109: real time   13.7281
 BZINTS: Fermi energy: -2.694674;280.000000 electrons
         Band energy:***********;  BLOECHL correction:  0.000000
       DOS:  cpu time    0.0151: real time    0.0151
    CHARGE:  cpu time    0.2552: real time    0.2552
    MIXING:  cpu time    0.0051: real time    0.0051
    --------------------------------------------
      LOOP:  cpu time   14.1305: real time   14.1487

 eigenvalue-minimisations  :  3960
 total energy-change (2. order) : 0.4853133E-04  (-0.9767126E-03)
 number of electron     279.9999991 magnetization      -0.0000000
 augmentation part       17.7694971 magnetization       0.0001782

 Broyden mixing:
  rms(total) = 0.11678E-01    rms(broyden)= 0.11657E-01
  rms(prec ) = 0.12780E-01
  weight for this iteration     100.00

 eigenvalues of (default mixing * dielectric matrix)
  average eigenvalue GAMMA=   1.3375
  3.6864  2.8590  1.5456  1.5456  1.2885  0.9755  0.9755  0.7953  0.7953  0.4856
  0.4856  0.6119

 Free energy of the ion-electron system (eV)
  ---------------------------------------------------
  alpha Z        PSCENC =       137.52455878
  Ewald energy   TEWEN  =     24755.80918191
  -Hartree energ DENC   =    -37371.25720176
  -exchange      EXHF   =         0.00000000
  -V(xc)+E(xc)   XCENC  =      1080.71872699
  PAW double counting   =     26505.38620707   -27002.84631427
  entropy T*S    EENTRO =         0.00000000
  eigenvalues    EBANDS =     -3764.30042258
  atomic energy  EATOM  =     15171.73615219
  Solvation  Ediel_sol  =         0.00000000
  ---------------------------------------------------
  free energy    TOTEN  =      -487.22911167 eV

  energy without entropy =     -487.22911167  energy(sigma->0) =     -487.22911167


--------------------------------------------------------------------------------------------------------




--------------------------------------- Iteration      1(  18)  ---------------------------------------


    POTLOK:  cpu time    0.1339: real time    0.1347
    SETDIJ:  cpu time    0.0088: real time    0.0088
     EDDAV:  cpu time   13.8287: real time   13.8402
 BZINTS: Fermi energy: -2.691548;280.000000 electrons
         Band energy:***********;  BLOECHL correction:  0.000000
       DOS:  cpu time    0.0154: real time    0.0154
    CHARGE:  cpu time    0.2579: real time    0.2580
    MIXING:  cpu time    0.0056: real time    0.0056
    --------------------------------------------
      LOOP:  cpu time   14.2502: real time   14.2626

 eigenvalue-minimisations  :  4000
 total energy-change (2. order) :-0.1875904E-03  (-0.3632891E-03)
 number of electron     279.9999991 magnetization      -0.0000000
 augmentation part       17.7695236 magnetization       0.0002389

 Broyden mixing:
  rms(total) = 0.11793E-01    rms(broyden)= 0.11774E-01
  rms(prec ) = 0.15240E-01
  weight for this iteration     100.00

 eigenvalues of (default mixing * dielectric matrix)
  average eigenvalue GAMMA=   1.2813
  3.6810  2.8028  1.6221  1.6221  1.1073  1.0768  1.0768  0.7892  0.7892  0.6228
  0.4869  0.4869  0.4937

 Free energy of the ion-electron system (eV)
  ---------------------------------------------------
  alpha Z        PSCENC =       137.52455878
  Ewald energy   TEWEN  =     24755.80918191
  -Hartree energ DENC   =    -37371.45041609
  -exchange      EXHF   =         0.00000000
  -V(xc)+E(xc)   XCENC  =      1080.73011287
  PAW double counting   =     26505.98640585   -27003.44854899
  entropy T*S    EENTRO =         0.00000000
  eigenvalues    EBANDS =     -3764.11674578
  atomic energy  EATOM  =     15171.73615219
  Solvation  Ediel_sol  =         0.00000000
  ---------------------------------------------------
  free energy    TOTEN  =      -487.22929926 eV

  energy without entropy =     -487.22929926  energy(sigma->0) =     -487.22929926


--------------------------------------------------------------------------------------------------------




--------------------------------------- Iteration      1(  19)  ---------------------------------------


    POTLOK:  cpu time    0.1273: real time    0.1350
    SETDIJ:  cpu time    0.0087: real time    0.0087
     EDDAV:  cpu time   12.6920: real time   12.7010
 BZINTS: Fermi energy: -2.690923;280.000000 electrons
         Band energy:***********;  BLOECHL correction:  0.000000
       DOS:  cpu time    0.0150: real time    0.0150
    CHARGE:  cpu time    0.2570: real time    0.2573
    MIXING:  cpu time    0.0056: real time    0.0056
    --------------------------------------------
      LOOP:  cpu time   13.1057: real time   13.1226

 eigenvalue-minimisations  :  3568
 total energy-change (2. order) :-0.6569513E-04  (-0.3056656E-03)
 number of electron     279.9999991 magnetization      -0.0000000
 augmentation part       17.7694094 magnetization       0.0004730

 Broyden mixing:
  rms(total) = 0.87190E-02    rms(broyden)= 0.86867E-02
  rms(prec ) = 0.87857E-02
  weight for this iteration     100.00

 eigenvalues of (default mixing * dielectric matrix)
  average eigenvalue GAMMA=   1.3573
  3.6477  2.5418  2.5418  1.2160  1.7160  1.2294  1.2294  0.8146  0.8146  0.8403
  0.8403  0.4847  0.4847  0.6006

 Free energy of the ion-electron system (eV)
  ---------------------------------------------------
  alpha Z        PSCENC =       137.52455878
  Ewald energy   TEWEN  =     24755.80918191
  -Hartree energ DENC   =    -37371.87730805
  -exchange      EXHF   =         0.00000000
  -V(xc)+E(xc)   XCENC  =      1080.74669757
  PAW double counting   =     26505.57590158   -27003.03950901
  entropy T*S    EENTRO =         0.00000000
  eigenvalues    EBANDS =     -3763.70503993
  atomic energy  EATOM  =     15171.73615219
  Solvation  Ediel_sol  =         0.00000000
  ---------------------------------------------------
  free energy    TOTEN  =      -487.22936496 eV

  energy without entropy =     -487.22936496  energy(sigma->0) =     -487.22936496


--------------------------------------------------------------------------------------------------------




--------------------------------------- Iteration      1(  20)  ---------------------------------------


[...]
   -.146E+02 0.478E+02 0.171E+03   0.152E+02 -.501E+02 -.172E+03   -.475E+00 0.232E+01 0.137E+01   -.339E-02 -.128E-01 -.717E-02
   -.563E+02 -.147E+02 0.825E+02   0.585E+02 0.159E+02 -.832E+02   -.236E+01 -.111E+01 0.840E+00   0.119E-01 0.830E-02 -.597E-02
   0.372E+02 -.277E+02 -.308E+02   -.378E+02 0.244E+02 0.296E+02   0.410E+00 0.261E+01 0.781E+00   0.368E-02 -.720E-02 0.273E-02
   0.255E+02 -.142E+02 -.424E+02   -.218E+02 0.166E+02 0.419E+02   -.288E+01 -.173E+01 0.351E+00   0.130E-01 0.500E-02 -.806E-03
   -.811E+01 0.144E+00 -.521E+02   0.422E+01 0.204E+01 0.517E+02   0.309E+01 -.155E+01 0.201E+00   -.125E-01 0.931E-02 -.463E-03
   -.234E+02 0.162E+02 -.621E+02   0.228E+02 -.143E+02 0.630E+02   0.962E+00 -.164E+01 -.107E+01   -.876E-02 0.284E-02 0.239E-02
   -.322E+01 0.168E+02 0.419E+02   0.317E+01 -.192E+02 -.410E+02   0.456E-01 0.271E+01 -.606E+00   0.297E-03 -.230E-01 -.147E-02
   0.302E+02 0.149E+02 -.578E+02   -.294E+02 -.128E+02 0.582E+02   -.113E+01 -.196E+01 -.806E+00   0.168E-01 0.202E-01 0.159E-01
   -.318E+01 -.169E+02 -.123E+02   0.326E+01 0.127E+02 0.133E+02   -.866E-01 0.339E+01 -.679E+00   -.678E-02 -.691E-02 0.470E-02
   0.374E+02 0.270E+02 0.165E+03   -.338E+02 -.251E+02 -.165E+03   -.281E+01 -.152E+01 -.412E+00   -.291E-02 0.553E-02 -.155E-03
   -.144E+02 0.216E+02 0.746E+02   0.107E+02 -.196E+02 -.738E+02   0.290E+01 -.137E+01 -.542E+00   -.105E-01 0.379E-02 0.307E-03
   0.583E+02 -.134E+02 0.567E+02   -.605E+02 0.146E+02 -.570E+02   0.239E+01 -.115E+01 0.418E+00   -.120E-01 0.586E-02 -.361E-02
   0.499E+01 0.679E+02 0.182E+03   -.530E+01 -.701E+02 -.183E+03   0.695E-01 0.231E+01 0.140E+01   -.265E-02 -.208E-01 -.984E-02
   -.577E+02 -.528E+02 -.854E+02   0.597E+02 0.539E+02 0.857E+02   -.230E+01 -.124E+01 -.376E+00   0.138E-01 0.694E-02 0.106E-02
   -.314E+02 -.269E+02 -.122E+03   0.318E+02 0.235E+02 0.121E+03   -.128E+00 0.255E+01 0.844E+00   0.715E-03 -.117E-01 0.595E-03
   0.113E+02 -.815E+00 -.950E+02   -.731E+01 0.292E+01 0.941E+02   -.310E+01 -.148E+01 0.443E+00   0.131E-01 0.493E-02 -.178E-02
   -.282E+02 -.100E+02 -.770E+02   0.245E+02 0.125E+02 0.759E+02   0.286E+01 -.181E+01 0.783E+00   -.114E-01 0.461E-03 -.503E-02
   0.662E+02 -.626E+02 0.118E+03   -.685E+02 0.638E+02 -.118E+03   0.231E+01 -.162E+01 0.162E-01   -.258E-01 0.125E-01 -.335E-02
   -.927E+01 0.387E+02 -.163E+03   0.927E+01 -.413E+02 0.164E+03   -.214E-01 0.287E+01 -.123E+01   -.123E-02 -.142E-01 0.823E-02
   -.758E+02 -.229E+02 -.528E+02   0.783E+02 0.234E+02 0.536E+02   -.254E+01 -.629E+00 -.921E+00   0.916E-02 0.345E-02 0.270E-02
   -.132E+02 0.358E+02 0.142E+03   0.134E+02 -.368E+02 -.144E+03   -.327E+00 0.795E+00 0.242E+01   0.173E-01 -.878E-02 0.303E-02
   -.174E+03 -.264E+02 0.194E+03   0.203E+03 0.421E+02 -.205E+03   -.303E+02 -.166E+02 0.120E+02   -.115E-02 0.274E-03 -.554E-03
   0.140E+03 -.138E+03 -.208E+03   -.169E+03 0.153E+03 0.218E+03   0.302E+02 -.158E+02 -.111E+02   -.317E-02 0.351E-02 -.227E-02
   0.213E+01 0.154E+03 0.343E+03   0.275E+00 -.181E+03 -.364E+03   -.272E+01 0.284E+02 0.223E+02   0.285E-03 -.385E-02 0.608E-03
   -.360E+02 0.127E+03 0.360E+03   0.334E+02 -.152E+03 -.383E+03   0.262E+01 0.263E+02 0.248E+02   -.626E-02 -.265E-02 0.374E-02
   0.173E+03 -.888E+02 -.988E+02   -.200E+03 0.107E+03 0.988E+02   0.292E+02 -.200E+02 -.189E+00   -.122E-02 0.303E-02 -.200E-02
   -.130E+03 -.720E+02 0.221E+03   0.158E+03 0.805E+02 -.239E+03   -.295E+02 -.902E+01 0.194E+02   -.157E-02 0.573E-02 -.299E-03
   -.406E+01 -.209E+00 -.215E+02   0.422E+01 0.247E+00 0.225E+02   -.184E+00 -.249E-01 -.104E+01   -.125E-02 0.129E-02 -.105E-02
   0.158E+02 -.217E+02 -.843E+02   -.161E+02 0.223E+02 0.883E+02   0.196E+00 -.669E+00 -.419E+01   0.193E-02 0.317E-02 -.191E-02
   0.597E-01 -.561E+02 -.265E+03   0.201E+02 0.682E+02 0.286E+03   -.211E+02 -.129E+02 -.228E+02   0.396E-02 0.121E-01 0.643E-02
   0.657E+01 0.605E+02 -.666E+02   -.246E+02 -.565E+02 0.764E+02   0.193E+02 -.416E+01 -.105E+02   -.125E-03 -.869E-02 -.471E-02
   -.156E+02 0.995E+02 0.109E+03   0.184E+02 -.131E+03 -.118E+03   -.304E+01 0.333E+02 0.996E+01   0.260E-02 -.362E-02 0.919E-04
   0.375E+00 0.965E+02 0.121E+03   -.236E+01 -.128E+03 -.130E+03   0.217E+01 0.331E+02 0.101E+02   0.412E-03 -.282E-02 0.116E-02
   0.342E+02 -.547E+02 -.289E+03   -.584E+02 0.673E+02 0.305E+03   0.253E+02 -.135E+02 -.175E+02   0.734E-02 0.676E-02 -.197E-02
   -.151E+01 0.690E+02 -.951E+02   0.180E+02 -.655E+02 0.108E+03   -.176E+02 -.355E+01 -.142E+02   0.957E-02 0.163E-02 0.478E-02
   0.471E+02 0.166E+02 0.625E+02   -.509E+02 -.193E+02 -.620E+02   0.433E+01 0.298E+01 -.425E+00   -.363E-02 0.374E-02 -.210E-02
   0.132E+02 0.347E+02 0.129E+03   -.150E+02 -.363E+02 -.133E+03   0.192E+01 0.169E+01 0.437E+01   -.683E-02 -.217E-02 0.674E-02
   -.169E+03 -.930E+02 -.108E+03   0.198E+03 0.111E+03 0.108E+03   -.298E+02 -.192E+02 -.763E+00   -.524E-02 -.198E-02 -.515E-03
   0.134E+03 -.609E+02 0.172E+03   -.163E+03 0.691E+02 -.188E+03   0.306E+02 -.864E+01 0.168E+02   0.353E-02 0.610E-02 -.126E-02
   0.126E+02 0.148E+03 0.371E+03   -.774E+01 -.173E+03 -.392E+03   -.491E+01 0.271E+02 0.231E+02   0.605E-02 -.129E-01 -.397E-02
   0.569E+01 0.212E+03 0.310E+03   -.720E+01 -.243E+03 -.320E+03   0.182E+01 0.338E+02 0.108E+02   -.461E-02 -.628E-02 -.124E-02
   0.175E+03 -.275E+02 0.117E+03   -.205E+03 0.442E+02 -.122E+03   0.310E+02 -.178E+02 0.572E+01   0.591E-02 -.674E-02 -.385E-04
   -.128E+03 -.142E+03 -.254E+03   0.155E+03 0.156E+03 0.267E+03   -.287E+02 -.157E+02 -.143E+02   0.526E-03 -.216E-03 -.472E-02
   0.693E+00 -.311E+02 -.108E+02   -.583E+00 0.322E+02 0.857E+01   -.127E+00 -.126E+01 0.236E+01   0.778E-03 0.151E-02 0.150E-02
   -.153E+02 -.239E+02 -.163E+03   0.153E+02 0.257E+02 0.169E+03   0.131E+00 -.194E+01 -.561E+01   -.160E-02 -.112E-01 -.588E-02
   -.202E+03 -.587E+02 -.805E+02   0.231E+03 0.761E+02 0.811E+02   -.301E+02 -.184E+02 -.695E+00   -.552E-02 -.171E-02 0.343E-02
   0.161E+03 -.131E+03 0.264E+03   -.190E+03 0.146E+03 -.271E+03   0.310E+02 -.155E+02 0.703E+01   -.128E-01 0.361E-02 0.412E-03
   0.110E+01 0.132E+03 -.335E+03   0.327E+01 -.159E+03 0.356E+03   -.466E+01 0.280E+02 -.227E+02   -.733E-02 0.971E-03 0.173E-03
   -.318E+02 0.102E+03 -.377E+03   0.303E+02 -.126E+03 0.401E+03   0.163E+01 0.259E+02 -.260E+02   0.575E-02 -.299E-02 -.685E-03
   0.171E+03 -.114E+03 0.204E+03   -.193E+03 0.136E+03 -.216E+03   0.239E+02 -.227E+02 0.126E+02   -.751E-02 0.666E-02 0.241E-02
   -.151E+03 -.651E+02 -.163E+03   0.181E+03 0.733E+02 0.176E+03   -.318E+02 -.860E+01 -.142E+02   -.250E-02 0.406E-02 -.529E-03
   -.440E+02 0.192E+02 0.379E+02   0.467E+02 -.212E+02 -.399E+02   -.305E+01 0.222E+01 0.222E+01   0.375E-02 0.301E-02 0.134E-02
   0.398E+02 -.105E+03 -.854E+03   -.408E+02 0.118E+03 0.870E+03   0.101E+01 -.143E+02 -.166E+02   0.218E-01 0.147E-02 -.575E-02
   -.591E+02 -.135E+03 0.129E+03   0.653E+02 0.149E+03 -.145E+03   -.771E+01 -.174E+02 0.203E+02   0.142E-03 -.241E-03 0.420E-03
   0.501E+02 0.113E+03 -.728E+02   -.638E+02 -.144E+03 0.109E+03   0.153E+02 0.346E+02 -.402E+02   0.976E-03 0.846E-03 -.131E-02
 -----------------------------------------------------------------------------------------------
   -.518E+01 -.223E+02 0.174E+02   -.206E-12 -.426E-12 -.639E-12   0.517E+01 0.224E+02 -.174E+02   0.102E-01 -.159E-01 -.814E-02


 POSITION                                       TOTAL-FORCE (eV/Angst)
 -----------------------------------------------------------------------------------
     -0.01555      2.57607      6.80760        -0.010165     -0.910410      0.389656
      1.26943      4.79191      6.91202         0.991496      0.163111      0.137890
     -1.32589      4.74455      6.82044        -1.015384      0.122206     -0.004993
      5.98071      0.68774      8.04358         0.177612     -0.032957     -0.197912
      3.62758      4.79061      6.59015         0.128096      0.008910      0.323560
      1.23334      0.61924      7.15419        -0.186443      0.041361      0.151032
     -3.73715      8.63985      7.70362        -0.138864     -0.731308     -0.429124
     -2.31351     10.76944      7.97350         0.786705      0.613469     -0.108499
     -4.87017     10.86873      7.92551        -0.795556      0.628889     -0.199189
      2.50208      6.57976      7.98446         0.377084      0.162062     -0.180023
      0.04099     10.67835      7.78269        -0.010551      0.311617      0.267037
     -2.65115      6.57637      7.65323        -0.347686      0.195233     -0.440944
      7.26603      2.58923      7.52895        -0.012797     -0.852099      0.392372
      8.42804      4.58494      6.39293         0.787732      0.383140      0.209032
      5.94913      4.67507      6.94796        -0.765601      0.675437      0.244159
     13.14990      0.44973      7.34168         0.212322      0.068717      0.135271
     10.76122      4.51474      6.29929        -0.239920      0.097176      0.317373
      8.49423      0.67412      8.14245        -0.203312     -0.112457     -0.152850
      3.70924      8.52849      8.44224         0.252968     -0.790071     -0.460349
      4.91249     10.75685      8.31169         0.870811      0.615379     -0.440965
      2.34964     10.73437      8.28746        -0.811355      0.630950     -0.296326
      9.45754      6.65962      6.71471        -0.078506     -0.388217      0.137758
      7.24898     10.77829      8.49552        -0.021917      0.161946     -0.387071
      4.95231      6.62302      7.79658        -0.092890     -0.023998     -0.100082
     -0.01493      4.04704      6.78520        -0.050699     -0.256510      0.165646
      1.21302      1.92520      6.72161        -1.519821     -0.977388      0.768629
      4.82827     -0.04473      8.30042         1.537692     -0.847679     -0.963797
      4.83058      4.18556      6.27598        -0.315883      1.439487      1.431215
      2.36609      4.31937      6.23490         0.006772      1.185458      1.544551
      6.00779      2.04932      7.84792         1.512627     -1.309992     -0.263928
     -4.82848     11.98822      7.12260        -1.534898     -0.497574      1.308629
      0.01750      0.02224      7.68709        -0.025823      0.013682     -0.068543
     -3.61065     10.07274      7.95881        -0.093474     -0.090901     -0.284489
     -2.71569      7.82181      8.23225        -0.946336     -0.773844     -1.593586
      1.26885      5.90781      7.82295         1.251432     -0.206066     -0.665956
      1.25965     10.00503      7.79444        -0.258111      1.736286      0.728541
     -1.17469     10.02104      7.63299         0.179131      1.756159      0.746821
      2.51959      7.78302      8.65416         1.131985     -0.867620     -1.390189
     -1.44096      5.85447      7.72257        -1.102824     -0.118222     -0.948959
     10.65991      5.83624      6.95617         0.503362      0.252352      0.117088
      7.23151      3.88328      6.85211         0.111162      0.153870      0.293228
      8.50427      2.03044      7.88047        -1.592922     -1.189101     -0.191442
      4.80994     11.83136      7.45321         1.607526     -0.436648      1.220597
     -2.34786      4.23176      6.06408        -0.088382      1.275259      1.560575
      9.57983      3.85106      6.07540         0.305258      1.925427      0.921360
     13.13672      1.76150      6.94280         1.593045     -1.068932      0.416894
      9.59204     -0.06890      8.57066        -1.412154     -0.846170     -1.129314
      7.24044     -0.05291      7.92838        -0.016203     -0.125171      0.166427
      3.63047      9.99041      8.48827         0.093237     -0.161534     -0.397185
      4.93257      7.96068      8.14921        -1.681306     -1.022840     -0.068555
      8.33278      5.99755      6.32841         1.832121     -0.626903      0.932000
     -5.91225     10.37183      8.71412        -0.293755      1.403185     -1.413095
      6.03905     10.28642      8.98513         0.109235      1.120549     -1.670932
     -4.81427      8.23672      6.93381         1.391171     -1.159673      0.896876
      6.07406      5.84299      7.70236        -1.781414     -0.393869     -1.013226
      3.66778      6.00304      7.44247        -0.363238      0.198208      0.282479
     -0.13930      7.15434      8.85636         0.059709     -0.521657     -0.742076
     -0.13930      7.15434     15.07556        -1.582239     -3.578993      4.157097
     -0.47315      6.39946      0.35471         1.580138      3.579279     -4.160192
 -----------------------------------------------------------------------------------
    total drift:                               -0.003078     -0.000628      0.003600


--------------------------------------------------------------------------------------------------------



  FREE ENERGIE OF THE ION-ELECTRON SYSTEM (eV)
  ---------------------------------------------------
  free  energy   TOTEN  =      -491.15964690 eV

  energy  without entropy=     -491.15964690  energy(sigma->0) =     -491.15964690



--------------------------------------------------------------------------------------------------------


    POTLOK:  cpu time    0.1420: real time    0.1434


--------------------------------------------------------------------------------------------------------


     LOOP+:  cpu time  306.0073: real time  306.4950
    4ORBIT:  cpu time    0.0000: real time    0.0000



 total charge     

# of ion       s       p       d       tot
------------------------------------------
    1        0.824   1.612   0.000   2.435
    2        0.812   1.601   0.000   2.413
    3        0.815   1.606   0.000   2.420
    4        0.836   1.618   0.000   2.454
    5        0.828   1.616   0.000   2.444
    6        0.839   1.626   0.000   2.466
    7        0.824   1.606   0.000   2.431
    8        0.824   1.601   0.000   2.424
    9        0.828   1.604   0.000   2.432
   10        0.838   1.644   0.000   2.482
   11        0.836   1.621   0.000   2.457
   12        0.841   1.653   0.000   2.494
   13        0.824   1.601   0.000   2.424
   14        0.819   1.606   0.000   2.426
   15        0.817   1.609   0.000   2.425
   16        0.839   1.631   0.000   2.470
   17        0.829   1.625   0.000   2.454
   18        0.834   1.615   0.000   2.449
   19        0.823   1.604   0.000   2.427
   20        0.826   1.601   0.000   2.427
   21        0.821   1.595   0.000   2.416
   22        0.835   1.619   0.000   2.453
   23        0.836   1.606   0.000   2.442
   24        0.836   1.634   0.000   2.470
   25        1.189   2.612   0.000   3.801
   26        1.264   2.547   0.000   3.811
   27        1.261   2.545   0.000   3.805
   28        1.265   2.518   0.000   3.783
   29        1.262   2.538   0.000   3.799
   30        1.261   2.541   0.000   3.801
   31        1.269   2.541   0.000   3.810
   32        1.217   2.639   0.000   3.856
   33        1.197   2.626   0.000   3.822
   34        1.257   2.556   0.000   3.813
   35        1.233   2.561   0.000   3.794
   36        1.259   2.540   0.000   3.798
   37        1.258   2.540   0.000   3.798
   38        1.255   2.548   0.000   3.803
   39        1.234   2.567   0.000   3.801
   40        1.215   2.656   0.000   3.871
   41        1.195   2.611   0.000   3.806
   42        1.260   2.531   0.000   3.792
   43        1.266   2.547   0.000   3.814
   44        1.262   2.539   0.000   3.801
   45        1.263   2.524   0.000   3.787
   46        1.263   2.553   0.000   3.816
   47        1.261   2.537   0.000   3.798
   48        1.214   2.642   0.000   3.856
   49        1.196   2.596   0.000   3.792
   50        1.261   2.551   0.000   3.812
   51        1.261   2.540   0.000   3.801
   52        1.265   2.523   0.000   3.788
   53        1.264   2.527   0.000   3.791
   54        1.260   2.533   0.000   3.793
   55        1.268   2.535   0.000   3.804
   56        1.214   2.651   0.000   3.864
   57        1.350   0.655  10.025  12.030
   58        1.027   1.315   0.000   2.342
   59        1.628   3.450   0.000   5.078
--------------------------------------------------
tot         63.756 126.187  10.025 199.968



 magnetization (x)

# of ion       s       p       d       tot
------------------------------------------
    1        0.000   0.000   0.000   0.000
    2       -0.000  -0.007   0.000  -0.008
    3        0.000   0.006   0.000   0.006
    4        0.000   0.001   0.000   0.001
    5       -0.000  -0.006   0.000  -0.007
    6        0.000   0.000   0.000   0.000
    7        0.000   0.001   0.000   0.001
    8        0.000   0.000   0.000   0.000
    9        0.000   0.000   0.000   0.000
   10        0.000   0.000   0.000   0.001
   11       -0.000  -0.000   0.000  -0.000
   12       -0.000  -0.000   0.000  -0.000
   13        0.000   0.002   0.000   0.002
   14        0.000   0.007   0.000   0.008
   15       -0.000  -0.007   0.000  -0.008
   16       -0.000  -0.000   0.000  -0.000
   17        0.000   0.006   0.000   0.006
   18        0.000   0.001   0.000   0.001
   19       -0.000  -0.002   0.000  -0.002
   20       -0.000  -0.000   0.000  -0.000
   21       -0.000  -0.000   0.000  -0.000
   22        0.000   0.002   0.000   0.002
   23       -0.000   0.000   0.000  -0.000
   24       -0.000  -0.003   0.000  -0.003
   25        0.000  -0.000   0.000  -0.000
   26       -0.000  -0.000   0.000  -0.000
   27       -0.000   0.000   0.000   0.000
   28        0.000   0.001   0.000   0.002
   29        0.000   0.001   0.000   0.001
   30        0.000   0.000   0.000   0.001
   31        0.000   0.000   0.000   0.000
   32        0.000   0.000   0.000   0.000
   33       -0.000   0.000   0.000   0.000
   34        0.000   0.000   0.000   0.000
   35        0.000  -0.001   0.000  -0.001
   36       -0.000   0.000   0.000   0.000
   37        0.000   0.000   0.000   0.000
   38       -0.000  -0.001   0.000  -0.001
   39        0.000   0.000   0.000   0.000
   40        0.000   0.003   0.000   0.003
   41       -0.000  -0.000   0.000  -0.000
   42       -0.000   0.000   0.000   0.000
   43       -0.000  -0.000   0.000  -0.000
   44       -0.000  -0.001   0.000  -0.001
   45        0.000  -0.001   0.000  -0.000
   46       -0.000  -0.000   0.000  -0.000
   47       -0.000  -0.000   0.000  -0.000
   48        0.000   0.001   0.000   0.001
   49        0.000  -0.000   0.000  -0.000
   50       -0.000   0.000   0.000   0.000
   51        0.000   0.000   0.000   0.000
   52        0.000   0.000   0.000   0.000
   53       -0.000  -0.000   0.000  -0.000
   54       -0.000  -0.000   0.000  -0.000
   55       -0.000  -0.001   0.000  -0.001
   56       -0.000  -0.005   0.000  -0.005
   57       -0.000  -0.001  -0.000  -0.001
   58        0.000   0.000   0.000   0.000
   59       -0.000  -0.000   0.000  -0.000
--------------------------------------------------
tot          0.000   0.000  -0.000   0.001

 BZINTS: Fermi energy: -2.690923;280.000000 electrons
         Band energy:***********;  BLOECHL correction:  0.000000

 total amount of memory used by VASP MPI-rank0   103817. kBytes
=======================================================================

   base      :      30000. kBytes
   nonl-proj :      21574. kBytes
   fftplans  :       4700. kBytes
   grid      :      14364. kBytes
   one-center:        155. kBytes
   wavefun   :      33024. kBytes

  
  
 General timing and accounting informations for this job:
 ========================================================
  
                  Total CPU time used (sec):      318.810
                            User time (sec):      317.855
                          System time (sec):        0.955
                         Elapsed time (sec):      319.688
  
                   Maximum memory used (kb):      183288.
                   Average memory used (kb):           0.
  
                          Minor page faults:        71085
                          Major page faults:            0
                 Voluntary context switches:          900
