       N       E                     dE             d eps       ncg     rms          ort
DAV:   1     0.252278183464E+04    0.25228E+04   -0.11702E+05   768   0.111E+03
DAV:   2    -0.245474169411E+03   -0.27683E+04   -0.26471E+04   768   0.280E+02
DAV:   3    -0.702989540566E+03   -0.45752E+03   -0.45423E+03   768   0.120E+02
DAV:   4    -0.719440835400E+03   -0.16451E+02   -0.16321E+02   768   0.279E+01
DAV:   5    -0.719981427902E+03   -0.54059E+00   -0.53903E+00   768   0.425E+00
SDA:   6    -0.550690665141E+03    0.16929E+03   -0.53903E+00   768   0.493E+03 0.000E+00
CGA:   7    -0.602481566903E+03   -0.51791E+02   -0.24971E+02   768   0.332E+03 0.458E+03
CGA:   8    -0.637929478845E+03   -0.35448E+02   -0.15123E+02   768   0.159E+03 0.284E+03
CGA:   9    -0.651846907164E+03   -0.13917E+02   -0.85553E+01   768   0.352E+02 0.364E+02
CGA:  10    -0.658767730178E+03   -0.69208E+01   -0.69078E+01   768   0.258E+02-0.177E+00
CGA:  11    -0.660714952666E+03   -0.19472E+01   -0.19890E+01   768   0.637E+01 0.963E-01
CGA:  12    -0.661524294312E+03   -0.80934E+00   -0.81239E+00   768   0.588E+01-0.158E-01
CGA:  13    -0.662149784700E+03   -0.62549E+00   -0.46895E+00   768   0.219E+01 0.193E+01
CGA:  14    -0.662328951773E+03   -0.17917E+00   -0.13034E+00   768   0.848E+00 0.971E+00
CGA:  15    -0.662450689500E+03   -0.12174E+00   -0.11783E+00   768   0.144E+01 0.124E-01
CGA:  16    -0.662532813010E+03   -0.82124E-01   -0.64636E-01   768   0.136E+01 0.408E+00
CGA:  17    -0.662607364399E+03   -0.74551E-01   -0.60227E-01   768   0.586E+00 0.451E+00
CGA:  18    -0.662650449730E+03   -0.43085E-01   -0.47795E-01   768   0.383E+00-0.291E-01
CGA:  19    -0.662688125001E+03   -0.37675E-01   -0.35168E-01   768   0.440E+00 0.587E-02
CGA:  20    -0.662705116674E+03   -0.16992E-01   -0.10845E-01   768   0.337E+00 0.241E+00
CGA:  21    -0.662750421291E+03   -0.45305E-01   -0.45319E-01   768   0.186E+00-0.443E-02
CGA:  22    -0.662784120434E+03   -0.33699E-01   -0.31332E-01   768   0.314E-01 0.416E-01
CGA:  23    -0.662791979763E+03   -0.78593E-02   -0.77595E-02   768   0.480E-01 0.108E-02
CGA:  24    -0.662805381283E+03   -0.13402E-01   -0.13569E-01   768   0.287E-01-0.130E-02
CGA:  25    -0.662811468977E+03   -0.60877E-02   -0.61089E-02   768   0.326E-01-0.877E-04
CGA:  26    -0.662815631048E+03   -0.41621E-02   -0.41747E-02   768   0.881E-02 0.228E-03
CGA:  27    -0.662818268041E+03   -0.26370E-02   -0.26649E-02   768   0.151E-01-0.235E-03
CGA:  28    -0.662820082460E+03   -0.18144E-02   -0.18096E-02   768   0.378E-02-0.101E-03
CGA:  29    -0.662821121007E+03   -0.10385E-02   -0.10477E-02   768   0.805E-02-0.542E-04
CGA:  30    -0.662822283245E+03   -0.11622E-02   -0.11624E-02   768   0.272E-02-0.511E-05
CGA:  31    -0.662822776514E+03   -0.49327E-03   -0.49351E-03   768   0.368E-02-0.149E-04
CGA:  32    -0.662823360438E+03   -0.58392E-03   -0.58392E-03   768   0.112E-02 0.321E-05
CGA:  33    -0.662823506029E+03   -0.14559E-03   -0.14596E-03   768   0.101E-02 0.152E-04
CGA:  34    -0.662823719409E+03   -0.21338E-03   -0.21201E-03   768   0.441E-03 0.274E-04
CGA:  35    -0.662823767723E+03   -0.48314E-04   -0.48549E-04   768   0.282E-03 0.524E-05
   1 F= -.66936012E+03 E0= -.66934765E+03  d E =-.669360E+03  mag=     1.2071
       N       E                     dE             d eps       ncg     rms          ort
SDA:   1    -0.661845240772E+03    0.97848E+00    0.00000E+00   768   0.328E+01 0.000E+00
CGA:   2    -0.662305179598E+03   -0.45994E+00   -0.46071E+00   768   0.144E+01 0.974E-02
CGA:   3    -0.662582115688E+03   -0.27694E+00   -0.27755E+00   768   0.915E+00-0.180E-01
CGA:   4    -0.662746828270E+03   -0.16471E+00   -0.16454E+00   768   0.320E+00 0.714E-02
CGA:   5    -0.662804383726E+03   -0.57555E-01   -0.57569E-01   768   0.105E+00-0.637E-03
CGA:   6    -0.662825158635E+03   -0.20775E-01   -0.20756E-01   768   0.439E-01 0.429E-03
CGA:   7    -0.662834381819E+03   -0.92232E-02   -0.92353E-02   768   0.215E-01-0.214E-03
CGA:   8    -0.662838039198E+03   -0.36574E-02   -0.36575E-02   768   0.954E-02 0.615E-04
CGA:   9    -0.662839630947E+03   -0.15917E-02   -0.15916E-02   768   0.296E-02-0.435E-05
CGA:  10    -0.662840211786E+03   -0.58084E-03   -0.58055E-03   768   0.895E-03 0.105E-04
CGA:  11    -0.662840394061E+03   -0.18227E-03   -0.18229E-03   768   0.425E-03-0.211E-06
CGA:  12    -0.662840459496E+03   -0.65436E-04   -0.65445E-04   768   0.159E-03 0.681E-06
   2 F= -.66937666E+03 E0= -.66936462E+03  d E =-.165373E-01  mag=     1.1972
       N       E                     dE             d eps       ncg     rms          ort
SDA:   1    -0.662778634226E+03    0.61760E-01    0.00000E+00   768   0.206E+00 0.000E+00
CGA:   2    -0.662808695390E+03   -0.30061E-01   -0.30051E-01   768   0.917E-01-0.148E-03
CGA:   3    -0.662826302142E+03   -0.17607E-01   -0.17602E-01   768   0.566E-01 0.173E-03
CGA:   4    -0.662836593602E+03   -0.10291E-01   -0.10293E-01   768   0.215E-01-0.135E-03
CGA:   5    -0.662840278159E+03   -0.36846E-02   -0.36846E-02   768   0.702E-02 0.342E-05
CGA:   6    -0.662841643572E+03   -0.13654E-02   -0.13656E-02   768   0.307E-02-0.603E-05
CGA:   7    -0.662842229891E+03   -0.58632E-03   -0.58628E-03   768   0.156E-02 0.893E-06
CGA:   8    -0.662842487384E+03   -0.25749E-03   -0.25742E-03   768   0.633E-03-0.577E-05
CGA:   9    -0.662842603481E+03   -0.11610E-03   -0.11612E-03   768   0.195E-03-0.330E-05
CGA:  10    -0.662842641660E+03   -0.38179E-04   -0.38228E-04   768   0.673E-04-0.228E-05
   3 F= -.66937888E+03 E0= -.66936672E+03  d E =-.187631E-01  mag=     1.1995
       N       E                     dE             d eps       ncg     rms          ort
SDA:   1    -0.662649711641E+03    0.19289E+00    0.00000E+00   768   0.734E+00 0.000E+00
CGA:   2    -0.662744819307E+03   -0.95108E-01   -0.95266E-01   768   0.279E+00 0.569E-03
CGA:   3    -0.662799158536E+03   -0.54339E-01   -0.54396E-01   768   0.193E+00-0.194E-02
CGA:   4    -0.662836502990E+03   -0.37344E-01   -0.37314E-01   768   0.826E-01 0.105E-02
CGA:   5    -0.662851666464E+03   -0.15163E-01   -0.15165E-01   768   0.274E-01-0.134E-03
CGA:   6    -0.662856605556E+03   -0.49391E-02   -0.49388E-02   768   0.100E-01 0.572E-04
CGA:   7    -0.662858482378E+03   -0.18768E-02   -0.18770E-02   768   0.490E-02-0.514E-05
CGA:   8    -0.662859288421E+03   -0.80604E-03   -0.80625E-03   768   0.198E-02 0.133E-04
CGA:   9    -0.662859643987E+03   -0.35557E-03   -0.35556E-03   768   0.582E-03 0.435E-05
CGA:  10    -0.662859757781E+03   -0.11379E-03   -0.11374E-03   768   0.198E-03 0.290E-05
CGA:  11    -0.662859792591E+03   -0.34810E-04   -0.34808E-04   768   0.921E-04-0.501E-06
   4 F= -.66939575E+03 E0= -.66938383E+03  d E =-.168701E-01  mag=     1.1923
       N       E                     dE             d eps       ncg     rms          ort
SDA:   1    -0.661005436129E+03    0.18543E+01    0.00000E+00   768   0.680E+01 0.000E+00
CGA:   2    -0.661854418106E+03   -0.84898E+00   -0.85415E+00   768   0.255E+01 0.105E-02
CGA:   3    -0.662343028329E+03   -0.48861E+00   -0.48994E+00   768   0.181E+01-0.566E-01
CGA:   4    -0.662687750930E+03   -0.34472E+00   -0.34389E+00   768   0.720E+00 0.282E-01
CGA:   5    -0.662825938366E+03   -0.13819E+00   -0.13825E+00   768   0.243E+00-0.301E-02
CGA:   6    -0.662869925921E+03   -0.43988E-01   -0.43977E-01   768   0.880E-01 0.141E-02
CGA:   7    -0.662886951541E+03   -0.17026E-01   -0.17035E-01   768   0.433E-01-0.374E-03
CGA:   8    -0.662894082055E+03   -0.71305E-02   -0.71325E-02   768   0.180E-01 0.980E-04
CGA:   9    -0.662897216130E+03   -0.31341E-02   -0.31338E-02   768   0.546E-02-0.264E-04
CGA:  10    -0.662898278176E+03   -0.10620E-02   -0.10618E-02   768   0.179E-02 0.107E-04
CGA:  11    -0.662898611346E+03   -0.33317E-03   -0.33321E-03   768   0.892E-03-0.378E-05
CGA:  12    -0.662898757422E+03   -0.14608E-03   -0.14606E-03   768   0.334E-03-0.791E-06
CGA:  13    -0.662898839427E+03   -0.82005E-04   -0.82187E-04   768   0.190E-03-0.278E-05
   5 F= -.66943427E+03 E0= -.66942286E+03  d E =-.553921E-01  mag=     1.1751
       N       E                     dE             d eps       ncg     rms          ort
SDA:   1    -0.655297494759E+03    0.76013E+01    0.00000E+00   768   0.288E+02 0.000E+00
CGA:   2    -0.658646310898E+03   -0.33488E+01   -0.33848E+01   768   0.109E+02-0.201E+00
CGA:   3    -0.660569898628E+03   -0.19236E+01   -0.19227E+01   768   0.749E+01-0.273E+00
CGA:   4    -0.662031616198E+03   -0.14617E+01   -0.14539E+01   768   0.279E+01 0.269E+00
CGA:   5    -0.662607000598E+03   -0.57538E+00   -0.57579E+00   768   0.100E+01-0.101E-01
CGA:   6    -0.662789832984E+03   -0.18283E+00   -0.18278E+00   768   0.360E+00 0.138E-01
CGA:   7    -0.662861102855E+03   -0.71270E-01   -0.71349E-01   768   0.193E+00-0.323E-02
CGA:   8    -0.662891601936E+03   -0.30499E-01   -0.30511E-01   768   0.799E-01 0.409E-03
CGA:   9    -0.662905802189E+03   -0.14200E-01   -0.14197E-01   768   0.252E-01-0.407E-03
CGA:  10    -0.662910649328E+03   -0.48471E-02   -0.48471E-02   768   0.899E-02 0.125E-04
CGA:  11    -0.662912256602E+03   -0.16073E-02   -0.16071E-02   768   0.481E-02-0.284E-04
CGA:  12    -0.662913055251E+03   -0.79865E-03   -0.79825E-03   768   0.188E-02-0.116E-04
CGA:  13    -0.662913518694E+03   -0.46344E-03   -0.46396E-03   768   0.120E-02-0.802E-05
CGA:  14    -0.662913747018E+03   -0.22832E-03   -0.22840E-03   768   0.952E-03-0.508E-05
CGA:  15    -0.662913953961E+03   -0.20694E-03   -0.20700E-03   768   0.524E-03-0.213E-05
CGA:  16    -0.662914091059E+03   -0.13710E-03   -0.13722E-03   768   0.444E-03-0.693E-06
CGA:  17    -0.662914165464E+03   -0.74405E-04   -0.74390E-04   768   0.215E-03-0.102E-05
   6 F= -.66945116E+03 E0= -.66943791E+03  d E =-.722734E-01  mag=     1.1948
       N       E                     dE             d eps       ncg     rms          ort
SDA:   1    -0.662111318464E+03    0.80277E+00    0.00000E+00   768   0.276E+01 0.000E+00
CGA:   2    -0.662484678810E+03   -0.37336E+00   -0.37256E+00   768   0.106E+01-0.406E-02
CGA:   3    -0.662688760107E+03   -0.20408E+00   -0.20402E+00   768   0.740E+00 0.959E-02
CGA:   4    -0.662827528849E+03   -0.13877E+00   -0.13873E+00   768   0.348E+00-0.636E-02
CGA:   5    -0.662884950533E+03   -0.57422E-01   -0.57481E-01   768   0.121E+00 0.826E-03
CGA:   6    -0.662904855160E+03   -0.19905E-01   -0.19883E-01   768   0.483E-01-0.396E-03
CGA:   7    -0.662912934668E+03   -0.80795E-02   -0.80822E-02   768   0.206E-01 0.471E-04
CGA:   8    -0.662916713233E+03   -0.37786E-02   -0.37783E-02   768   0.872E-02-0.577E-04
CGA:   9    -0.662918231378E+03   -0.15181E-02   -0.15183E-02   768   0.316E-02 0.201E-05
CGA:  10    -0.662918741098E+03   -0.50972E-03   -0.50951E-03   768   0.108E-02-0.716E-05
CGA:  11    -0.662918927509E+03   -0.18641E-03   -0.18641E-03   768   0.398E-03-0.239E-06
CGA:  12    -0.662918999956E+03   -0.72446E-04   -0.72446E-04   768   0.172E-03-0.622E-06
   7 F= -.66945514E+03 E0= -.66944314E+03  d E =-.762571E-01  mag=     1.1732
       N       E                     dE             d eps       ncg     rms          ort
SDA:   1    -0.662462509058E+03    0.45642E+00    0.00000E+00   768   0.162E+01 0.000E+00
CGA:   2    -0.662680208467E+03   -0.21770E+00   -0.21783E+00   768   0.738E+00-0.350E-03
CGA:   3    -0.662811001560E+03   -0.13079E+00   -0.13077E+00   768   0.464E+00-0.423E-02
CGA:   4    -0.662894413460E+03   -0.83412E-01   -0.83410E-01   768   0.167E+00 0.251E-02
CGA:   5    -0.662923833991E+03   -0.29421E-01   -0.29419E-01   768   0.589E-01-0.476E-04
CGA:   6    -0.662934012060E+03   -0.10178E-01   -0.10181E-01   768   0.273E-01 0.213E-03
CGA:   7    -0.662938530196E+03   -0.45181E-02   -0.45175E-02   768   0.134E-01-0.878E-05
CGA:   8    -0.662940947644E+03   -0.24174E-02   -0.24174E-02   768   0.531E-02 0.302E-04
CGA:   9    -0.662941962207E+03   -0.10146E-02   -0.10147E-02   768   0.195E-02-0.448E-05
CGA:  10    -0.662942263321E+03   -0.30111E-03   -0.30122E-03   768   0.769E-03 0.431E-05
CGA:  11    -0.662942392083E+03   -0.12876E-03   -0.12877E-03   768   0.248E-03 0.914E-06
CGA:  12    -0.662942439610E+03   -0.47527E-04   -0.47512E-04   768   0.106E-03 0.115E-05
   8 F= -.66947937E+03 E0= -.66946628E+03  d E =-.242335E-01  mag=     1.1866
       N       E                     dE             d eps       ncg     rms          ort
SDA:   1    -0.658655341151E+03    0.42871E+01    0.00000E+00   768   0.153E+02 0.000E+00
CGA:   2    -0.660540503769E+03   -0.18852E+01   -0.18894E+01   768   0.720E+01-0.656E-01
CGA:   3    -0.661713686654E+03   -0.11732E+01   -0.11722E+01   768   0.441E+01-0.668E-01
CGA:   4    -0.662521321290E+03   -0.80763E+00   -0.80618E+00   768   0.150E+01 0.985E-01
CGA:   5    -0.662801479489E+03   -0.28016E+00   -0.28021E+00   768   0.549E+00-0.101E-02
CGA:   6    -0.662898639266E+03   -0.97160E-01   -0.97139E-01   768   0.254E+00 0.749E-02
CGA:   7    -0.662939922610E+03   -0.41283E-01   -0.41260E-01   768   0.145E+00-0.454E-03
CGA:   8    -0.662963509241E+03   -0.23587E-01   -0.23600E-01   768   0.543E-01 0.641E-03
CGA:   9    -0.662974663196E+03   -0.11154E-01   -0.11166E-01   768   0.185E-01-0.282E-03
CGA:  10    -0.662977692434E+03   -0.30292E-02   -0.30293E-02   768   0.921E-02 0.147E-04
CGA:  11    -0.662979003747E+03   -0.13113E-02   -0.13107E-02   768   0.303E-02-0.594E-05
CGA:  12    -0.662979644056E+03   -0.64031E-03   -0.64040E-03   768   0.126E-02-0.381E-06
CGA:  13    -0.662979865018E+03   -0.22096E-03   -0.22096E-03   768   0.926E-03-0.341E-05
CGA:  14    -0.662980023358E+03   -0.15834E-03   -0.15832E-03   768   0.403E-03-0.297E-05
CGA:  15    -0.662980135553E+03   -0.11219E-03   -0.11233E-03   768   0.378E-03-0.161E-05
CGA:  16    -0.662980195848E+03   -0.60295E-04   -0.60273E-04   768   0.243E-03 0.605E-07
   9 F= -.66952023E+03 E0= -.66950278E+03  d E =-.650955E-01  mag=     1.2842
       N       E                     dE             d eps       ncg     rms          ort
SDA:   1    -0.662680714854E+03    0.29942E+00    0.00000E+00   768   0.103E+01 0.000E+00
CGA:   2    -0.662814802360E+03   -0.13409E+00   -0.13428E+00   768   0.490E+00-0.215E-03
CGA:   3    -0.662893374019E+03   -0.78572E-01   -0.78531E-01   768   0.310E+00-0.124E-02
CGA:   4    -0.662949433717E+03   -0.56060E-01   -0.56053E-01   768   0.116E+00 0.172E-02
CGA:   5    -0.662968893691E+03   -0.19460E-01   -0.19456E-01   768   0.427E-01-0.664E-04
CGA:   6    -0.662975739268E+03   -0.68456E-02   -0.68496E-02   768   0.205E-01 0.127E-03
CGA:   7    -0.662978841019E+03   -0.31018E-02   -0.31011E-02   768   0.964E-02 0.439E-05
CGA:   8    -0.662980566108E+03   -0.17251E-02   -0.17250E-02   768   0.412E-02 0.289E-04
CGA:   9    -0.662981337493E+03   -0.77138E-03   -0.77146E-03   768   0.187E-02-0.428E-05
CGA:  10    -0.662981591847E+03   -0.25435E-03   -0.25448E-03   768   0.686E-03 0.287E-05
CGA:  11    -0.662981711120E+03   -0.11927E-03   -0.11927E-03   768   0.237E-03 0.461E-06
CGA:  12    -0.662981753320E+03   -0.42200E-04   -0.42195E-04   768   0.132E-03 0.122E-05
  10 F= -.66952270E+03 E0= -.66950422E+03  d E =-.675645E-01  mag=     1.3217
       N       E                     dE             d eps       ncg     rms          ort
SDA:   1    -0.662404648335E+03    0.57706E+00    0.00000E+00   768   0.179E+01 0.000E+00
CGA:   2    -0.662684578984E+03   -0.27993E+00   -0.27964E+00   768   0.151E+01-0.734E-02
CGA:   3    -0.662895935183E+03   -0.21136E+00   -0.21182E+00   768   0.532E+00 0.379E-02
CGA:   4    -0.662991321907E+03   -0.95387E-01   -0.95367E-01   768   0.114E+00 0.176E-02
CGA:   5    -0.663010350852E+03   -0.19029E-01   -0.19029E-01   768   0.367E-01 0.102E-03
CGA:   6    -0.663017403614E+03   -0.70528E-02   -0.70509E-02   768   0.145E-01 0.840E-04
CGA:   7    -0.663020027252E+03   -0.26236E-02   -0.26236E-02   768   0.878E-02 0.826E-05
CGA:   8    -0.663021292664E+03   -0.12654E-02   -0.12659E-02   768   0.445E-02 0.776E-05
CGA:   9    -0.663022132051E+03   -0.83939E-03   -0.83951E-03   768   0.157E-02-0.629E-05
CGA:  10    -0.663022488281E+03   -0.35623E-03   -0.35587E-03   768   0.805E-03 0.610E-05
CGA:  11    -0.663022602567E+03   -0.11429E-03   -0.11432E-03   768   0.419E-03 0.118E-05
CGA:  12    -0.663022672733E+03   -0.70166E-04   -0.70181E-04   768   0.119E-03 0.227E-05
  11 F= -.66956555E+03 E0= -.66954640E+03  d E =-.428457E-01  mag=     1.3643
       N       E                     dE             d eps       ncg     rms          ort
SDA:   1    -0.660264179366E+03    0.27584E+01    0.00000E+00   768   0.817E+01 0.000E+00
CGA:   2    -0.661524848276E+03   -0.12607E+01   -0.12627E+01   768   0.688E+01 0.173E-01
CGA:   3    -0.662497337450E+03   -0.97249E+00   -0.97470E+00   768   0.243E+01 0.151E-01
CGA:   4    -0.662928798648E+03   -0.43146E+00   -0.43135E+00   768   0.519E+00 0.166E-01
CGA:   5    -0.663016364794E+03   -0.87566E-01   -0.87571E-01   768   0.171E+00 0.888E-03
CGA:   6    -0.663050083614E+03   -0.33719E-01   -0.33705E-01   768   0.655E-01 0.545E-03
CGA:   7    -0.663063621539E+03   -0.13538E-01   -0.13540E-01   768   0.346E-01-0.203E-04
CGA:   8    -0.663069332281E+03   -0.57107E-02   -0.57132E-02   768   0.229E-01 0.129E-03
CGA:   9    -0.663072727438E+03   -0.33952E-02   -0.33948E-02   768   0.771E-02-0.521E-05
CGA:  10    -0.663074486614E+03   -0.17592E-02   -0.17578E-02   768   0.294E-02 0.223E-04
CGA:  11    -0.663075048749E+03   -0.56214E-03   -0.56212E-03   768   0.184E-02 0.146E-05
CGA:  12    -0.663075282585E+03   -0.23384E-03   -0.23400E-03   768   0.577E-03 0.316E-05
CGA:  13    -0.663075411689E+03   -0.12910E-03   -0.12917E-03   768   0.216E-03-0.139E-05
CGA:  14    -0.663075453915E+03   -0.42226E-04   -0.42214E-04   768   0.185E-03 0.687E-06
  12 F= -.66962252E+03 E0= -.66960241E+03  d E =-.998207E-01  mag=     1.4716
       N       E                     dE             d eps       ncg     rms          ort
SDA:   1    -0.651896262756E+03    0.11179E+02    0.00000E+00   768   0.328E+02 0.000E+00
CGA:   2    -0.657007272349E+03   -0.51110E+01   -0.51695E+01   768   0.245E+02 0.110E+01
CGA:   3    -0.660817659394E+03   -0.38104E+01   -0.37954E+01   768   0.920E+01-0.893E-01
CGA:   4    -0.662429890091E+03   -0.16122E+01   -0.16120E+01   768   0.187E+01 0.111E+00
CGA:   5    -0.662763196414E+03   -0.33331E+00   -0.33331E+00   768   0.703E+00-0.889E-03
CGA:   6    -0.662894386540E+03   -0.13119E+00   -0.13099E+00   768   0.327E+00 0.109E-01
CGA:   7    -0.662948060625E+03   -0.53674E-01   -0.53695E-01   768   0.189E+00 0.808E-03
CGA:   8    -0.662979634884E+03   -0.31574E-01   -0.31612E-01   768   0.803E-01 0.239E-02
CGA:   9    -0.662997438308E+03   -0.17803E-01   -0.17808E-01   768   0.295E-01-0.996E-04
CGA:  10    -0.663003847751E+03   -0.64094E-02   -0.63997E-02   768   0.158E-01 0.180E-03
CGA:  11    -0.663006093678E+03   -0.22459E-02   -0.22460E-02   768   0.656E-02-0.144E-05
CGA:  12    -0.663007367601E+03   -0.12739E-02   -0.12736E-02   768   0.200E-02 0.140E-04
CGA:  13    -0.663007828422E+03   -0.46082E-03   -0.46091E-03   768   0.116E-02-0.241E-05
CGA:  14    -0.663008001609E+03   -0.17319E-03   -0.17326E-03   768   0.621E-03 0.162E-05
CGA:  15    -0.663008152485E+03   -0.15088E-03   -0.15085E-03   768   0.301E-03 0.606E-07
CGA:  16    -0.663008234507E+03   -0.82022E-04   -0.81864E-04   768   0.287E-03 0.178E-05
  13 F= -.66956373E+03 E0= -.66954261E+03  d E =-.410244E-01  mag=     1.7768
       N       E                     dE             d eps       ncg     rms          ort
SDA:   1    -0.656348208089E+03    0.66599E+01    0.00000E+00   768   0.200E+02 0.000E+00
CGA:   2    -0.659534196569E+03   -0.31860E+01   -0.31708E+01   768   0.147E+02-0.249E+00
CGA:   3    -0.661649904517E+03   -0.21157E+01   -0.21000E+01   768   0.573E+01-0.670E-01
CGA:   4    -0.662762095749E+03   -0.11122E+01   -0.11134E+01   768   0.117E+01-0.632E-01
CGA:   5    -0.662954143817E+03   -0.19205E+00   -0.19215E+00   768   0.431E+00 0.137E-02
CGA:   6    -0.663020378122E+03   -0.66234E-01   -0.66149E-01   768   0.208E+00-0.178E-02
CGA:   7    -0.663051040738E+03   -0.30663E-01   -0.30677E-01   768   0.876E-01-0.797E-05
CGA:   8    -0.663068313389E+03   -0.17273E-01   -0.17283E-01   768   0.397E-01-0.386E-03
CGA:   9    -0.663076375527E+03   -0.80621E-02   -0.80584E-02   768   0.220E-01 0.112E-03
CGA:  10    -0.663079571509E+03   -0.31960E-02   -0.31945E-02   768   0.101E-01-0.190E-04
CGA:  11    -0.663081420139E+03   -0.18486E-02   -0.18486E-02   768   0.347E-02 0.436E-05
CGA:  12    -0.663082100454E+03   -0.68031E-03   -0.68047E-03   768   0.193E-02-0.916E-05
CGA:  13    -0.663082359601E+03   -0.25915E-03   -0.25919E-03   768   0.691E-03 0.733E-06
CGA:  14    -0.663082508786E+03   -0.14919E-03   -0.14921E-03   768   0.299E-03-0.831E-06
CGA:  15    -0.663082561576E+03   -0.52790E-04   -0.52789E-04   768   0.220E-03-0.147E-06
  14 F= -.66963158E+03 E0= -.66961120E+03  d E =-.108877E+00  mag=     1.5340
       N       E                     dE             d eps       ncg     rms          ort
SDA:   1    -0.661825034963E+03    0.12575E+01    0.00000E+00   768   0.338E+01 0.000E+00
CGA:   2    -0.662448411705E+03   -0.62338E+00   -0.62321E+00   768   0.286E+01 0.151E-01
CGA:   3    -0.662857562662E+03   -0.40915E+00   -0.40831E+00   768   0.120E+01-0.103E-01
CGA:   4    -0.663053794083E+03   -0.19623E+00   -0.19635E+00   768   0.252E+00 0.398E-02
CGA:   5    -0.663097998269E+03   -0.44204E-01   -0.44202E-01   768   0.980E-01-0.308E-03
CGA:   6    -0.663114535373E+03   -0.16537E-01   -0.16544E-01   768   0.473E-01 0.475E-03
CGA:   7    -0.663121888781E+03   -0.73534E-02   -0.73534E-02   768   0.251E-01 0.145E-04
CGA:   8    -0.663126506488E+03   -0.46177E-02   -0.46164E-02   768   0.106E-01 0.901E-04
CGA:   9    -0.663128709827E+03   -0.22033E-02   -0.22046E-02   768   0.466E-02-0.329E-04
CGA:  10    -0.663129451818E+03   -0.74199E-03   -0.74213E-03   768   0.240E-02 0.206E-05
CGA:  11    -0.663129833518E+03   -0.38170E-03   -0.38166E-03   768   0.723E-03-0.189E-05
CGA:  12    -0.663129984514E+03   -0.15100E-03   -0.15091E-03   768   0.335E-03 0.252E-05
CGA:  13    -0.663130035625E+03   -0.51111E-04   -0.51113E-04   768   0.173E-03 0.619E-07
  15 F= -.66968140E+03 E0= -.66966054E+03  d E =-.498146E-01  mag=     1.5792
       N       E                     dE             d eps       ncg     rms          ort
SDA:   1    -0.662911265720E+03    0.21872E+00    0.00000E+00   768   0.568E+00 0.000E+00
CGA:   2    -0.663019960336E+03   -0.10869E+00   -0.10865E+00   768   0.472E+00 0.137E-02
CGA:   3    -0.663088376450E+03   -0.68416E-01   -0.68367E-01   768   0.200E+00-0.721E-03
CGA:   4    -0.663121038008E+03   -0.32662E-01   -0.32667E-01   768   0.411E-01 0.158E-03
CGA:   5    -0.663128306549E+03   -0.72685E-02   -0.72686E-02   768   0.160E-01-0.236E-04
CGA:   6    -0.663130961611E+03   -0.26551E-02   -0.26557E-02   768   0.757E-02 0.412E-04
CGA:   7    -0.663132175058E+03   -0.12134E-02   -0.12135E-02   768   0.395E-02 0.432E-05
CGA:   8    -0.663132927979E+03   -0.75292E-03   -0.75281E-03   768   0.175E-02 0.341E-05
CGA:   9    -0.663133283211E+03   -0.35523E-03   -0.35546E-03   768   0.801E-03-0.789E-05
CGA:  10    -0.663133409234E+03   -0.12602E-03   -0.12602E-03   768   0.389E-03-0.663E-06
CGA:  11    -0.663133475347E+03   -0.66113E-04   -0.66111E-04   768   0.127E-03-0.275E-06
  16 F= -.66968578E+03 E0= -.66966460E+03  d E =-.541958E-01  mag=     1.6014
       N       E                     dE             d eps       ncg     rms          ort
SDA:   1    -0.660644137034E+03    0.24893E+01    0.00000E+00   768   0.680E+01 0.000E+00
CGA:   2    -0.661908013528E+03   -0.12639E+01   -0.12631E+01   768   0.416E+01 0.282E-01
CGA:   3    -0.662633935918E+03   -0.72592E+00   -0.72534E+00   768   0.247E+01-0.916E-01
CGA:   4    -0.662975170985E+03   -0.34124E+00   -0.34232E+00   768   0.623E+00 0.311E-02
CGA:   5    -0.663081989209E+03   -0.10682E+00   -0.10678E+00   768   0.262E+00-0.478E-02
CGA:   6    -0.663124893973E+03   -0.42905E-01   -0.42943E-01   768   0.124E+00 0.169E-02
CGA:   7    -0.663146018477E+03   -0.21125E-01   -0.21118E-01   768   0.623E-01-0.548E-03
CGA:   8    -0.663157025408E+03   -0.11007E-01   -0.11005E-01   768   0.258E-01 0.302E-03
CGA:   9    -0.663161710117E+03   -0.46847E-02   -0.46858E-02   768   0.110E-01-0.108E-03
CGA:  10    -0.663163440972E+03   -0.17309E-02   -0.17314E-02   768   0.446E-02 0.125E-04
CGA:  11    -0.663164190761E+03   -0.74979E-03   -0.74975E-03   768   0.154E-02-0.299E-05
CGA:  12    -0.663164465890E+03   -0.27513E-03   -0.27510E-03   768   0.708E-03 0.470E-05
CGA:  13    -0.663164578073E+03   -0.11218E-03   -0.11220E-03   768   0.307E-03 0.109E-05
CGA:  14    -0.663164638649E+03   -0.60576E-04   -0.60531E-04   768   0.168E-03 0.196E-05
  17 F= -.66971811E+03 E0= -.66969648E+03  d E =-.323294E-01  mag=     1.5743
       N       E                     dE             d eps       ncg     rms          ort
SDA:   1    -0.663147202253E+03    0.17376E-01    0.00000E+00   768   0.470E-01 0.000E+00
CGA:   2    -0.663156379766E+03   -0.91775E-02   -0.91779E-02   768   0.280E-01-0.781E-05
CGA:   3    -0.663161536780E+03   -0.51570E-02   -0.51565E-02   768   0.155E-01 0.480E-04
CGA:   4    -0.663163734406E+03   -0.21976E-02   -0.21975E-02   768   0.429E-02 0.114E-04
CGA:   5    -0.663164449253E+03   -0.71485E-03   -0.71489E-03   768   0.178E-02 0.227E-05
CGA:   6    -0.663164750135E+03   -0.30088E-03   -0.30086E-03   768   0.954E-03-0.178E-05
CGA:   7    -0.663164905839E+03   -0.15570E-03   -0.15572E-03   768   0.415E-03 0.996E-06
CGA:   8    -0.663164985504E+03   -0.79665E-04   -0.79634E-04   768   0.176E-03 0.184E-05
  18 F= -.66971836E+03 E0= -.66969681E+03  d E =-.325825E-01  mag=     1.5745
       N       E                     dE             d eps       ncg     rms          ort
SDA:   1    -0.661721198185E+03    0.14437E+01    0.00000E+00   768   0.411E+01 0.000E+00
CGA:   2    -0.662417623190E+03   -0.69643E+00   -0.69656E+00   768   0.210E+01 0.162E-02
CGA:   3    -0.662838227133E+03   -0.42060E+00   -0.42208E+00   768   0.151E+01-0.411E-01
CGA:   4    -0.663063779744E+03   -0.22555E+00   -0.22601E+00   768   0.446E+00 0.432E-02
CGA:   5    -0.663139174482E+03   -0.75395E-01   -0.75357E-01   768   0.184E+00-0.343E-02
CGA:   6    -0.663167752967E+03   -0.28578E-01   -0.28617E-01   768   0.859E-01 0.810E-03
CGA:   7    -0.663182228174E+03   -0.14475E-01   -0.14471E-01   768   0.410E-01-0.363E-03
CGA:   8    -0.663189725915E+03   -0.74977E-02   -0.74950E-02   768   0.164E-01 0.141E-03
CGA:   9    -0.663192642084E+03   -0.29162E-02   -0.29164E-02   768   0.699E-02-0.522E-04
CGA:  10    -0.663193672655E+03   -0.10306E-02   -0.10309E-02   768   0.249E-02 0.336E-05
CGA:  11    -0.663194101817E+03   -0.42916E-03   -0.42916E-03   768   0.855E-03-0.175E-05
CGA:  12    -0.663194257128E+03   -0.15531E-03   -0.15529E-03   768   0.434E-03 0.241E-05
CGA:  13    -0.663194328517E+03   -0.71389E-04   -0.71396E-04   768   0.212E-03 0.625E-06
  19 F= -.66974838E+03 E0= -.66972531E+03  d E =-.300181E-01  mag=     1.6318
       N       E                     dE             d eps       ncg     rms          ort
SDA:   1    -0.663014688074E+03    0.17957E+00    0.00000E+00   768   0.502E+00 0.000E+00
CGA:   2    -0.663101150996E+03   -0.86463E-01   -0.86464E-01   768   0.256E+00 0.259E-04
CGA:   3    -0.663153357824E+03   -0.52207E-01   -0.52246E-01   768   0.174E+00-0.996E-03
CGA:   4    -0.663180615971E+03   -0.27258E-01   -0.27265E-01   768   0.521E-01 0.528E-04
CGA:   5    -0.663189853353E+03   -0.92374E-02   -0.92378E-02   768   0.192E-01-0.108E-03
CGA:   6    -0.663193223387E+03   -0.33700E-02   -0.33699E-02   768   0.970E-02 0.376E-04
CGA:   7    -0.663194769475E+03   -0.15461E-02   -0.15456E-02   768   0.527E-02-0.131E-04
CGA:   8    -0.663195646472E+03   -0.87700E-03   -0.87707E-03   768   0.192E-02 0.220E-05
CGA:   9    -0.663196027320E+03   -0.38085E-03   -0.38101E-03   768   0.657E-03-0.610E-05
CGA:  10    -0.663196137282E+03   -0.10996E-03   -0.10996E-03   768   0.316E-03 0.175E-06
CGA:  11    -0.663196182412E+03   -0.45131E-04   -0.45128E-04   768   0.110E-03-0.534E-07
  20 F= -.66975044E+03 E0= -.66972673E+03  d E =-.320773E-01  mag=     1.6626
       N       E                     dE             d eps       ncg     rms          ort
SDA:   1    -0.662136340570E+03    0.10598E+01    0.00000E+00   768   0.286E+01 0.000E+00
CGA:   2    -0.662688292588E+03   -0.55195E+00   -0.55200E+00   768   0.164E+01-0.355E-02
CGA:   3    -0.662998137622E+03   -0.30985E+00   -0.30978E+00   768   0.917E+00 0.174E-02
CGA:   4    -0.663137960553E+03   -0.13982E+00   -0.13970E+00   768   0.268E+00-0.230E-02
CGA:   5    -0.663184344032E+03   -0.46383E-01   -0.46387E-01   768   0.104E+00 0.649E-03
CGA:   6    -0.663202339453E+03   -0.17995E-01   -0.17993E-01   768   0.599E-01-0.498E-03
CGA:   7    -0.663211322621E+03   -0.89832E-02   -0.89961E-02   768   0.286E-01 0.161E-03
CGA:   8    -0.663216573916E+03   -0.52513E-02   -0.52529E-02   768   0.109E-01-0.107E-03
CGA:   9    -0.663218769125E+03   -0.21952E-02   -0.21946E-02   768   0.423E-02 0.139E-04
CGA:  10    -0.663219423140E+03   -0.65402E-03   -0.65389E-03   768   0.213E-02-0.224E-05
CGA:  11    -0.663219746889E+03   -0.32375E-03   -0.32388E-03   768   0.662E-03 0.469E-05
CGA:  12    -0.663219894677E+03   -0.14779E-03   -0.14772E-03   768   0.338E-03 0.136E-05
CGA:  13    -0.663219955024E+03   -0.60346E-04   -0.60344E-04   768   0.266E-03 0.125E-05
  21 F= -.66977430E+03 E0= -.66974912E+03  d E =-.238659E-01  mag=     1.7712
       N       E                     dE             d eps       ncg     rms          ort
SDA:   1    -0.661768775376E+03    0.14511E+01    0.00000E+00   768   0.386E+01 0.000E+00
CGA:   2    -0.662513949355E+03   -0.74517E+00   -0.74519E+00   768   0.221E+01-0.417E-02
CGA:   3    -0.662932216716E+03   -0.41827E+00   -0.41825E+00   768   0.123E+01-0.116E-02
CGA:   4    -0.663120658003E+03   -0.18844E+00   -0.18831E+00   768   0.354E+00-0.275E-02
CGA:   5    -0.663183269690E+03   -0.62612E-01   -0.62612E-01   768   0.133E+00 0.578E-03
CGA:   6    -0.663207683672E+03   -0.24414E-01   -0.24422E-01   768   0.745E-01-0.776E-03
CGA:   7    -0.663218951728E+03   -0.11268E-01   -0.11293E-01   768   0.403E-01 0.297E-03
CGA:   8    -0.663225602768E+03   -0.66510E-02   -0.66477E-02   768   0.151E-01-0.131E-03
CGA:   9    -0.663228686800E+03   -0.30840E-02   -0.30829E-02   768   0.529E-02 0.257E-04
CGA:  10    -0.663229606266E+03   -0.91947E-03   -0.91944E-03   768   0.290E-02-0.400E-05
CGA:  11    -0.663230007922E+03   -0.40166E-03   -0.40199E-03   768   0.101E-02 0.529E-05
CGA:  12    -0.663230233473E+03   -0.22555E-03   -0.22548E-03   768   0.485E-03 0.140E-05
CGA:  13    -0.663230338375E+03   -0.10490E-03   -0.10484E-03   768   0.468E-03 0.164E-05
CGA:  14    -0.663230421311E+03   -0.82936E-04   -0.82936E-04   768   0.274E-03-0.473E-06
  22 F= -.66978475E+03 E0= -.66975906E+03  d E =-.343106E-01  mag=     1.9462
       N       E                     dE             d eps       ncg     rms          ort
SDA:   1    -0.662759560279E+03    0.47078E+00    0.00000E+00   768   0.127E+01 0.000E+00
CGA:   2    -0.663013805823E+03   -0.25425E+00   -0.25426E+00   768   0.742E+00-0.823E-03
CGA:   3    -0.663151571446E+03   -0.13777E+00   -0.13777E+00   768   0.418E+00 0.872E-03
CGA:   4    -0.663215755558E+03   -0.64184E-01   -0.64137E-01   768   0.111E+00-0.428E-03
CGA:   5    -0.663234273884E+03   -0.18518E-01   -0.18527E-01   768   0.445E-01 0.182E-03
CGA:   6    -0.663241823801E+03   -0.75499E-02   -0.75468E-02   768   0.249E-01-0.962E-04
CGA:   7    -0.663245799180E+03   -0.39754E-02   -0.39806E-02   768   0.126E-01 0.757E-04
CGA:   8    -0.663248146904E+03   -0.23477E-02   -0.23479E-02   768   0.507E-02-0.317E-04
CGA:   9    -0.663249194705E+03   -0.10478E-02   -0.10476E-02   768   0.213E-02 0.568E-05
CGA:  10    -0.663249528779E+03   -0.33407E-03   -0.33403E-03   768   0.107E-02-0.737E-06
CGA:  11    -0.663249702951E+03   -0.17417E-03   -0.17426E-03   768   0.372E-03 0.320E-05
CGA:  12    -0.663249789249E+03   -0.86299E-04   -0.86296E-04   768   0.223E-03 0.440E-07
  23 F= -.66980422E+03 E0= -.66977984E+03  d E =-.194764E-01  mag=     2.0805
       N       E                     dE             d eps       ncg     rms          ort
SDA:   1    -0.660486870143E+03    0.27628E+01    0.00000E+00   768   0.719E+01 0.000E+00
CGA:   2    -0.661930269544E+03   -0.14434E+01   -0.14433E+01   768   0.417E+01-0.527E-02
CGA:   3    -0.662713990246E+03   -0.78372E+00   -0.78376E+00   768   0.235E+01-0.125E-01
CGA:   4    -0.663073241222E+03   -0.35925E+00   -0.35923E+00   768   0.599E+00-0.248E-02
CGA:   5    -0.663179103296E+03   -0.10586E+00   -0.10586E+00   768   0.219E+00-0.576E-03
CGA:   6    -0.663223782436E+03   -0.44679E-01   -0.44704E-01   768   0.102E+00-0.816E-03
CGA:   7    -0.663246430170E+03   -0.22648E-01   -0.22612E-01   768   0.455E-01 0.605E-03
CGA:   8    -0.663255366619E+03   -0.89364E-02   -0.89395E-02   768   0.259E-01-0.196E-03
CGA:   9    -0.663258997517E+03   -0.36309E-02   -0.36404E-02   768   0.906E-02 0.387E-04
CGA:  10    -0.663260740456E+03   -0.17429E-02   -0.17431E-02   768   0.270E-02-0.772E-05
CGA:  11    -0.663261348019E+03   -0.60756E-03   -0.60714E-03   768   0.103E-02 0.822E-05
CGA:  12    -0.663261544702E+03   -0.19668E-03   -0.19668E-03   768   0.744E-03-0.750E-06
CGA:  13    -0.663261668679E+03   -0.12398E-03   -0.12403E-03   768   0.312E-03 0.151E-05
CGA:  14    -0.663261767929E+03   -0.99250E-04   -0.99405E-04   768   0.211E-03-0.120E-05
  24 F= -.66981621E+03 E0= -.66979621E+03  d E =-.314599E-01  mag=     2.2654
       N       E                     dE             d eps       ncg     rms          ort
SDA:   1    -0.663009131181E+03    0.25254E+00    0.00000E+00   768   0.658E+00 0.000E+00
CGA:   2    -0.663142623174E+03   -0.13349E+00   -0.13349E+00   768   0.384E+00 0.269E-03
CGA:   3    -0.663213830455E+03   -0.71207E-01   -0.71202E-01   768   0.216E+00-0.318E-03
CGA:   4    -0.663247069872E+03   -0.33239E-01   -0.33249E-01   768   0.541E-01 0.182E-04
CGA:   5    -0.663256555860E+03   -0.94860E-02   -0.94844E-02   768   0.201E-01-0.436E-04
CGA:   6    -0.663260568714E+03   -0.40129E-02   -0.40125E-02   768   0.976E-02 0.222E-04
CGA:   7    -0.663262537916E+03   -0.19692E-02   -0.19696E-02   768   0.520E-02-0.219E-04
CGA:   8    -0.663263357151E+03   -0.81924E-03   -0.81972E-03   768   0.247E-02 0.642E-05
CGA:   9    -0.663263787593E+03   -0.43044E-03   -0.43037E-03   768   0.734E-03-0.177E-05
CGA:  10    -0.663263940288E+03   -0.15269E-03   -0.15271E-03   768   0.253E-03-0.793E-06
CGA:  11    -0.663263983737E+03   -0.43449E-04   -0.43423E-04   768   0.120E-03-0.127E-05
  25 F= -.66981846E+03 E0= -.66979765E+03  d E =-.337105E-01  mag=     2.2468
       N       E                     dE             d eps       ncg     rms          ort
SDA:   1    -0.662474253397E+03    0.78969E+00    0.00000E+00   768   0.214E+01 0.000E+00
CGA:   2    -0.662914247447E+03   -0.43999E+00   -0.43999E+00   768   0.120E+01 0.345E-03
CGA:   3    -0.663131574425E+03   -0.21733E+00   -0.21734E+00   768   0.659E+00 0.107E-02
CGA:   4    -0.663233868580E+03   -0.10229E+00   -0.10229E+00   768   0.159E+00 0.105E-04
CGA:   5    -0.663261838124E+03   -0.27970E-01   -0.27972E-01   768   0.615E-01 0.970E-04
CGA:   6    -0.663274389637E+03   -0.12552E-01   -0.12555E-01   768   0.285E-01-0.104E-03
CGA:   7    -0.663280513566E+03   -0.61239E-02   -0.61192E-02   768   0.138E-01 0.103E-03
CGA:   8    -0.663282946578E+03   -0.24330E-02   -0.24323E-02   768   0.742E-02-0.264E-04
CGA:   9    -0.663284089226E+03   -0.11426E-02   -0.11435E-02   768   0.236E-02 0.922E-05
CGA:  10    -0.663284579895E+03   -0.49067E-03   -0.49066E-03   768   0.712E-03 0.138E-05
CGA:  11    -0.663284726785E+03   -0.14689E-03   -0.14684E-03   768   0.304E-03 0.256E-05
CGA:  12    -0.663284773059E+03   -0.46273E-04   -0.46264E-04   768   0.145E-03-0.266E-06
  26 F= -.66983905E+03 E0= -.66981918E+03  d E =-.205903E-01  mag=     2.2580
       N       E                     dE             d eps       ncg     rms          ort
SDA:   1    -0.662472411330E+03    0.81232E+00    0.00000E+00   768   0.216E+01 0.000E+00
CGA:   2    -0.662918140182E+03   -0.44573E+00   -0.44572E+00   768   0.121E+01 0.420E-03
CGA:   3    -0.663137058040E+03   -0.21892E+00   -0.21893E+00   768   0.667E+00 0.104E-02
CGA:   4    -0.663240360083E+03   -0.10330E+00   -0.10330E+00   768   0.160E+00 0.344E-04
CGA:   5    -0.663268641411E+03   -0.28281E-01   -0.28283E-01   768   0.611E-01 0.806E-04
CGA:   6    -0.663281218247E+03   -0.12577E-01   -0.12580E-01   768   0.285E-01-0.876E-04
CGA:   7    -0.663287477758E+03   -0.62595E-02   -0.62553E-02   768   0.130E-01 0.785E-04
CGA:   8    -0.663289978045E+03   -0.25003E-02   -0.25005E-02   768   0.692E-02-0.267E-04
CGA:   9    -0.663291012743E+03   -0.10347E-02   -0.10356E-02   768   0.241E-02 0.797E-05
CGA:  10    -0.663291488075E+03   -0.47533E-03   -0.47533E-03   768   0.712E-03 0.123E-05
CGA:  11    -0.663291641704E+03   -0.15363E-03   -0.15356E-03   768   0.278E-03 0.240E-05
CGA:  12    -0.663291689455E+03   -0.47751E-04   -0.47747E-04   768   0.159E-03-0.260E-06
  27 F= -.66984564E+03 E0= -.66982639E+03  d E =-.271860E-01  mag=     2.2608
       N       E                     dE             d eps       ncg     rms          ort
SDA:   1    -0.663056101859E+03    0.23554E+00    0.00000E+00   768   0.692E+00 0.000E+00
CGA:   2    -0.663183535948E+03   -0.12743E+00   -0.12744E+00   768   0.352E+00 0.472E-03
CGA:   3    -0.663248703735E+03   -0.65168E-01   -0.65165E-01   768   0.225E+00-0.988E-03
CGA:   4    -0.663286209402E+03   -0.37506E-01   -0.37516E-01   768   0.607E-01 0.158E-03
CGA:   5    -0.663296851894E+03   -0.10642E-01   -0.10641E-01   768   0.227E-01-0.612E-04
CGA:   6    -0.663301338548E+03   -0.44867E-02   -0.44860E-02   768   0.107E-01 0.293E-04
CGA:   7    -0.663303570171E+03   -0.22316E-02   -0.22323E-02   768   0.552E-02-0.181E-04
CGA:   8    -0.663304489058E+03   -0.91889E-03   -0.91918E-03   768   0.253E-02 0.644E-05
CGA:   9    -0.663304920146E+03   -0.43109E-03   -0.43105E-03   768   0.772E-03-0.682E-06
CGA:  10    -0.663305078276E+03   -0.15813E-03   -0.15809E-03   768   0.256E-03 0.193E-05
CGA:  11    -0.663305126905E+03   -0.48628E-04   -0.48628E-04   768   0.129E-03 0.117E-06
  28 F= -.66985904E+03 E0= -.66983983E+03  d E =-.133977E-01  mag=     2.2357
       N       E                     dE             d eps       ncg     rms          ort
SDA:   1    -0.662099778014E+03    0.12053E+01    0.00000E+00   768   0.338E+01 0.000E+00
CGA:   2    -0.662720558481E+03   -0.62078E+00   -0.62081E+00   768   0.172E+01 0.625E-02
CGA:   3    -0.663038982345E+03   -0.31842E+00   -0.31840E+00   768   0.112E+01-0.150E-01
CGA:   4    -0.663223561199E+03   -0.18458E+00   -0.18472E+00   768   0.299E+00 0.201E-02
CGA:   5    -0.663276125174E+03   -0.52564E-01   -0.52549E-01   768   0.112E+00-0.933E-03
CGA:   6    -0.663298385346E+03   -0.22260E-01   -0.22253E-01   768   0.524E-01 0.270E-03
CGA:   7    -0.663309270533E+03   -0.10885E-01   -0.10893E-01   768   0.272E-01-0.226E-03
CGA:   8    -0.663313766655E+03   -0.44961E-02   -0.44989E-02   768   0.122E-01 0.581E-04
CGA:   9    -0.663315860139E+03   -0.20935E-02   -0.20930E-02   768   0.376E-02-0.157E-04
CGA:  10    -0.663316627453E+03   -0.76731E-03   -0.76716E-03   768   0.125E-02 0.618E-05
CGA:  11    -0.663316859805E+03   -0.23235E-03   -0.23235E-03   768   0.616E-03-0.454E-06
CGA:  12    -0.663316961514E+03   -0.10171E-03   -0.10172E-03   768   0.259E-03 0.103E-05
CGA:  13    -0.663317025139E+03   -0.63625E-04   -0.63643E-04   768   0.144E-03-0.361E-06
  29 F= -.66987066E+03 E0= -.66985167E+03  d E =-.250143E-01  mag=     2.1775
       N       E                     dE             d eps       ncg     rms          ort
SDA:   1    -0.662844731238E+03    0.47223E+00    0.00000E+00   768   0.134E+01 0.000E+00
CGA:   2    -0.663091481491E+03   -0.24675E+00   -0.24678E+00   768   0.715E+00 0.162E-02
CGA:   3    -0.663219359888E+03   -0.12788E+00   -0.12779E+00   768   0.442E+00-0.447E-02
CGA:   4    -0.663293533860E+03   -0.74174E-01   -0.74209E-01   768   0.122E+00 0.437E-03
CGA:   5    -0.663315288838E+03   -0.21755E-01   -0.21750E-01   768   0.460E-01-0.262E-03
CGA:   6    -0.663324258347E+03   -0.89695E-02   -0.89685E-02   768   0.211E-01 0.696E-04
CGA:   7    -0.663328622697E+03   -0.43643E-02   -0.43659E-02   768   0.112E-01-0.494E-04
CGA:   8    -0.663330453036E+03   -0.18303E-02   -0.18312E-02   768   0.505E-02 0.148E-04
CGA:   9    -0.663331314520E+03   -0.86148E-03   -0.86128E-03   768   0.155E-02-0.511E-05
CGA:  10    -0.663331628714E+03   -0.31419E-03   -0.31416E-03   768   0.518E-03 0.187E-05
CGA:  11    -0.663331723565E+03   -0.94851E-04   -0.94850E-04   768   0.268E-03-0.126E-06
  30 F= -.66988504E+03 E0= -.66986596E+03  d E =-.143801E-01  mag=     2.1433
       N       E                     dE             d eps       ncg     rms          ort
SDA:   1    -0.662937682754E+03    0.39395E+00    0.00000E+00   768   0.109E+01 0.000E+00
CGA:   2    -0.663139884947E+03   -0.20220E+00   -0.20221E+00   768   0.586E+00 0.133E-02
CGA:   3    -0.663243956626E+03   -0.10407E+00   -0.10402E+00   768   0.363E+00-0.349E-02
CGA:   4    -0.663304785200E+03   -0.60829E-01   -0.60852E-01   768   0.101E+00 0.371E-03
CGA:   5    -0.663322614315E+03   -0.17829E-01   -0.17826E-01   768   0.374E-01-0.209E-03
CGA:   6    -0.663329957601E+03   -0.73433E-02   -0.73419E-02   768   0.180E-01 0.648E-04
CGA:   7    -0.663333481683E+03   -0.35241E-02   -0.35248E-02   768   0.982E-02-0.360E-04
CGA:   8    -0.663335058039E+03   -0.15764E-02   -0.15771E-02   768   0.415E-02 0.127E-04
CGA:   9    -0.663335803872E+03   -0.74583E-03   -0.74579E-03   768   0.128E-02-0.452E-05
CGA:  10    -0.663336061913E+03   -0.25804E-03   -0.25801E-03   768   0.476E-03 0.170E-05
CGA:  11    -0.663336141588E+03   -0.79675E-04   -0.79669E-04   768   0.237E-03-0.141E-06
  31 F= -.66988912E+03 E0= -.66986987E+03  d E =-.184624E-01  mag=     2.1102
       N       E                     dE             d eps       ncg     rms          ort
SDA:   1    -0.663141911385E+03    0.19415E+00    0.00000E+00   768   0.561E+00 0.000E+00
CGA:   2    -0.663246163665E+03   -0.10425E+00   -0.10425E+00   768   0.313E+00 0.610E-03
CGA:   3    -0.663300624848E+03   -0.54461E-01   -0.54432E-01   768   0.179E+00-0.158E-02
CGA:   4    -0.663329587526E+03   -0.28963E-01   -0.28971E-01   768   0.503E-01 0.735E-04
CGA:   5    -0.663338693594E+03   -0.91061E-02   -0.91058E-02   768   0.191E-01-0.928E-04
CGA:   6    -0.663342345708E+03   -0.36521E-02   -0.36517E-02   768   0.888E-02 0.289E-04
CGA:   7    -0.663344008560E+03   -0.16629E-02   -0.16629E-02   768   0.503E-02-0.979E-05
CGA:   8    -0.663344834512E+03   -0.82595E-03   -0.82613E-03   768   0.214E-02 0.511E-05
CGA:   9    -0.663345234281E+03   -0.39977E-03   -0.39980E-03   768   0.703E-03-0.429E-05
CGA:  10    -0.663345373875E+03   -0.13959E-03   -0.13959E-03   768   0.300E-03 0.293E-06
CGA:  11    -0.663345421081E+03   -0.47206E-04   -0.47191E-04   768   0.139E-03-0.379E-06
  32 F= -.66989832E+03 E0= -.66987882E+03  d E =-.919807E-02  mag=     2.0760
       N       E                     dE             d eps       ncg     rms          ort
SDA:   1    -0.663001980592E+03    0.34339E+00    0.00000E+00   768   0.959E+00 0.000E+00
CGA:   2    -0.663179768472E+03   -0.17779E+00   -0.17778E+00   768   0.539E+00 0.148E-02
CGA:   3    -0.663272718901E+03   -0.92950E-01   -0.92874E-01   768   0.309E+00-0.385E-02
CGA:   4    -0.663322634258E+03   -0.49915E-01   -0.49936E-01   768   0.874E-01 0.231E-03
CGA:   5    -0.663338267003E+03   -0.15633E-01   -0.15632E-01   768   0.341E-01-0.246E-03
CGA:   6    -0.663344490155E+03   -0.62232E-02   -0.62229E-02   768   0.163E-01 0.701E-04
CGA:   7    -0.663347363923E+03   -0.28738E-02   -0.28734E-02   768   0.901E-02-0.275E-04
CGA:   8    -0.663348899187E+03   -0.15353E-02   -0.15355E-02   768   0.366E-02 0.122E-04
CGA:   9    -0.663349607061E+03   -0.70787E-03   -0.70805E-03   768   0.130E-02-0.890E-05
CGA:  10    -0.663349841239E+03   -0.23418E-03   -0.23418E-03   768   0.602E-03 0.574E-06
CGA:  11    -0.663349933523E+03   -0.92284E-04   -0.92244E-04   768   0.228E-03-0.817E-06
  33 F= -.66990272E+03 E0= -.66988280E+03  d E =-.135962E-01  mag=     2.0250
       N       E                     dE             d eps       ncg     rms          ort
SDA:   1    -0.663241205908E+03    0.10864E+00    0.00000E+00   768   0.307E+00 0.000E+00
CGA:   2    -0.663305631408E+03   -0.64425E-01   -0.64413E-01   768   0.179E+00 0.259E-03
CGA:   3    -0.663335289365E+03   -0.29658E-01   -0.29639E-01   768   0.892E-01-0.525E-03
CGA:   4    -0.663348717119E+03   -0.13428E-01   -0.13433E-01   768   0.241E-01 0.151E-04
CGA:   5    -0.663352971635E+03   -0.42545E-02   -0.42543E-02   768   0.962E-02-0.264E-04
CGA:   6    -0.663354670110E+03   -0.16985E-02   -0.16986E-02   768   0.470E-02 0.127E-04
CGA:   7    -0.663355453743E+03   -0.78363E-03   -0.78350E-03   768   0.251E-02-0.417E-05
CGA:   8    -0.663355916199E+03   -0.46246E-03   -0.46244E-03   768   0.107E-02 0.111E-05
CGA:   9    -0.663356125615E+03   -0.20942E-03   -0.20947E-03   768   0.448E-03-0.257E-05
CGA:  10    -0.663356202553E+03   -0.76938E-04   -0.76947E-04   768   0.222E-03 0.106E-05
  34 F= -.66990895E+03 E0= -.66988850E+03  d E =-.623801E-02  mag=     1.9864
       N       E                     dE             d eps       ncg     rms          ort
SDA:   1    -0.663154023398E+03    0.20210E+00    0.00000E+00   768   0.550E+00 0.000E+00
CGA:   2    -0.663268219951E+03   -0.11420E+00   -0.11416E+00   768   0.324E+00 0.786E-03
CGA:   3    -0.663321055265E+03   -0.52835E-01   -0.52773E-01   768   0.163E+00-0.157E-02
CGA:   4    -0.663345508047E+03   -0.24453E-01   -0.24464E-01   768   0.445E-01 0.617E-04
CGA:   5    -0.663353049402E+03   -0.75414E-02   -0.75397E-02   768   0.192E-01-0.873E-04
CGA:   6    -0.663356210059E+03   -0.31607E-02   -0.31615E-02   768   0.890E-02 0.334E-04
CGA:   7    -0.663357716275E+03   -0.15062E-02   -0.15060E-02   768   0.450E-02-0.118E-04
CGA:   8    -0.663358571178E+03   -0.85490E-03   -0.85482E-03   768   0.202E-02 0.382E-05
CGA:   9    -0.663358937943E+03   -0.36677E-03   -0.36680E-03   768   0.929E-03-0.503E-05
CGA:  10    -0.663359086378E+03   -0.14843E-03   -0.14846E-03   768   0.393E-03 0.142E-05
CGA:  11    -0.663359155217E+03   -0.68839E-04   -0.68839E-04   768   0.147E-03 0.233E-06
  35 F= -.66991187E+03 E0= -.66989079E+03  d E =-.914992E-02  mag=     1.9331
       N       E                     dE             d eps       ncg     rms          ort
SDA:   1    -0.663255397133E+03    0.10369E+00    0.00000E+00   768   0.286E+00 0.000E+00
CGA:   2    -0.663319036358E+03   -0.63639E-01   -0.63611E-01   768   0.174E+00 0.406E-03
CGA:   3    -0.663345411678E+03   -0.26375E-01   -0.26337E-01   768   0.847E-01-0.506E-03
CGA:   4    -0.663357852930E+03   -0.12441E-01   -0.12444E-01   768   0.228E-01 0.314E-06
CGA:   5    -0.663361631121E+03   -0.37782E-02   -0.37776E-02   768   0.932E-02-0.198E-04
CGA:   6    -0.663363155837E+03   -0.15247E-02   -0.15250E-02   768   0.396E-02 0.167E-04
CGA:   7    -0.663363829312E+03   -0.67347E-03   -0.67345E-03   768   0.204E-02-0.810E-06
CGA:   8    -0.663364213536E+03   -0.38422E-03   -0.38419E-03   768   0.102E-02 0.162E-05
CGA:   9    -0.663364398529E+03   -0.18499E-03   -0.18501E-03   768   0.471E-03-0.246E-05
CGA:  10    -0.663364479021E+03   -0.80492E-04   -0.80496E-04   768   0.220E-03 0.779E-06
  36 F= -.66991737E+03 E0= -.66989623E+03  d E =-.550686E-02  mag=     1.9083
       N       E                     dE             d eps       ncg     rms          ort
SDA:   1    -0.663177923864E+03    0.18647E+00    0.00000E+00   768   0.498E+00 0.000E+00
CGA:   2    -0.663287018919E+03   -0.10910E+00   -0.10902E+00   768   0.313E+00 0.114E-02
CGA:   3    -0.663332910743E+03   -0.45892E-01   -0.45783E-01   768   0.149E+00-0.119E-02
CGA:   4    -0.663355275252E+03   -0.22365E-01   -0.22370E-01   768   0.396E-01 0.273E-04
CGA:   5    -0.663361844715E+03   -0.65695E-02   -0.65682E-02   768   0.166E-01-0.542E-04
CGA:   6    -0.663364573561E+03   -0.27288E-02   -0.27294E-02   768   0.694E-02 0.336E-04
CGA:   7    -0.663365740197E+03   -0.11666E-02   -0.11666E-02   768   0.364E-02-0.362E-05
CGA:   8    -0.663366412403E+03   -0.67221E-03   -0.67214E-03   768   0.176E-02 0.393E-05
CGA:   9    -0.663366737573E+03   -0.32517E-03   -0.32523E-03   768   0.819E-03-0.409E-05
CGA:  10    -0.663366875238E+03   -0.13767E-03   -0.13767E-03   768   0.386E-03 0.107E-05
CGA:  11    -0.663366940771E+03   -0.65533E-04   -0.65531E-04   768   0.148E-03-0.137E-06
  37 F= -.66992007E+03 E0= -.66989895E+03  d E =-.820357E-02  mag=     1.8789
       N       E                     dE             d eps       ncg     rms          ort
SDA:   1    -0.663320797392E+03    0.46078E-01    0.00000E+00   768   0.125E+00 0.000E+00
CGA:   2    -0.663355319528E+03   -0.34522E-01   -0.34506E-01   768   0.701E-01 0.138E-03
CGA:   3    -0.663364448626E+03   -0.91291E-02   -0.91020E-02   768   0.328E-01-0.765E-04
CGA:   4    -0.663369160800E+03   -0.47122E-02   -0.47116E-02   768   0.712E-02-0.171E-04
CGA:   5    -0.663370445297E+03   -0.12845E-02   -0.12845E-02   768   0.260E-02 0.100E-04
CGA:   6    -0.663370863765E+03   -0.41847E-03   -0.41855E-03   768   0.983E-03 0.425E-05
CGA:   7    -0.663371027541E+03   -0.16378E-03   -0.16376E-03   768   0.586E-03-0.132E-05
CGA:   8    -0.663371126777E+03   -0.99236E-04   -0.99233E-04   768   0.249E-03-0.665E-06
  38 F= -.66992440E+03 E0= -.66990329E+03  d E =-.433191E-02  mag=     1.8638
       N       E                     dE             d eps       ncg     rms          ort
SDA:   1    -0.662991646818E+03    0.37938E+00    0.00000E+00   768   0.960E+00 0.000E+00
CGA:   2    -0.663250678911E+03   -0.25903E+00   -0.25857E+00   768   0.577E+00 0.407E-02
CGA:   3    -0.663322119493E+03   -0.71441E-01   -0.70698E-01   768   0.248E+00-0.358E-03
CGA:   4    -0.663360364178E+03   -0.38245E-01   -0.38243E-01   768   0.525E-01-0.479E-04
CGA:   5    -0.663370404115E+03   -0.10040E-01   -0.10040E-01   768   0.202E-01 0.129E-05
CGA:   6    -0.663373484599E+03   -0.30805E-02   -0.30822E-02   768   0.758E-02 0.330E-04
CGA:   7    -0.663374748706E+03   -0.12641E-02   -0.12640E-02   768   0.448E-02-0.544E-05
CGA:   8    -0.663375490529E+03   -0.74182E-03   -0.74185E-03   768   0.182E-02 0.928E-06
CGA:   9    -0.663375893107E+03   -0.40258E-03   -0.40265E-03   768   0.974E-03-0.113E-05
CGA:  10    -0.663376062506E+03   -0.16940E-03   -0.16941E-03   768   0.574E-03 0.343E-05
CGA:  11    -0.663376151668E+03   -0.89162E-04   -0.89179E-04   768   0.196E-03 0.885E-06
  39 F= -.66992981E+03 E0= -.66990893E+03  d E =-.974045E-02  mag=     1.8332
       N       E                     dE             d eps       ncg     rms          ort
SDA:   1    -0.663274004261E+03    0.10206E+00    0.00000E+00   768   0.263E+00 0.000E+00
CGA:   2    -0.663351411082E+03   -0.77407E-01   -0.77362E-01   768   0.129E+00 0.339E-03
CGA:   3    -0.663368569199E+03   -0.17158E-01   -0.17082E-01   768   0.645E-01-0.179E-03
CGA:   4    -0.663377265096E+03   -0.86959E-02   -0.86949E-02   768   0.139E-01-0.192E-04
CGA:   5    -0.663379775296E+03   -0.25102E-02   -0.25102E-02   768   0.436E-02 0.122E-04
CGA:   6    -0.663380483460E+03   -0.70816E-03   -0.70828E-03   768   0.175E-02 0.398E-05
CGA:   7    -0.663380769707E+03   -0.28625E-03   -0.28620E-03   768   0.988E-03-0.271E-05
CGA:   8    -0.663380926123E+03   -0.15642E-03   -0.15640E-03   768   0.419E-03-0.878E-06
CGA:   9    -0.663381020040E+03   -0.93917E-04   -0.93929E-04   768   0.228E-03-0.201E-06
  40 F= -.66993491E+03 E0= -.66991413E+03  d E =-.509665E-02  mag=     1.8089
       N       E                     dE             d eps       ncg     rms          ort
SDA:   1    -0.663054137156E+03    0.32679E+00    0.00000E+00   768   0.810E+00 0.000E+00
CGA:   2    -0.663292040998E+03   -0.23790E+00   -0.23764E+00   768   0.401E+00 0.197E-02
CGA:   3    -0.663344609214E+03   -0.52568E-01   -0.52113E-01   768   0.199E+00-0.621E-03
CGA:   4    -0.663372071910E+03   -0.27463E-01   -0.27462E-01   768   0.416E-01-0.317E-04
CGA:   5    -0.663379695910E+03   -0.76240E-02   -0.76240E-02   768   0.147E-01 0.928E-05
CGA:   6    -0.663381922959E+03   -0.22270E-02   -0.22281E-02   768   0.542E-02 0.165E-04
CGA:   7    -0.663382841063E+03   -0.91810E-03   -0.91801E-03   768   0.321E-02-0.659E-05
CGA:   8    -0.663383328993E+03   -0.48793E-03   -0.48794E-03   768   0.128E-02-0.694E-06
CGA:   9    -0.663383622254E+03   -0.29326E-03   -0.29330E-03   768   0.712E-03-0.530E-06
CGA:  10    -0.663383746963E+03   -0.12471E-03   -0.12472E-03   768   0.439E-03 0.274E-05
CGA:  11    -0.663383814758E+03   -0.67795E-04   -0.67810E-04   768   0.166E-03 0.701E-06
  41 F= -.66993810E+03 E0= -.66991755E+03  d E =-.828970E-02  mag=     1.7682
       N       E                     dE             d eps       ncg     rms          ort
SDA:   1    -0.663341564819E+03    0.42182E-01    0.00000E+00   768   0.112E+00 0.000E+00
CGA:   2    -0.663372943597E+03   -0.31379E-01   -0.31373E-01   768   0.601E-01 0.454E-04
CGA:   3    -0.663380863759E+03   -0.79202E-02   -0.79064E-02   768   0.279E-01-0.370E-04
CGA:   4    -0.663384702834E+03   -0.38391E-02   -0.38398E-02   768   0.736E-02-0.800E-05
CGA:   5    -0.663385900232E+03   -0.11974E-02   -0.11974E-02   768   0.240E-02 0.441E-05
CGA:   6    -0.663386280353E+03   -0.38012E-03   -0.38023E-03   768   0.945E-03 0.422E-05
CGA:   7    -0.663386436397E+03   -0.15604E-03   -0.15605E-03   768   0.524E-03 0.460E-06
CGA:   8    -0.663386522671E+03   -0.86274E-04   -0.86281E-04   768   0.242E-03 0.428E-06
  42 F= -.66994100E+03 E0= -.66992062E+03  d E =-.290228E-02  mag=     1.7567
       N       E                     dE             d eps       ncg     rms          ort
SDA:   1    -0.663158711686E+03    0.22772E+00    0.00000E+00   768   0.578E+00 0.000E+00
CGA:   2    -0.663316649810E+03   -0.15794E+00   -0.15785E+00   768   0.338E+00 0.762E-03
CGA:   3    -0.663357827393E+03   -0.41178E-01   -0.40951E-01   768   0.145E+00-0.558E-04
CGA:   4    -0.663379206853E+03   -0.21379E-01   -0.21388E-01   768   0.358E-01 0.448E-04
CGA:   5    -0.663385472214E+03   -0.62654E-02   -0.62652E-02   768   0.127E-01-0.968E-05
CGA:   6    -0.663387385688E+03   -0.19135E-02   -0.19144E-02   768   0.493E-02 0.183E-04
CGA:   7    -0.663388195333E+03   -0.80965E-03   -0.80964E-03   768   0.271E-02 0.847E-06
CGA:   8    -0.663388640841E+03   -0.44551E-03   -0.44556E-03   768   0.118E-02 0.272E-05
CGA:   9    -0.663388897990E+03   -0.25715E-03   -0.25724E-03   768   0.665E-03-0.186E-05
CGA:  10    -0.663389009136E+03   -0.11115E-03   -0.11116E-03   768   0.385E-03 0.142E-05
CGA:  11    -0.663389072876E+03   -0.63740E-04   -0.63740E-04   768   0.142E-03 0.801E-07
  43 F= -.66994399E+03 E0= -.66992410E+03  d E =-.589310E-02  mag=     1.7372
       N       E                     dE             d eps       ncg     rms          ort
SDA:   1    -0.663359498413E+03    0.29511E-01    0.00000E+00   768   0.898E-01 0.000E+00
CGA:   2    -0.663379021287E+03   -0.19523E-01   -0.19523E-01   768   0.489E-01 0.805E-06
CGA:   3    -0.663386876440E+03   -0.78552E-02   -0.78551E-02   768   0.211E-01-0.713E-05
CGA:   4    -0.663390199014E+03   -0.33226E-02   -0.33224E-02   768   0.668E-02-0.262E-05
CGA:   5    -0.663391367607E+03   -0.11686E-02   -0.11686E-02   768   0.232E-02 0.102E-05
CGA:   6    -0.663391780642E+03   -0.41304E-03   -0.41304E-03   768   0.119E-02-0.206E-05
CGA:   7    -0.663391961722E+03   -0.18108E-03   -0.18112E-03   768   0.702E-03 0.554E-06
CGA:   8    -0.663392079767E+03   -0.11804E-03   -0.11803E-03   768   0.285E-03-0.817E-06
CGA:   9    -0.663392142097E+03   -0.62330E-04   -0.62318E-04   768   0.118E-03 0.251E-06
  44 F= -.66994711E+03 E0= -.66992719E+03  d E =-.311674E-02  mag=     1.7181
       N       E                     dE             d eps       ncg     rms          ort
SDA:   1    -0.663103199392E+03    0.28888E+00    0.00000E+00   768   0.807E+00 0.000E+00
CGA:   2    -0.663278239519E+03   -0.17504E+00   -0.17500E+00   768   0.444E+00 0.573E-03
CGA:   3    -0.663348833781E+03   -0.70594E-01   -0.70560E-01   768   0.195E+00-0.767E-03
CGA:   4    -0.663379076386E+03   -0.30243E-01   -0.30253E-01   768   0.606E-01 0.889E-04
CGA:   5    -0.663389603501E+03   -0.10527E-01   -0.10526E-01   768   0.241E-01-0.112E-03
CGA:   6    -0.663393201840E+03   -0.35983E-02   -0.36012E-02   768   0.123E-01 0.292E-04
CGA:   7    -0.663395062871E+03   -0.18610E-02   -0.18600E-02   768   0.582E-02-0.164E-04
CGA:   8    -0.663396203964E+03   -0.11411E-02   -0.11408E-02   768   0.251E-02 0.957E-05
CGA:   9    -0.663396712971E+03   -0.50901E-03   -0.50922E-03   768   0.136E-02-0.594E-05
CGA:  10    -0.663396897471E+03   -0.18450E-03   -0.18458E-03   768   0.577E-03 0.118E-05
CGA:  11    -0.663396999164E+03   -0.10169E-03   -0.10169E-03   768   0.190E-03-0.602E-06
CGA:  12    -0.663397036303E+03   -0.37139E-04   -0.37115E-04   768   0.114E-03 0.118E-05
  45 F= -.66995214E+03 E0= -.66993224E+03  d E =-.814461E-02  mag=     1.6707
       N       E                     dE             d eps       ncg     rms          ort
SDA:   1    -0.663376887968E+03    0.20111E-01    0.00000E+00   768   0.561E-01 0.000E+00
CGA:   2    -0.663389030913E+03   -0.12143E-01   -0.12142E-01   768   0.311E-01 0.859E-05
CGA:   3    -0.663393899233E+03   -0.48683E-02   -0.48675E-02   768   0.137E-01-0.195E-04
CGA:   4    -0.663396021396E+03   -0.21222E-02   -0.21223E-02   768   0.439E-02 0.798E-06
CGA:   5    -0.663396763517E+03   -0.74212E-03   -0.74210E-03   768   0.169E-02-0.197E-05
CGA:   6    -0.663397009685E+03   -0.24617E-03   -0.24620E-03   768   0.893E-03-0.761E-07
CGA:   7    -0.663397148667E+03   -0.13898E-03   -0.13896E-03   768   0.407E-03-0.904E-06
CGA:   8    -0.663397232434E+03   -0.83767E-04   -0.83748E-04   768   0.194E-03 0.504E-06
  46 F= -.66995237E+03 E0= -.66993249E+03  d E =-.837354E-02  mag=     1.6553
       N       E                     dE             d eps       ncg     rms          ort
SDA:   1    -0.663307670009E+03    0.89479E-01    0.00000E+00   768   0.261E+00 0.000E+00
CGA:   2    -0.663362266348E+03   -0.54596E-01   -0.54604E-01   768   0.144E+00-0.147E-03
CGA:   3    -0.663384674256E+03   -0.22408E-01   -0.22416E-01   768   0.663E-01 0.147E-03
CGA:   4    -0.663394633692E+03   -0.99594E-02   -0.99550E-02   768   0.231E-01-0.491E-04
CGA:   5    -0.663398184553E+03   -0.35509E-02   -0.35523E-02   768   0.106E-01 0.239E-04
CGA:   6    -0.663399633034E+03   -0.14485E-02   -0.14473E-02   768   0.428E-02-0.118E-04
CGA:   7    -0.663400427323E+03   -0.79429E-03   -0.79421E-03   768   0.199E-02 0.192E-05
CGA:   8    -0.663400815836E+03   -0.38851E-03   -0.38863E-03   768   0.112E-02-0.363E-05
CGA:   9    -0.663400983547E+03   -0.16771E-03   -0.16776E-03   768   0.557E-03 0.112E-05
CGA:  10    -0.663401075152E+03   -0.91605E-04   -0.91595E-04   768   0.187E-03-0.102E-05
  47 F= -.66995625E+03 E0= -.66993634E+03  d E =-.388170E-02  mag=     1.6222
       N       E                     dE             d eps       ncg     rms          ort
SDA:   1    -0.662839978863E+03    0.56100E+00    0.00000E+00   768   0.159E+01 0.000E+00
CGA:   2    -0.663169605375E+03   -0.32963E+00   -0.32977E+00   768   0.886E+00-0.278E-02
CGA:   3    -0.663304059157E+03   -0.13445E+00   -0.13461E+00   768   0.412E+00 0.298E-02
CGA:   4    -0.663364836629E+03   -0.60777E-01   -0.60693E-01   768   0.155E+00-0.103E-02
CGA:   5    -0.663386362308E+03   -0.21526E-01   -0.21566E-01   768   0.663E-01 0.326E-03
CGA:   6    -0.663396061822E+03   -0.96995E-02   -0.96897E-02   768   0.251E-01-0.160E-03
CGA:   7    -0.663400807799E+03   -0.47460E-02   -0.47436E-02   768   0.127E-01 0.685E-04
CGA:   8    -0.663403007058E+03   -0.21993E-02   -0.21994E-02   768   0.771E-02-0.348E-04
CGA:   9    -0.663404149983E+03   -0.11429E-02   -0.11434E-02   768   0.315E-02 0.104E-04
CGA:  10    -0.663404729212E+03   -0.57923E-03   -0.57938E-03   768   0.124E-02-0.716E-05
CGA:  11    -0.663404918685E+03   -0.18947E-03   -0.18951E-03   768   0.624E-03 0.178E-05
CGA:  12    -0.663405013461E+03   -0.94776E-04   -0.94760E-04   768   0.225E-03-0.642E-06
  48 F= -.66996027E+03 E0= -.66994030E+03  d E =-.790633E-02  mag=     1.5462
       N       E                     dE             d eps       ncg     rms          ort
SDA:   1    -0.663289389043E+03    0.11553E+00    0.00000E+00   768   0.336E+00 0.000E+00
CGA:   2    -0.663356924814E+03   -0.67536E-01   -0.67559E-01   768   0.191E+00-0.469E-03
CGA:   3    -0.663385258830E+03   -0.28334E-01   -0.28357E-01   768   0.974E-01 0.424E-03
CGA:   4    -0.663399084320E+03   -0.13825E-01   -0.13817E-01   768   0.358E-01-0.826E-04
CGA:   5    -0.663404231762E+03   -0.51474E-02   -0.51508E-02   768   0.143E-01 0.435E-04
CGA:   6    -0.663406411089E+03   -0.21793E-02   -0.21786E-02   768   0.542E-02-0.244E-04
CGA:   7    -0.663407403876E+03   -0.99279E-03   -0.99260E-03   768   0.313E-02 0.609E-05
CGA:   8    -0.663407891404E+03   -0.48753E-03   -0.48745E-03   768   0.165E-02-0.324E-05
CGA:   9    -0.663408168501E+03   -0.27710E-03   -0.27709E-03   768   0.704E-03 0.278E-05
CGA:  10    -0.663408293295E+03   -0.12479E-03   -0.12482E-03   768   0.338E-03-0.174E-05
CGA:  11    -0.663408341345E+03   -0.48049E-04   -0.48060E-04   768   0.145E-03 0.378E-06
  49 F= -.66996370E+03 E0= -.66994383E+03  d E =-.342966E-02  mag=     1.5171
       N       E                     dE             d eps       ncg     rms          ort
SDA:   1    -0.663370546788E+03    0.37747E-01    0.00000E+00   768   0.108E+00 0.000E+00
CGA:   2    -0.663392419821E+03   -0.21873E-01   -0.21876E-01   768   0.593E-01-0.647E-04
CGA:   3    -0.663401679606E+03   -0.92598E-02   -0.92615E-02   768   0.297E-01 0.648E-04
CGA:   4    -0.663405956856E+03   -0.42773E-02   -0.42761E-02   768   0.111E-01-0.109E-04
CGA:   5    -0.663407500736E+03   -0.15439E-02   -0.15445E-02   768   0.464E-02 0.626E-05
CGA:   6    -0.663408191916E+03   -0.69118E-03   -0.69100E-03   768   0.175E-02-0.678E-05
CGA:   7    -0.663408521617E+03   -0.32970E-03   -0.32967E-03   768   0.953E-03 0.553E-06
CGA:   8    -0.663408677305E+03   -0.15569E-03   -0.15568E-03   768   0.550E-03-0.727E-06
CGA:   9    -0.663408762171E+03   -0.84866E-04   -0.84880E-04   768   0.230E-03 0.109E-05
  50 F= -.66996418E+03 E0= -.66994437E+03  d E =-.390735E-02  mag=     1.5021
       N       E                     dE             d eps       ncg     rms          ort
SDA:   1    -0.663352706455E+03    0.55971E-01    0.00000E+00   768   0.159E+00 0.000E+00
CGA:   2    -0.663389289667E+03   -0.36583E-01   -0.36611E-01   768   0.103E+00-0.327E-03
CGA:   3    -0.663401470461E+03   -0.12181E-01   -0.12202E-01   768   0.441E-01 0.521E-04
CGA:   4    -0.663408152382E+03   -0.66819E-02   -0.66813E-02   768   0.140E-01-0.735E-05
CGA:   5    -0.663410277427E+03   -0.21250E-02   -0.21253E-02   768   0.526E-02 0.788E-05
CGA:   6    -0.663411079290E+03   -0.80186E-03   -0.80168E-03   768   0.214E-02-0.100E-04
CGA:   7    -0.663411418684E+03   -0.33939E-03   -0.33939E-03   768   0.125E-02-0.262E-05
CGA:   8    -0.663411619447E+03   -0.20076E-03   -0.20075E-03   768   0.530E-03-0.287E-05
CGA:   9    -0.663411722426E+03   -0.10298E-03   -0.10294E-03   768   0.306E-03 0.123E-05
CGA:  10    -0.663411767996E+03   -0.45570E-04   -0.45564E-04   768   0.145E-03-0.208E-06
  51 F= -.66996719E+03 E0= -.66994742E+03  d E =-.300603E-02  mag=     1.4858
       N       E                     dE             d eps       ncg     rms          ort
SDA:   1    -0.662883797281E+03    0.52793E+00    0.00000E+00   768   0.144E+01 0.000E+00
CGA:   2    -0.663209073642E+03   -0.32528E+00   -0.32602E+00   768   0.995E+00-0.892E-02
CGA:   3    -0.663320319824E+03   -0.11125E+00   -0.11187E+00   768   0.404E+00 0.861E-03
CGA:   4    -0.663383116752E+03   -0.62797E-01   -0.62783E-01   768   0.131E+00-0.720E-03
CGA:   5    -0.663403006815E+03   -0.19890E-01   -0.19897E-01   768   0.466E-01 0.168E-03
CGA:   6    -0.663410139664E+03   -0.71328E-02   -0.71303E-02   768   0.201E-01-0.132E-03
CGA:   7    -0.663413136659E+03   -0.29970E-02   -0.29977E-02   768   0.110E-01 0.136E-04
CGA:   8    -0.663414973613E+03   -0.18370E-02   -0.18371E-02   768   0.467E-02-0.228E-04
CGA:   9    -0.663415875361E+03   -0.90175E-03   -0.90137E-03   768   0.278E-02 0.990E-05
CGA:  10    -0.663416271478E+03   -0.39612E-03   -0.39598E-03   768   0.125E-02-0.255E-05
CGA:  11    -0.663416484805E+03   -0.21333E-03   -0.21331E-03   768   0.468E-03 0.256E-05
CGA:  12    -0.663416563261E+03   -0.78456E-04   -0.78459E-04   768   0.259E-03-0.719E-06
  52 F= -.66997197E+03 E0= -.66995227E+03  d E =-.778769E-02  mag=     1.4458
       N       E                     dE             d eps       ncg     rms          ort
SDA:   1    -0.663270729980E+03    0.14575E+00    0.00000E+00   768   0.396E+00 0.000E+00
CGA:   2    -0.663368048944E+03   -0.97319E-01   -0.97408E-01   768   0.242E+00-0.853E-03
CGA:   3    -0.663396747294E+03   -0.28698E-01   -0.28758E-01   768   0.112E+00 0.204E-03
CGA:   4    -0.663413035146E+03   -0.16288E-01   -0.16283E-01   768   0.346E-01-0.840E-04
CGA:   5    -0.663418007930E+03   -0.49728E-02   -0.49742E-02   768   0.116E-01 0.261E-04
CGA:   6    -0.663419827586E+03   -0.18197E-02   -0.18195E-02   768   0.507E-02-0.185E-04
CGA:   7    -0.663420592114E+03   -0.76453E-03   -0.76454E-03   768   0.283E-02-0.258E-05
CGA:   8    -0.663421045761E+03   -0.45365E-03   -0.45364E-03   768   0.124E-02-0.648E-05
CGA:   9    -0.663421285046E+03   -0.23928E-03   -0.23921E-03   768   0.711E-03 0.200E-05
CGA:  10    -0.663421388437E+03   -0.10339E-03   -0.10338E-03   768   0.352E-03 0.917E-08
CGA:  11    -0.663421446687E+03   -0.58250E-04   -0.58244E-04   768   0.130E-03 0.193E-05
  53 F= -.66997674E+03 E0= -.66995697E+03  d E =-.477697E-02  mag=     1.4229
       N       E                     dE             d eps       ncg     rms          ort
SDA:   1    -0.663365773827E+03    0.55615E-01    0.00000E+00   768   0.148E+00 0.000E+00
CGA:   2    -0.663402674420E+03   -0.36901E-01   -0.36918E-01   768   0.846E-01-0.160E-03
CGA:   3    -0.663413375213E+03   -0.10701E-01   -0.10711E-01   768   0.413E-01 0.605E-04
CGA:   4    -0.663419137791E+03   -0.57626E-02   -0.57611E-02   768   0.133E-01-0.501E-05
CGA:   5    -0.663420943442E+03   -0.18057E-02   -0.18062E-02   768   0.447E-02 0.765E-05
CGA:   6    -0.663421663547E+03   -0.72010E-03   -0.72009E-03   768   0.185E-02-0.734E-05
CGA:   7    -0.663421952708E+03   -0.28916E-03   -0.28915E-03   768   0.110E-02-0.283E-05
CGA:   8    -0.663422119421E+03   -0.16671E-03   -0.16668E-03   768   0.488E-03-0.319E-05
CGA:   9    -0.663422212741E+03   -0.93320E-04   -0.93289E-04   768   0.258E-03 0.974E-06
  54 F= -.66997744E+03 E0= -.66995764E+03  d E =-.547538E-02  mag=     1.4100
       N       E                     dE             d eps       ncg     rms          ort
SDA:   1    -0.663370109806E+03    0.52010E-01    0.00000E+00   768   0.141E+00 0.000E+00
CGA:   2    -0.663408116185E+03   -0.38006E-01   -0.38019E-01   768   0.638E-01-0.103E-03
CGA:   3    -0.663418028714E+03   -0.99125E-02   -0.99142E-02   768   0.332E-01 0.580E-04
CGA:   4    -0.663422338595E+03   -0.43099E-02   -0.43084E-02   768   0.103E-01 0.248E-05
CGA:   5    -0.663423745582E+03   -0.14070E-02   -0.14073E-02   768   0.425E-02 0.526E-05
CGA:   6    -0.663424311421E+03   -0.56584E-03   -0.56567E-03   768   0.142E-02-0.267E-05
CGA:   7    -0.663424595181E+03   -0.28376E-03   -0.28379E-03   768   0.755E-03-0.105E-05
CGA:   8    -0.663424706146E+03   -0.11097E-03   -0.11094E-03   768   0.434E-03-0.128E-05
CGA:   9    -0.663424777481E+03   -0.71335E-04   -0.71334E-04   768   0.208E-03 0.876E-06
  55 F= -.66998008E+03 E0= -.66996029E+03  d E =-.263409E-02  mag=     1.4032
       N       E                     dE             d eps       ncg     rms          ort
SDA:   1    -0.663216347894E+03    0.20836E+00    0.00000E+00   768   0.543E+00 0.000E+00
CGA:   2    -0.663361978735E+03   -0.14563E+00   -0.14573E+00   768   0.255E+00-0.820E-03
CGA:   3    -0.663399240300E+03   -0.37262E-01   -0.37293E-01   768   0.136E+00 0.511E-03
CGA:   4    -0.663416813164E+03   -0.17573E-01   -0.17561E-01   768   0.431E-01-0.124E-04
CGA:   5    -0.663422554553E+03   -0.57414E-02   -0.57445E-02   768   0.157E-01 0.287E-04
CGA:   6    -0.663424853729E+03   -0.22992E-02   -0.22986E-02   768   0.539E-02-0.134E-04
CGA:   7    -0.663425856100E+03   -0.10024E-02   -0.10023E-02   768   0.322E-02 0.195E-05
CGA:   8    -0.663426293008E+03   -0.43691E-03   -0.43677E-03   768   0.154E-02-0.317E-05
CGA:   9    -0.663426580711E+03   -0.28770E-03   -0.28764E-03   768   0.759E-03 0.237E-05
CGA:  10    -0.663426716473E+03   -0.13576E-03   -0.13577E-03   768   0.431E-03-0.284E-06
CGA:  11    -0.663426775451E+03   -0.58978E-04   -0.59023E-04   768   0.183E-03 0.152E-05
  56 F= -.66998221E+03 E0= -.66996247E+03  d E =-.476370E-02  mag=     1.3909
       N       E                     dE             d eps       ncg     rms          ort
SDA:   1    -0.663394123254E+03    0.32593E-01    0.00000E+00   768   0.911E-01 0.000E+00
CGA:   2    -0.663418587111E+03   -0.24464E-01   -0.24465E-01   768   0.424E-01-0.137E-04
CGA:   3    -0.663425180792E+03   -0.65937E-02   -0.65925E-02   768   0.212E-01-0.385E-04
CGA:   4    -0.663427998983E+03   -0.28182E-02   -0.28191E-02   768   0.716E-02 0.195E-05
CGA:   5    -0.663428886821E+03   -0.88784E-03   -0.88761E-03   768   0.251E-02 0.112E-05
CGA:   6    -0.663429256327E+03   -0.36951E-03   -0.36955E-03   768   0.900E-03 0.150E-05
CGA:   7    -0.663429425604E+03   -0.16928E-03   -0.16932E-03   768   0.497E-03-0.169E-05
CGA:   8    -0.663429497338E+03   -0.71734E-04   -0.71733E-04   768   0.278E-03-0.163E-06
  57 F= -.66998510E+03 E0= -.66996542E+03  d E =-.288832E-02  mag=     1.3808
       N       E                     dE             d eps       ncg     rms          ort
SDA:   1    -0.663295928336E+03    0.13350E+00    0.00000E+00   768   0.347E+00 0.000E+00
CGA:   2    -0.663389590128E+03   -0.93662E-01   -0.93674E-01   768   0.158E+00-0.115E-03
CGA:   3    -0.663415052266E+03   -0.25462E-01   -0.25458E-01   768   0.778E-01-0.209E-03
CGA:   4    -0.663425291499E+03   -0.10239E-01   -0.10246E-01   768   0.254E-01 0.253E-04
CGA:   5    -0.663428737239E+03   -0.34457E-02   -0.34443E-02   768   0.101E-01-0.928E-05
CGA:   6    -0.663430033673E+03   -0.12964E-02   -0.12970E-02   768   0.358E-02 0.476E-05
CGA:   7    -0.663430732834E+03   -0.69916E-03   -0.69932E-03   768   0.174E-02-0.446E-05
CGA:   8    -0.663431011207E+03   -0.27837E-03   -0.27838E-03   768   0.108E-02 0.496E-06
CGA:   9    -0.663431177291E+03   -0.16608E-03   -0.16606E-03   768   0.524E-03-0.169E-05
CGA:  10    -0.663431277032E+03   -0.99741E-04   -0.99708E-04   768   0.244E-03 0.128E-05
  58 F= -.66998719E+03 E0= -.66996764E+03  d E =-.498637E-02  mag=     1.3583
       N       E                     dE             d eps       ncg     rms          ort
SDA:   1    -0.663359130716E+03    0.72047E-01    0.00000E+00   768   0.196E+00 0.000E+00
CGA:   2    -0.663409559271E+03   -0.50429E-01   -0.50408E-01   768   0.102E+00 0.187E-03
CGA:   3    -0.663423371174E+03   -0.13812E-01   -0.13796E-01   768   0.515E-01-0.133E-03
CGA:   4    -0.663430088418E+03   -0.67172E-02   -0.67179E-02   768   0.160E-01-0.949E-05
CGA:   5    -0.663432233756E+03   -0.21453E-02   -0.21448E-02   768   0.527E-02-0.158E-05
CGA:   6    -0.663433062674E+03   -0.82892E-03   -0.82897E-03   768   0.200E-02 0.391E-05
CGA:   7    -0.663433384545E+03   -0.32187E-03   -0.32185E-03   768   0.124E-02-0.386E-05
CGA:   8    -0.663433562929E+03   -0.17838E-03   -0.17836E-03   768   0.520E-03-0.151E-05
CGA:   9    -0.663433664769E+03   -0.10184E-03   -0.10191E-03   768   0.285E-03-0.209E-05
CGA:  10    -0.663433710937E+03   -0.46168E-04   -0.46170E-04   768   0.180E-03 0.701E-06
  59 F= -.66998984E+03 E0= -.66997039E+03  d E =-.264188E-02  mag=     1.3345
       N       E                     dE             d eps       ncg     rms          ort
SDA:   1    -0.663387314162E+03    0.46351E-01    0.00000E+00   768   0.123E+00 0.000E+00
CGA:   2    -0.663419085904E+03   -0.31772E-01   -0.31762E-01   768   0.630E-01 0.868E-04
CGA:   3    -0.663427757255E+03   -0.86714E-02   -0.86649E-02   768   0.320E-01-0.721E-04
CGA:   4    -0.663431902029E+03   -0.41448E-02   -0.41450E-02   768   0.997E-02-0.795E-05
CGA:   5    -0.663433217559E+03   -0.13155E-02   -0.13153E-02   768   0.338E-02 0.196E-06
CGA:   6    -0.663433743961E+03   -0.52640E-03   -0.52643E-03   768   0.124E-02 0.219E-05
CGA:   7    -0.663433950087E+03   -0.20613E-03   -0.20613E-03   768   0.782E-03-0.305E-05
CGA:   8    -0.663434060450E+03   -0.11036E-03   -0.11034E-03   768   0.336E-03-0.128E-05
CGA:   9    -0.663434125209E+03   -0.64758E-04   -0.64809E-04   768   0.180E-03-0.161E-05
  60 F= -.66999041E+03 E0= -.66997107E+03  d E =-.322046E-02  mag=     1.3159
       N       E                     dE             d eps       ncg     rms          ort
SDA:   1    -0.663378238925E+03    0.55822E-01    0.00000E+00   768   0.157E+00 0.000E+00
CGA:   2    -0.663417002442E+03   -0.38764E-01   -0.38752E-01   768   0.894E-01 0.109E-03
CGA:   3    -0.663427666629E+03   -0.10664E-01   -0.10650E-01   768   0.439E-01-0.570E-04
CGA:   4    -0.663433809552E+03   -0.61429E-02   -0.61431E-02   768   0.121E-01-0.136E-04
CGA:   5    -0.663435649378E+03   -0.18398E-02   -0.18397E-02   768   0.420E-02 0.186E-06
CGA:   6    -0.663436282678E+03   -0.63330E-03   -0.63340E-03   768   0.172E-02 0.593E-05
CGA:   7    -0.663436537720E+03   -0.25504E-03   -0.25503E-03   768   0.102E-02-0.668E-06
CGA:   8    -0.663436697172E+03   -0.15945E-03   -0.15945E-03   768   0.397E-03-0.204E-06
CGA:   9    -0.663436779364E+03   -0.82192E-04   -0.82275E-04   768   0.255E-03-0.182E-05
  61 F= -.66999335E+03 E0= -.66997415E+03  d E =-.293324E-02  mag=     1.2995
       N       E                     dE             d eps       ncg     rms          ort
SDA:   1    -0.662913724198E+03    0.52297E+00    0.00000E+00   768   0.142E+01 0.000E+00
CGA:   2    -0.663259748355E+03   -0.34602E+00   -0.34572E+00   768   0.837E+00 0.298E-02
CGA:   3    -0.663356956562E+03   -0.97208E-01   -0.96840E-01   768   0.394E+00-0.110E-02
CGA:   4    -0.663413661414E+03   -0.56705E-01   -0.56722E-01   768   0.109E+00 0.285E-03
CGA:   5    -0.663430465210E+03   -0.16804E-01   -0.16802E-01   768   0.362E-01-0.623E-04
CGA:   6    -0.663435942609E+03   -0.54774E-02   -0.54789E-02   768   0.154E-01 0.711E-04
CGA:   7    -0.663438150701E+03   -0.22081E-02   -0.22080E-02   768   0.871E-02-0.212E-05
CGA:   8    -0.663439541705E+03   -0.13910E-02   -0.13910E-02   768   0.334E-02 0.774E-05
CGA:   9    -0.663440236722E+03   -0.69502E-03   -0.69536E-03   768   0.212E-02-0.684E-05
CGA:  10    -0.663440537942E+03   -0.30122E-03   -0.30127E-03   768   0.117E-02 0.168E-05
CGA:  11    -0.663440740522E+03   -0.20258E-03   -0.20259E-03   768   0.417E-03-0.849E-06
CGA:  12    -0.663440818313E+03   -0.77791E-04   -0.77748E-04   768   0.292E-03 0.191E-05
  62 F= -.66999821E+03 E0= -.66997954E+03  d E =-.780124E-02  mag=     1.2522
       N       E                     dE             d eps       ncg     rms          ort
SDA:   1    -0.663352265711E+03    0.88475E-01    0.00000E+00   768   0.250E+00 0.000E+00
CGA:   2    -0.663408358545E+03   -0.56093E-01   -0.56082E-01   768   0.153E+00 0.118E-03
CGA:   3    -0.663427561408E+03   -0.19203E-01   -0.19184E-01   768   0.758E-01-0.148E-03
CGA:   4    -0.663438151073E+03   -0.10590E-01   -0.10592E-01   768   0.234E-01 0.126E-04
CGA:   5    -0.663441715394E+03   -0.35643E-02   -0.35640E-02   768   0.772E-02-0.784E-05
CGA:   6    -0.663442899638E+03   -0.11842E-02   -0.11844E-02   768   0.335E-02 0.104E-04
CGA:   7    -0.663443403771E+03   -0.50413E-03   -0.50413E-03   768   0.199E-02 0.714E-06
CGA:   8    -0.663443721920E+03   -0.31815E-03   -0.31815E-03   768   0.830E-03 0.264E-05
CGA:   9    -0.663443889382E+03   -0.16746E-03   -0.16753E-03   768   0.494E-03-0.165E-05
CGA:  10    -0.663443961833E+03   -0.72451E-04   -0.72461E-04   768   0.277E-03 0.602E-06
  63 F= -.67000172E+03 E0= -.66998334E+03  d E =-.350693E-02  mag=     1.2318
       N       E                     dE             d eps       ncg     rms          ort
SDA:   1    -0.663432334368E+03    0.11555E-01    0.00000E+00   768   0.326E-01 0.000E+00
CGA:   2    -0.663439441496E+03   -0.71071E-02   -0.71064E-02   768   0.211E-01 0.950E-05
CGA:   3    -0.663441987687E+03   -0.25462E-02   -0.25450E-02   768   0.965E-02-0.911E-05
CGA:   4    -0.663443419537E+03   -0.14318E-02   -0.14318E-02   768   0.307E-02-0.767E-05
CGA:   5    -0.663443856692E+03   -0.43715E-03   -0.43714E-03   768   0.107E-02 0.348E-06
CGA:   6    -0.663444032097E+03   -0.17540E-03   -0.17540E-03   768   0.480E-03 0.225E-05
CGA:   7    -0.663444102912E+03   -0.70816E-04   -0.70821E-04   768   0.291E-03 0.365E-06
  64 F= -.67000199E+03 E0= -.66998373E+03  d E =-.377766E-02  mag=     1.2244
       N       E                     dE             d eps       ncg     rms          ort
SDA:   1    -0.663375024883E+03    0.69007E-01    0.00000E+00   768   0.187E+00 0.000E+00
CGA:   2    -0.663425357430E+03   -0.50333E-01   -0.50322E-01   768   0.865E-01 0.807E-04
CGA:   3    -0.663437324744E+03   -0.11967E-01   -0.11962E-01   768   0.492E-01-0.758E-04
CGA:   4    -0.663443363005E+03   -0.60383E-02   -0.60382E-02   768   0.134E-01-0.125E-04
CGA:   5    -0.663445342917E+03   -0.19799E-02   -0.19799E-02   768   0.400E-02 0.385E-05
CGA:   6    -0.663445988938E+03   -0.64602E-03   -0.64603E-03   768   0.166E-02 0.394E-05
CGA:   7    -0.663446241992E+03   -0.25305E-03   -0.25303E-03   768   0.101E-02-0.221E-05
CGA:   8    -0.663446388378E+03   -0.14639E-03   -0.14637E-03   768   0.386E-03-0.107E-05
CGA:   9    -0.663446471867E+03   -0.83489E-04   -0.83552E-04   768   0.232E-03-0.114E-05
  65 F= -.67000462E+03 E0= -.66998660E+03  d E =-.262935E-02  mag=     1.2083
       N       E                     dE             d eps       ncg     rms          ort
SDA:   1    -0.663255821308E+03    0.19057E+00    0.00000E+00   768   0.502E+00 0.000E+00
CGA:   2    -0.663391146946E+03   -0.13533E+00   -0.13528E+00   768   0.231E+00 0.364E-03
CGA:   3    -0.663423413985E+03   -0.32267E-01   -0.32247E-01   768   0.135E+00-0.261E-03
CGA:   4    -0.663439807239E+03   -0.16393E-01   -0.16395E-01   768   0.331E-01-0.197E-04
CGA:   5    -0.663444802188E+03   -0.49949E-02   -0.49946E-02   768   0.111E-01-0.780E-06
CGA:   6    -0.663446477490E+03   -0.16753E-02   -0.16755E-02   768   0.424E-02 0.104E-04
CGA:   7    -0.663447156968E+03   -0.67948E-03   -0.67946E-03   768   0.262E-02-0.375E-05
CGA:   8    -0.663447520114E+03   -0.36315E-03   -0.36313E-03   768   0.972E-03-0.116E-05
CGA:   9    -0.663447728527E+03   -0.20841E-03   -0.20850E-03   768   0.576E-03-0.167E-05
CGA:  10    -0.663447819829E+03   -0.91301E-04   -0.91311E-04   768   0.372E-03 0.157E-05
  66 F= -.67000639E+03 E0= -.66998878E+03  d E =-.439687E-02  mag=     1.1838
       N       E                     dE             d eps       ncg     rms          ort
SDA:   1    -0.663342606903E+03    0.10512E+00    0.00000E+00   768   0.281E+00 0.000E+00
CGA:   2    -0.663420807462E+03   -0.78201E-01   -0.78159E-01   768   0.119E+00 0.330E-03
CGA:   3    -0.663439631175E+03   -0.18824E-01   -0.18821E-01   768   0.653E-01-0.125E-03
CGA:   4    -0.663447383923E+03   -0.77527E-02   -0.77542E-02   768   0.180E-01-0.679E-05
CGA:   5    -0.663449748225E+03   -0.23643E-02   -0.23641E-02   768   0.634E-02 0.303E-05
[...]
CGA:   7    -0.663616338615E+03   -0.34649E-02   -0.34652E-02   768   0.663E-02 0.808E-05
CGA:   8    -0.663617466470E+03   -0.11279E-02   -0.11279E-02   768   0.464E-02 0.259E-05
CGA:   9    -0.663618051279E+03   -0.58481E-03   -0.58487E-03   768   0.158E-02 0.394E-05
CGA:  10    -0.663618415309E+03   -0.36403E-03   -0.36400E-03   768   0.854E-03 0.244E-06
CGA:  11    -0.663618549121E+03   -0.13381E-03   -0.13383E-03   768   0.603E-03 0.141E-05
CGA:  12    -0.663618638435E+03   -0.89314E-04   -0.89279E-04   768   0.200E-03-0.151E-05
 125 F= -.67019171E+03 E0= -.67018075E+03  d E =-.519898E-02  mag=     0.8319
       N       E                     dE             d eps       ncg     rms          ort
SDA:   1    -0.663017141168E+03    0.60141E+00    0.00000E+00   768   0.154E+01 0.000E+00
CGA:   2    -0.663484358034E+03   -0.46722E+00   -0.46709E+00   768   0.553E+00 0.111E-02
CGA:   3    -0.663586519023E+03   -0.10216E+00   -0.10216E+00   768   0.191E+00 0.692E-03
CGA:   4    -0.663607281764E+03   -0.20763E-01   -0.20891E-01   768   0.858E-01-0.268E-03
CGA:   5    -0.663618480111E+03   -0.11198E-01   -0.11191E-01   768   0.137E-01-0.969E-05
CGA:   6    -0.663621364274E+03   -0.28842E-02   -0.28844E-02   768   0.594E-02-0.651E-05
CGA:   7    -0.663622087363E+03   -0.72309E-03   -0.72281E-03   768   0.248E-02-0.129E-05
CGA:   8    -0.663622440407E+03   -0.35304E-03   -0.35303E-03   768   0.108E-02-0.203E-05
CGA:   9    -0.663622634256E+03   -0.19385E-03   -0.19383E-03   768   0.421E-03 0.216E-05
CGA:  10    -0.663622713640E+03   -0.79383E-04   -0.79383E-04   768   0.369E-03-0.945E-07
 126 F= -.67019618E+03 E0= -.67018524E+03  d E =-.447120E-02  mag=     0.8332
       N       E                     dE             d eps       ncg     rms          ort
SDA:   1    -0.662743317939E+03    0.87932E+00    0.00000E+00   768   0.223E+01 0.000E+00
CGA:   2    -0.663422997307E+03   -0.67968E+00   -0.67950E+00   768   0.801E+00 0.176E-02
CGA:   3    -0.663571293224E+03   -0.14830E+00   -0.14828E+00   768   0.278E+00 0.149E-02
CGA:   4    -0.663601488543E+03   -0.30195E-01   -0.30415E-01   768   0.124E+00-0.399E-03
CGA:   5    -0.663617615558E+03   -0.16127E-01   -0.16115E-01   768   0.207E-01-0.223E-04
CGA:   6    -0.663621918788E+03   -0.43032E-02   -0.43035E-02   768   0.867E-02-0.787E-05
CGA:   7    -0.663623021179E+03   -0.11024E-02   -0.11020E-02   768   0.386E-02-0.189E-05
CGA:   8    -0.663623542566E+03   -0.52139E-03   -0.52144E-03   768   0.157E-02-0.208E-05
CGA:   9    -0.663623847071E+03   -0.30451E-03   -0.30443E-03   768   0.635E-03 0.317E-05
CGA:  10    -0.663623962231E+03   -0.11516E-03   -0.11516E-03   768   0.555E-03-0.620E-07
CGA:  11    -0.663624038180E+03   -0.75949E-04   -0.75992E-04   768   0.172E-03 0.135E-05
 127 F= -.67019797E+03 E0= -.67018708E+03  d E =-.626641E-02  mag=     0.8361
       N       E                     dE             d eps       ncg     rms          ort
SDA:   1    -0.662815397585E+03    0.80856E+00    0.00000E+00   768   0.206E+01 0.000E+00
CGA:   2    -0.663439699939E+03   -0.62430E+00   -0.62486E+00   768   0.748E+00-0.375E-02
CGA:   3    -0.663580683034E+03   -0.14098E+00   -0.14095E+00   768   0.204E+00 0.217E-02
CGA:   4    -0.663609741256E+03   -0.29058E-01   -0.29081E-01   768   0.105E+00 0.208E-03
CGA:   5    -0.663620660725E+03   -0.10919E-01   -0.10888E-01   768   0.222E-01 0.128E-03
CGA:   6    -0.663624470380E+03   -0.38097E-02   -0.38096E-02   768   0.901E-02-0.795E-05
CGA:   7    -0.663625858501E+03   -0.13881E-02   -0.13882E-02   768   0.299E-02 0.113E-05
CGA:   8    -0.663626281779E+03   -0.42328E-03   -0.42331E-03   768   0.189E-02-0.615E-06
CGA:   9    -0.663626563799E+03   -0.28202E-03   -0.28208E-03   768   0.605E-03 0.324E-05
CGA:  10    -0.663626701156E+03   -0.13736E-03   -0.13734E-03   768   0.412E-03 0.360E-06
CGA:  11    -0.663626755347E+03   -0.54191E-04   -0.54235E-04   768   0.223E-03 0.129E-05
 128 F= -.67020112E+03 E0= -.67018992E+03  d E =-.314435E-02  mag=     0.8260
       N       E                     dE             d eps       ncg     rms          ort
SDA:   1    -0.663517306388E+03    0.10939E+00    0.00000E+00   768   0.277E+00 0.000E+00
CGA:   2    -0.663601712433E+03   -0.84406E-01   -0.84432E-01   768   0.988E-01-0.185E-03
CGA:   3    -0.663620899828E+03   -0.19187E-01   -0.19185E-01   768   0.238E-01 0.799E-04
CGA:   4    -0.663625178558E+03   -0.42787E-02   -0.42787E-02   768   0.851E-02-0.205E-06
CGA:   5    -0.663626031018E+03   -0.85246E-03   -0.85154E-03   768   0.310E-02 0.483E-05
CGA:   6    -0.663626513586E+03   -0.48257E-03   -0.48254E-03   768   0.998E-03-0.146E-05
CGA:   7    -0.663626674073E+03   -0.16049E-03   -0.16049E-03   768   0.352E-03 0.131E-06
CGA:   8    -0.663626733990E+03   -0.59917E-04   -0.59917E-04   768   0.225E-03-0.499E-07
 129 F= -.67020125E+03 E0= -.67018992E+03  d E =-.327829E-02  mag=     0.8216
       N       E                     dE             d eps       ncg     rms          ort
SDA:   1    -0.662768267452E+03    0.85841E+00    0.00000E+00   768   0.219E+01 0.000E+00
CGA:   2    -0.663430148729E+03   -0.66188E+00   -0.66201E+00   768   0.839E+00-0.326E-03
CGA:   3    -0.663567140077E+03   -0.13699E+00   -0.13699E+00   768   0.404E+00-0.604E-04
CGA:   4    -0.663604987283E+03   -0.37847E-01   -0.38209E-01   768   0.115E+00-0.160E-02
CGA:   5    -0.663623877838E+03   -0.18891E-01   -0.18890E-01   768   0.229E-01-0.290E-04
CGA:   6    -0.663627802399E+03   -0.39246E-02   -0.39245E-02   768   0.120E-01-0.127E-04
CGA:   7    -0.663629282482E+03   -0.14801E-02   -0.14791E-02   768   0.445E-02-0.242E-05
CGA:   8    -0.663629882644E+03   -0.60016E-03   -0.60010E-03   768   0.170E-02-0.277E-05
CGA:   9    -0.663630226813E+03   -0.34417E-03   -0.34406E-03   768   0.819E-03 0.332E-05
CGA:  10    -0.663630341680E+03   -0.11487E-03   -0.11487E-03   768   0.541E-03-0.277E-06
CGA:  11    -0.663630435793E+03   -0.94113E-04   -0.94104E-04   768   0.205E-03 0.188E-05
 130 F= -.67020533E+03 E0= -.67019385E+03  d E =-.407595E-02  mag=     0.8176
       N       E                     dE             d eps       ncg     rms          ort
SDA:   1    -0.662670851919E+03    0.95949E+00    0.00000E+00   768   0.243E+01 0.000E+00
CGA:   2    -0.663410208429E+03   -0.73936E+00   -0.73953E+00   768   0.908E+00-0.490E-03
CGA:   3    -0.663566004008E+03   -0.15580E+00   -0.15580E+00   768   0.395E+00 0.816E-03
CGA:   4    -0.663603620099E+03   -0.37616E-01   -0.37991E-01   768   0.133E+00-0.154E-02
CGA:   5    -0.663623886977E+03   -0.20267E-01   -0.20264E-01   768   0.242E-01-0.435E-04
CGA:   6    -0.663628429481E+03   -0.45425E-02   -0.45428E-02   768   0.122E-01-0.145E-04
CGA:   7    -0.663629863549E+03   -0.14341E-02   -0.14329E-02   768   0.481E-02-0.922E-06
CGA:   8    -0.663630532323E+03   -0.66877E-03   -0.66873E-03   768   0.175E-02-0.244E-05
CGA:   9    -0.663630888252E+03   -0.35593E-03   -0.35579E-03   768   0.872E-03 0.392E-05
CGA:  10    -0.663631009165E+03   -0.12091E-03   -0.12092E-03   768   0.580E-03-0.220E-06
CGA:  11    -0.663631109887E+03   -0.10072E-03   -0.10071E-03   768   0.211E-03 0.191E-05
CGA:  12    -0.663631151494E+03   -0.41607E-04   -0.41638E-04   768   0.161E-03-0.110E-05
 131 F= -.67020643E+03 E0= -.67019478E+03  d E =-.517982E-02  mag=     0.8128
       N       E                     dE             d eps       ncg     rms          ort
SDA:   1    -0.662816343481E+03    0.81477E+00    0.00000E+00   768   0.208E+01 0.000E+00
CGA:   2    -0.663439593834E+03   -0.62325E+00   -0.62296E+00   768   0.843E+00 0.283E-02
CGA:   3    -0.663565498441E+03   -0.12590E+00   -0.12583E+00   768   0.455E+00-0.101E-02
CGA:   4    -0.663609029534E+03   -0.43531E-01   -0.43893E-01   768   0.109E+00-0.136E-02
CGA:   5    -0.663627643601E+03   -0.18614E-01   -0.18614E-01   768   0.241E-01 0.392E-05
CGA:   6    -0.663631581692E+03   -0.39381E-02   -0.39380E-02   768   0.121E-01-0.160E-04
CGA:   7    -0.663633089918E+03   -0.15082E-02   -0.15074E-02   768   0.491E-02-0.446E-05
CGA:   8    -0.663633747491E+03   -0.65757E-03   -0.65751E-03   768   0.166E-02-0.342E-05
CGA:   9    -0.663634093309E+03   -0.34582E-03   -0.34566E-03   768   0.884E-03 0.358E-05
CGA:  10    -0.663634211715E+03   -0.11841E-03   -0.11841E-03   768   0.542E-03-0.369E-06
CGA:  11    -0.663634307953E+03   -0.96238E-04   -0.96214E-04   768   0.208E-03 0.194E-05
 132 F= -.67021005E+03 E0= -.67019863E+03  d E =-.361331E-02  mag=     0.8207
       N       E                     dE             d eps       ncg     rms          ort
SDA:   1    -0.663536480880E+03    0.97731E-01    0.00000E+00   768   0.248E+00 0.000E+00
CGA:   2    -0.663611655836E+03   -0.75175E-01   -0.75159E-01   768   0.917E-01 0.125E-03
CGA:   3    -0.663628085134E+03   -0.16429E-01   -0.16429E-01   768   0.343E-01 0.304E-04
CGA:   4    -0.663631751204E+03   -0.36661E-02   -0.36733E-02   768   0.142E-01-0.102E-04
CGA:   5    -0.663633574986E+03   -0.18238E-02   -0.18234E-02   768   0.292E-02-0.129E-05
CGA:   6    -0.663634092727E+03   -0.51774E-03   -0.51778E-03   768   0.117E-02-0.441E-05
CGA:   7    -0.663634266128E+03   -0.17340E-03   -0.17338E-03   768   0.582E-03-0.882E-06
CGA:   8    -0.663634334348E+03   -0.68220E-04   -0.68177E-04   768   0.213E-03-0.107E-05
 133 F= -.67021023E+03 E0= -.67019889E+03  d E =-.379557E-02  mag=     0.8231
       N       E                     dE             d eps       ncg     rms          ort
SDA:   1    -0.663060632280E+03    0.57363E+00    0.00000E+00   768   0.146E+01 0.000E+00
CGA:   2    -0.663502484379E+03   -0.44185E+00   -0.44219E+00   768   0.562E+00-0.213E-02
CGA:   3    -0.663594326090E+03   -0.91842E-01   -0.91837E-01   768   0.273E+00-0.158E-03
CGA:   4    -0.663619660593E+03   -0.25335E-01   -0.25551E-01   768   0.775E-01-0.927E-03
CGA:   5    -0.663632603310E+03   -0.12943E-01   -0.12943E-01   768   0.146E-01-0.195E-04
CGA:   6    -0.663635229824E+03   -0.26265E-02   -0.26266E-02   768   0.826E-02-0.521E-05
CGA:   7    -0.663636179746E+03   -0.94992E-03   -0.94936E-03   768   0.280E-02 0.639E-06
CGA:   8    -0.663636585357E+03   -0.40561E-03   -0.40558E-03   768   0.115E-02-0.164E-05
CGA:   9    -0.663636810328E+03   -0.22497E-03   -0.22489E-03   768   0.543E-03 0.287E-05
CGA:  10    -0.663636884940E+03   -0.74612E-04   -0.74605E-04   768   0.359E-03-0.401E-06
 134 F= -.67021331E+03 E0= -.67020200E+03  d E =-.308072E-02  mag=     0.8198
       N       E                     dE             d eps       ncg     rms          ort
SDA:   1    -0.663469722179E+03    0.16709E+00    0.00000E+00   768   0.424E+00 0.000E+00
CGA:   2    -0.663597995931E+03   -0.12827E+00   -0.12832E+00   768   0.164E+00-0.333E-03
CGA:   3    -0.663623991397E+03   -0.25995E-01   -0.25993E-01   768   0.854E-01-0.686E-04
CGA:   4    -0.663632055051E+03   -0.80637E-02   -0.80965E-02   768   0.218E-01-0.127E-03
CGA:   5    -0.663635680059E+03   -0.36250E-02   -0.36250E-02   768   0.481E-02-0.724E-06
CGA:   6    -0.663636488323E+03   -0.80826E-03   -0.80826E-03   768   0.233E-02-0.277E-05
CGA:   7    -0.663636783983E+03   -0.29566E-03   -0.29560E-03   768   0.101E-02 0.596E-07
CGA:   8    -0.663636915376E+03   -0.13139E-03   -0.13135E-03   768   0.327E-03-0.128E-05
CGA:   9    -0.663636987858E+03   -0.72483E-04   -0.72393E-04   768   0.178E-03 0.159E-05
 135 F= -.67021369E+03 E0= -.67020239E+03  d E =-.346316E-02  mag=     0.8182
       N       E                     dE             d eps       ncg     rms          ort
SDA:   1    -0.663344287171E+03    0.29263E+00    0.00000E+00   768   0.748E+00 0.000E+00
CGA:   2    -0.663571142546E+03   -0.22686E+00   -0.22691E+00   768   0.278E+00-0.280E-03
CGA:   3    -0.663618800357E+03   -0.47658E-01   -0.47658E-01   768   0.127E+00 0.175E-04
CGA:   4    -0.663630622199E+03   -0.11822E-01   -0.11888E-01   768   0.396E-01-0.280E-03
CGA:   5    -0.663636995553E+03   -0.63734E-02   -0.63731E-02   768   0.712E-02-0.115E-04
CGA:   6    -0.663638359229E+03   -0.13637E-02   -0.13638E-02   768   0.386E-02-0.600E-05
CGA:   7    -0.663638786416E+03   -0.42719E-03   -0.42692E-03   768   0.136E-02-0.188E-06
CGA:   8    -0.663638991770E+03   -0.20535E-03   -0.20533E-03   768   0.556E-03-0.151E-05
CGA:   9    -0.663639099360E+03   -0.10759E-03   -0.10754E-03   768   0.268E-03 0.195E-05
CGA:  10    -0.663639137210E+03   -0.37850E-04   -0.37840E-04   768   0.186E-03-0.415E-06
 136 F= -.67021621E+03 E0= -.67020485E+03  d E =-.252351E-02  mag=     0.8156
       N       E                     dE             d eps       ncg     rms          ort
SDA:   1    -0.663304553211E+03    0.33455E+00    0.00000E+00   768   0.851E+00 0.000E+00
CGA:   2    -0.663561467692E+03   -0.25691E+00   -0.25698E+00   768   0.335E+00-0.362E-03
CGA:   3    -0.663612180688E+03   -0.50713E-01   -0.50691E-01   768   0.186E+00-0.364E-03
CGA:   4    -0.663629689793E+03   -0.17509E-01   -0.17601E-01   768   0.424E-01-0.360E-03
CGA:   5    -0.663637213778E+03   -0.75240E-02   -0.75241E-02   768   0.845E-02-0.780E-05
CGA:   6    -0.663638726790E+03   -0.15130E-02   -0.15131E-02   768   0.490E-02-0.554E-05
CGA:   7    -0.663639257803E+03   -0.53101E-03   -0.53061E-03   768   0.161E-02 0.195E-06
CGA:   8    -0.663639511659E+03   -0.25386E-03   -0.25384E-03   768   0.589E-03-0.187E-05
CGA:   9    -0.663639631005E+03   -0.11935E-03   -0.11927E-03   768   0.344E-03 0.204E-05
CGA:  10    -0.663639673456E+03   -0.42451E-04   -0.42434E-04   768   0.186E-03-0.457E-06
 137 F= -.67021714E+03 E0= -.67020573E+03  d E =-.345099E-02  mag=     0.8137
       N       E                     dE             d eps       ncg     rms          ort
SDA:   1    -0.663403962284E+03    0.23567E+00    0.00000E+00   768   0.601E+00 0.000E+00
CGA:   2    -0.663586739913E+03   -0.18278E+00   -0.18266E+00   768   0.217E+00 0.908E-03
CGA:   3    -0.663626662217E+03   -0.39922E-01   -0.39922E-01   768   0.817E-01-0.557E-05
CGA:   4    -0.663634910353E+03   -0.82481E-02   -0.82813E-02   768   0.337E-01-0.106E-03
CGA:   5    -0.663639576856E+03   -0.46665E-02   -0.46655E-02   768   0.576E-02-0.611E-05
CGA:   6    -0.663640715672E+03   -0.11388E-02   -0.11390E-02   768   0.265E-02-0.682E-05
CGA:   7    -0.663641037500E+03   -0.32183E-03   -0.32167E-03   768   0.112E-02-0.186E-05
CGA:   8    -0.663641187760E+03   -0.15026E-03   -0.15019E-03   768   0.449E-03-0.234E-05
CGA:   9    -0.663641274648E+03   -0.86888E-04   -0.86851E-04   768   0.190E-03 0.138E-05
 138 F= -.67021906E+03 E0= -.67020767E+03  d E =-.191614E-02  mag=     0.8170
       N       E                     dE             d eps       ncg     rms          ort
SDA:   1    -0.663631489044E+03    0.96987E-02    0.00000E+00   768   0.250E-01 0.000E+00
CGA:   2    -0.663638934987E+03   -0.74459E-02   -0.74451E-02   768   0.103E-01 0.585E-05
CGA:   3    -0.663640463486E+03   -0.15285E-02   -0.15287E-02   768   0.562E-02 0.370E-05
CGA:   4    -0.663641013241E+03   -0.54975E-03   -0.54936E-03   768   0.127E-02 0.185E-05
CGA:   5    -0.663641228971E+03   -0.21573E-03   -0.21573E-03   768   0.418E-03-0.123E-05
CGA:   6    -0.663641288983E+03   -0.60012E-04   -0.60006E-04   768   0.154E-03-0.245E-06
 139 F= -.67021914E+03 E0= -.67020775E+03  d E =-.199409E-02  mag=     0.8178
       N       E                     dE             d eps       ncg     rms          ort
SDA:   1    -0.663421370137E+03    0.21986E+00    0.00000E+00   768   0.561E+00 0.000E+00
CGA:   2    -0.663591716607E+03   -0.17035E+00   -0.17039E+00   768   0.207E+00-0.341E-03
CGA:   3    -0.663627711028E+03   -0.35994E-01   -0.35995E-01   768   0.928E-01 0.183E-03
CGA:   4    -0.663636511131E+03   -0.88001E-02   -0.87608E-02   768   0.302E-01 0.179E-03
CGA:   5    -0.663641283318E+03   -0.47722E-02   -0.47723E-02   768   0.561E-02 0.466E-05
CGA:   6    -0.663642309718E+03   -0.10264E-02   -0.10264E-02   768   0.286E-02 0.273E-05
CGA:   7    -0.663642650737E+03   -0.34102E-03   -0.34100E-03   768   0.114E-02-0.194E-05
CGA:   8    -0.663642806379E+03   -0.15564E-03   -0.15565E-03   768   0.433E-03 0.385E-06
CGA:   9    -0.663642895132E+03   -0.88753E-04   -0.88769E-04   768   0.207E-03-0.426E-06
 140 F= -.67022109E+03 E0= -.67020954E+03  d E =-.195282E-02  mag=     0.8120
       N       E                     dE             d eps       ncg     rms          ort
SDA:   1    -0.663564059021E+03    0.78747E-01    0.00000E+00   768   0.200E+00 0.000E+00
CGA:   2    -0.663624851224E+03   -0.60792E-01   -0.60803E-01   768   0.709E-01-0.796E-04
CGA:   3    -0.663638769488E+03   -0.13918E-01   -0.13918E-01   768   0.170E-01 0.226E-04
CGA:   4    -0.663641774079E+03   -0.30046E-02   -0.30046E-02   768   0.585E-02 0.298E-05
CGA:   5    -0.663642564682E+03   -0.79060E-03   -0.79061E-03   768   0.154E-02 0.161E-05
CGA:   6    -0.663642862524E+03   -0.29784E-03   -0.29785E-03   768   0.720E-03-0.254E-06
CGA:   7    -0.663642934550E+03   -0.72026E-04   -0.71958E-04   768   0.300E-03-0.132E-05
 141 F= -.67022133E+03 E0= -.67020969E+03  d E =-.219456E-02  mag=     0.8087
       N       E                     dE             d eps       ncg     rms          ort
SDA:   1    -0.663472844595E+03    0.17002E+00    0.00000E+00   768   0.436E+00 0.000E+00
CGA:   2    -0.663604537613E+03   -0.13169E+00   -0.13170E+00   768   0.160E+00-0.838E-04
CGA:   3    -0.663633143223E+03   -0.28606E-01   -0.28605E-01   768   0.657E-01 0.102E-03
CGA:   4    -0.663639418326E+03   -0.62751E-02   -0.62524E-02   768   0.238E-01 0.107E-03
CGA:   5    -0.663643105505E+03   -0.36872E-02   -0.36874E-02   768   0.415E-02 0.739E-05
CGA:   6    -0.663643901780E+03   -0.79628E-03   -0.79624E-03   768   0.218E-02 0.177E-05
CGA:   7    -0.663644152449E+03   -0.25067E-03   -0.25063E-03   768   0.812E-03-0.177E-05
CGA:   8    -0.663644270533E+03   -0.11808E-03   -0.11809E-03   768   0.375E-03 0.347E-06
CGA:   9    -0.663644339589E+03   -0.69056E-04   -0.69065E-04   768   0.154E-03-0.673E-06
 142 F= -.67022304E+03 E0= -.67021138E+03  d E =-.170963E-02  mag=     0.8073
       N       E                     dE             d eps       ncg     rms          ort
SDA:   1    -0.663308948979E+03    0.33532E+00    0.00000E+00   768   0.853E+00 0.000E+00
CGA:   2    -0.663567374215E+03   -0.25843E+00   -0.25846E+00   768   0.306E+00-0.280E-03
CGA:   3    -0.663624710185E+03   -0.57336E-01   -0.57332E-01   768   0.105E+00 0.239E-03
CGA:   4    -0.663635896952E+03   -0.11187E-01   -0.11156E-01   768   0.480E-01 0.903E-04
CGA:   5    -0.663642243567E+03   -0.63466E-02   -0.63491E-02   768   0.855E-02 0.165E-04
CGA:   6    -0.663643817621E+03   -0.15741E-02   -0.15740E-02   768   0.396E-02 0.477E-05
CGA:   7    -0.663644336858E+03   -0.51924E-03   -0.51919E-03   768   0.159E-02-0.236E-05
CGA:   8    -0.663644541432E+03   -0.20457E-03   -0.20457E-03   768   0.740E-03 0.462E-06
CGA:   9    -0.663644677892E+03   -0.13646E-03   -0.13647E-03   768   0.276E-03-0.874E-06
CGA:  10    -0.663644728419E+03   -0.50527E-04   -0.50506E-04   768   0.248E-03 0.147E-05
 143 F= -.67022384E+03 E0= -.67021219E+03  d E =-.250899E-02  mag=     0.8071
       N       E                     dE             d eps       ncg     rms          ort
SDA:   1    -0.663490639942E+03    0.15404E+00    0.00000E+00   768   0.393E+00 0.000E+00
CGA:   2    -0.663609980747E+03   -0.11934E+00   -0.11927E+00   768   0.143E+00 0.522E-03
CGA:   3    -0.663635918282E+03   -0.25938E-01   -0.25937E-01   768   0.573E-01 0.307E-04
CGA:   4    -0.663641531753E+03   -0.56135E-02   -0.55966E-02   768   0.214E-01 0.644E-04
CGA:   5    -0.663644648268E+03   -0.31165E-02   -0.31168E-02   768   0.415E-02 0.443E-05
CGA:   6    -0.663645385048E+03   -0.73678E-03   -0.73678E-03   768   0.185E-02 0.139E-06
CGA:   7    -0.663645632568E+03   -0.24752E-03   -0.24743E-03   768   0.836E-03-0.322E-05
CGA:   8    -0.663645734482E+03   -0.10191E-03   -0.10189E-03   768   0.306E-03-0.364E-06
CGA:   9    -0.663645799082E+03   -0.64600E-04   -0.64638E-04   768   0.136E-03-0.868E-06
 144 F= -.67022519E+03 E0= -.67021365E+03  d E =-.134695E-02  mag=     0.8111
