  71  71   0   0
  0.4016003E+02  0.1490068E-08  0.1479956E-08  0.1500000E-08  0.3000000E-15
  1.000000000000000E-004
  CAR 
 unknown system                          
      5.29249034    -48.68241651  301     -2.22064709      1.00000000
    -48.682  0.0000E+00  0.0000E+00  0.0000E+00  0.0000E+00
    -48.503  0.0000E+00  0.0000E+00  0.0000E+00  0.0000E+00
    -48.323  0.0000E+00  0.0000E+00  0.0000E+00  0.0000E+00
    -48.143  0.0000E+00  0.0000E+00  0.0000E+00  0.0000E+00
    -47.963  0.0000E+00  0.0000E+00  0.0000E+00  0.0000E+00
    -47.783  0.0000E+00  0.0000E+00  0.0000E+00  0.0000E+00
    -47.603  0.0000E+00  0.0000E+00  0.0000E+00  0.0000E+00
    -47.423  0.0000E+00  0.0000E+00  0.0000E+00  0.0000E+00
    -47.243  0.0000E+00  0.0000E+00  0.0000E+00  0.0000E+00
    -47.063  0.0000E+00  0.0000E+00  0.0000E+00  0.0000E+00
    -46.883  0.0000E+00  0.0000E+00  0.0000E+00  0.0000E+00
    -46.703  0.1369E-12  0.0000E+00  0.2464E-13  0.0000E+00
    -46.523  0.2175E-06  0.0000E+00  0.3913E-07  0.0000E+00
    -46.344  0.7319E-03  0.0000E+00  0.1317E-03  0.0000E+00
    -46.164  0.1100E-01  0.0000E+00  0.2111E-02  0.0000E+00
    -45.984  0.1282E-01  0.0000E+00  0.4417E-02  0.0000E+00
    -45.804  0.1507E-01  0.0000E+00  0.7128E-02  0.0000E+00
    -45.624  0.2065E-02  0.0000E+00  0.7500E-02  0.0000E+00
    -45.444  0.2291E-05  0.0000E+00  0.7500E-02  0.0000E+00
    -45.264  0.5910E-11  0.0000E+00  0.7500E-02  0.0000E+00
    -45.084  0.0000E+00  0.0000E+00  0.7500E-02  0.0000E+00
    -44.904  0.0000E+00  0.0000E+00  0.7500E-02  0.0000E+00
    -44.724  0.0000E+00  0.0000E+00  0.7500E-02  0.0000E+00
    -44.544  0.0000E+00  0.0000E+00  0.7500E-02  0.0000E+00
    -44.364  0.0000E+00  0.0000E+00  0.7500E-02  0.0000E+00
    -44.185  0.0000E+00  0.0000E+00  0.7500E-02  0.0000E+00
    -44.005  0.0000E+00  0.1492E-10  0.7500E-02  0.2685E-11
    -43.825  0.0000E+00  0.4014E-05  0.7500E-02  0.7223E-06
    -43.645  0.0000E+00  0.2563E-02  0.7500E-02  0.4619E-03
    -43.465  0.0000E+00  0.1134E-01  0.7500E-02  0.2502E-02
    -43.285  0.0000E+00  0.1135E-01  0.7500E-02  0.4544E-02
    -43.105  0.0000E+00  0.5844E-02  0.7500E-02  0.5595E-02
    -42.925  0.0000E+00  0.1012E-01  0.7500E-02  0.7416E-02
    -42.745  0.0000E+00  0.4644E-03  0.7500E-02  0.7500E-02
    -42.565  0.0000E+00  0.8356E-07  0.7500E-02  0.7500E-02
    -42.385  0.0000E+00  0.3105E-13  0.7500E-02  0.7500E-02
    -42.205  0.0000E+00  0.0000E+00  0.7500E-02  0.7500E-02
    -42.026  0.0000E+00  0.0000E+00  0.7500E-02  0.7500E-02
    -41.846  0.0000E+00  0.0000E+00  0.7500E-02  0.7500E-02
    -41.666  0.0000E+00  0.0000E+00  0.7500E-02  0.7500E-02
    -41.486  0.0000E+00  0.0000E+00  0.7500E-02  0.7500E-02
    -41.306  0.0000E+00  0.0000E+00  0.7500E-02  0.7500E-02
    -41.126  0.0000E+00  0.0000E+00  0.7500E-02  0.7500E-02
    -40.946  0.0000E+00  0.0000E+00  0.7500E-02  0.7500E-02
    -40.766  0.0000E+00  0.0000E+00  0.7500E-02  0.7500E-02
    -40.586  0.0000E+00  0.0000E+00  0.7500E-02  0.7500E-02
    -40.406  0.0000E+00  0.0000E+00  0.7500E-02  0.7500E-02
    -40.226  0.0000E+00  0.0000E+00  0.7500E-02  0.7500E-02
    -40.046  0.0000E+00  0.0000E+00  0.7500E-02  0.7500E-02
    -39.867  0.0000E+00  0.0000E+00  0.7500E-02  0.7500E-02
    -39.687  0.0000E+00  0.0000E+00  0.7500E-02  0.7500E-02
    -39.507  0.0000E+00  0.0000E+00  0.7500E-02  0.7500E-02
    -39.327  0.0000E+00  0.0000E+00  0.7500E-02  0.7500E-02
    -39.147  0.0000E+00  0.0000E+00  0.7500E-02  0.7500E-02
    -38.967  0.0000E+00  0.0000E+00  0.7500E-02  0.7500E-02
    -38.787  0.0000E+00  0.0000E+00  0.7500E-02  0.7500E-02
    -38.607  0.0000E+00  0.0000E+00  0.7500E-02  0.7500E-02
    -38.427  0.0000E+00  0.0000E+00  0.7500E-02  0.7500E-02
    -38.247  0.0000E+00  0.0000E+00  0.7500E-02  0.7500E-02
    -38.067  0.0000E+00  0.0000E+00  0.7500E-02  0.7500E-02
    -37.887  0.0000E+00  0.0000E+00  0.7500E-02  0.7500E-02
    -37.708  0.0000E+00  0.0000E+00  0.7500E-02  0.7500E-02
    -37.528  0.0000E+00  0.0000E+00  0.7500E-02  0.7500E-02
    -37.348  0.0000E+00  0.0000E+00  0.7500E-02  0.7500E-02
    -37.168  0.0000E+00  0.0000E+00  0.7500E-02  0.7500E-02
    -36.988  0.0000E+00  0.0000E+00  0.7500E-02  0.7500E-02
    -36.808  0.0000E+00  0.0000E+00  0.7500E-02  0.7500E-02
    -36.628  0.0000E+00  0.0000E+00  0.7500E-02  0.7500E-02
    -36.448  0.0000E+00  0.0000E+00  0.7500E-02  0.7500E-02
    -36.268  0.0000E+00  0.0000E+00  0.7500E-02  0.7500E-02
    -36.088  0.0000E+00  0.0000E+00  0.7500E-02  0.7500E-02
    -35.908  0.0000E+00  0.0000E+00  0.7500E-02  0.7500E-02
    -35.728  0.0000E+00  0.0000E+00  0.7500E-02  0.7500E-02
    -35.549  0.0000E+00  0.0000E+00  0.7500E-02  0.7500E-02
    -35.369  0.0000E+00  0.0000E+00  0.7500E-02  0.7500E-02
    -35.189  0.0000E+00  0.0000E+00  0.7500E-02  0.7500E-02
    -35.009  0.0000E+00  0.0000E+00  0.7500E-02  0.7500E-02
    -34.829  0.0000E+00  0.0000E+00  0.7500E-02  0.7500E-02
    -34.649  0.0000E+00  0.0000E+00  0.7500E-02  0.7500E-02
    -34.469  0.0000E+00  0.0000E+00  0.7500E-02  0.7500E-02
    -34.289  0.0000E+00  0.0000E+00  0.7500E-02  0.7500E-02
    -34.109  0.0000E+00  0.0000E+00  0.7500E-02  0.7500E-02
    -33.929  0.0000E+00  0.0000E+00  0.7500E-02  0.7500E-02
    -33.749  0.0000E+00  0.0000E+00  0.7500E-02  0.7500E-02
    -33.569  0.0000E+00  0.0000E+00  0.7500E-02  0.7500E-02
    -33.390  0.0000E+00  0.0000E+00  0.7500E-02  0.7500E-02
    -33.210  0.0000E+00  0.0000E+00  0.7500E-02  0.7500E-02
    -33.030  0.0000E+00  0.0000E+00  0.7500E-02  0.7500E-02
    -32.850  0.0000E+00  0.0000E+00  0.7500E-02  0.7500E-02
    -32.670  0.0000E+00  0.0000E+00  0.7500E-02  0.7500E-02
    -32.490  0.0000E+00  0.0000E+00  0.7500E-02  0.7500E-02
    -32.310  0.0000E+00  0.0000E+00  0.7500E-02  0.7500E-02
    -32.130  0.0000E+00  0.0000E+00  0.7500E-02  0.7500E-02
    -31.950  0.0000E+00  0.0000E+00  0.7500E-02  0.7500E-02
    -31.770  0.0000E+00  0.0000E+00  0.7500E-02  0.7500E-02
    -31.590  0.0000E+00  0.0000E+00  0.7500E-02  0.7500E-02
    -31.410  0.0000E+00  0.0000E+00  0.7500E-02  0.7500E-02
    -31.231  0.0000E+00  0.0000E+00  0.7500E-02  0.7500E-02
    -31.051  0.0000E+00  0.0000E+00  0.7500E-02  0.7500E-02
    -30.871  0.0000E+00  0.0000E+00  0.7500E-02  0.7500E-02
    -30.691  0.0000E+00  0.0000E+00  0.7500E-02  0.7500E-02
    -30.511  0.0000E+00  0.0000E+00  0.7500E-02  0.7500E-02
    -30.331  0.0000E+00  0.0000E+00  0.7500E-02  0.7500E-02
    -30.151  0.0000E+00  0.0000E+00  0.7500E-02  0.7500E-02
    -29.971  0.0000E+00  0.0000E+00  0.7500E-02  0.7500E-02
    -29.791  0.0000E+00  0.0000E+00  0.7500E-02  0.7500E-02
    -29.611  0.0000E+00  0.0000E+00  0.7500E-02  0.7500E-02
    -29.431  0.0000E+00  0.0000E+00  0.7500E-02  0.7500E-02
    -29.251  0.0000E+00  0.0000E+00  0.7500E-02  0.7500E-02
    -29.072  0.0000E+00  0.0000E+00  0.7500E-02  0.7500E-02
    -28.892  0.0000E+00  0.0000E+00  0.7500E-02  0.7500E-02
    -28.712  0.0000E+00  0.0000E+00  0.7500E-02  0.7500E-02
    -28.532  0.0000E+00  0.0000E+00  0.7500E-02  0.7500E-02
    -28.352  0.0000E+00  0.0000E+00  0.7500E-02  0.7500E-02
    -28.172  0.0000E+00  0.0000E+00  0.7500E-02  0.7500E-02
    -27.992  0.0000E+00  0.0000E+00  0.7500E-02  0.7500E-02
    -27.812  0.0000E+00  0.0000E+00  0.7500E-02  0.7500E-02
    -27.632  0.0000E+00  0.0000E+00  0.7500E-02  0.7500E-02
    -27.452  0.0000E+00  0.0000E+00  0.7500E-02  0.7500E-02
    -27.272  0.0000E+00  0.0000E+00  0.7500E-02  0.7500E-02
    -27.092  0.0000E+00  0.0000E+00  0.7500E-02  0.7500E-02
    -26.913  0.0000E+00  0.0000E+00  0.7500E-02  0.7500E-02
    -26.733  0.0000E+00  0.0000E+00  0.7500E-02  0.7500E-02
    -26.553  0.0000E+00  0.0000E+00  0.7500E-02  0.7500E-02
    -26.373  0.0000E+00  0.0000E+00  0.7500E-02  0.7500E-02
    -26.193  0.0000E+00  0.0000E+00  0.7500E-02  0.7500E-02
    -26.013  0.0000E+00  0.0000E+00  0.7500E-02  0.7500E-02
    -25.833  0.0000E+00  0.0000E+00  0.7500E-02  0.7500E-02
    -25.653  0.0000E+00  0.0000E+00  0.7500E-02  0.7500E-02
    -25.473  0.0000E+00  0.0000E+00  0.7500E-02  0.7500E-02
    -25.293  0.0000E+00  0.0000E+00  0.7500E-02  0.7500E-02
    -25.113  0.0000E+00  0.0000E+00  0.7500E-02  0.7500E-02
    -24.933  0.0000E+00  0.0000E+00  0.7500E-02  0.7500E-02
    -24.754  0.0000E+00  0.0000E+00  0.7500E-02  0.7500E-02
    -24.574  0.0000E+00  0.0000E+00  0.7500E-02  0.7500E-02
    -24.394  0.0000E+00  0.0000E+00  0.7500E-02  0.7500E-02
    -24.214  0.0000E+00  0.0000E+00  0.7500E-02  0.7500E-02
    -24.034  0.0000E+00  0.0000E+00  0.7500E-02  0.7500E-02
    -23.854  0.0000E+00  0.0000E+00  0.7500E-02  0.7500E-02
    -23.674  0.0000E+00  0.0000E+00  0.7500E-02  0.7500E-02
    -23.494  0.0000E+00  0.0000E+00  0.7500E-02  0.7500E-02
    -23.314  0.0000E+00  0.0000E+00  0.7500E-02  0.7500E-02
    -23.134  0.9642E-18  0.7713E-18  0.7500E-02  0.7500E-02
    -22.954  0.8341E-10  0.5192E-10  0.7500E-02  0.7500E-02
    -22.774  0.1114E-04  0.8434E-05  0.7502E-02  0.7502E-02
    -22.595  0.3749E-02  0.3392E-02  0.8177E-02  0.8112E-02
    -22.415  0.9766E-02  0.1005E-01  0.9934E-02  0.9920E-02
    -22.235  0.3695E-03  0.4436E-03  0.1000E-01  0.1000E-01
    -22.055  0.5241E-07  0.7609E-07  0.1000E-01  0.1000E-01
    -21.875  0.6658E-07  0.5837E-07  0.1000E-01  0.1000E-01
    -21.695  0.2814E-03  0.2638E-03  0.1005E-01  0.1005E-01
    -21.515  0.8625E-02  0.8470E-02  0.1160E-01  0.1157E-01
    -21.335  0.1282E-01  0.1290E-01  0.1391E-01  0.1389E-01
    -21.155  0.8255E-02  0.8218E-02  0.1539E-01  0.1537E-01
    -20.975  0.1711E-01  0.1714E-01  0.1847E-01  0.1845E-01
    -20.795  0.1200E-01  0.1203E-01  0.2063E-01  0.2062E-01
    -20.615  0.6598E-02  0.6538E-02  0.2182E-01  0.2179E-01
    -20.436  0.2027E-01  0.2030E-01  0.2547E-01  0.2545E-01
    -20.256  0.1548E-01  0.1550E-01  0.2825E-01  0.2823E-01
    -20.076  0.9938E-02  0.9962E-02  0.3004E-01  0.3003E-01
    -19.896  0.6573E-02  0.6643E-02  0.3122E-01  0.3122E-01
    -19.716  0.1587E-01  0.1572E-01  0.3408E-01  0.3405E-01
    -19.536  0.2326E-01  0.2323E-01  0.3826E-01  0.3823E-01
    -19.356  0.1233E-01  0.1249E-01  0.4048E-01  0.4047E-01
    -19.176  0.1032E-01  0.1025E-01  0.4234E-01  0.4232E-01
    -18.996  0.1091E-01  0.1107E-01  0.4430E-01  0.4431E-01
    -18.816  0.9638E-02  0.9654E-02  0.4603E-01  0.4605E-01
    -18.636  0.1494E-01  0.1466E-01  0.4872E-01  0.4869E-01
    -18.456  0.2353E-01  0.2358E-01  0.5295E-01  0.5293E-01
    -18.277  0.1734E-01  0.1735E-01  0.5608E-01  0.5605E-01
    -18.097  0.1203E-01  0.1233E-01  0.5824E-01  0.5827E-01
    -17.917  0.1061E-01  0.1047E-01  0.6015E-01  0.6015E-01
    -17.737  0.6148E-02  0.6185E-02  0.6125E-01  0.6126E-01
    -17.557  0.1530E-01  0.1511E-01  0.6401E-01  0.6398E-01
    -17.377  0.1495E-01  0.1508E-01  0.6670E-01  0.6670E-01
    -17.197  0.2772E-01  0.2756E-01  0.7168E-01  0.7165E-01
    -17.017  0.1653E-01  0.1672E-01  0.7466E-01  0.7466E-01
    -16.837  0.1538E-01  0.1536E-01  0.7742E-01  0.7743E-01
    -16.657  0.1554E-01  0.1548E-01  0.8022E-01  0.8021E-01
    -16.477  0.9888E-02  0.1007E-01  0.8200E-01  0.8202E-01
    -16.297  0.8365E-02  0.8263E-02  0.8350E-01  0.8351E-01
    -16.118  0.1492E-01  0.1498E-01  0.8619E-01  0.8621E-01
    -15.938  0.2326E-01  0.2313E-01  0.9037E-01  0.9037E-01
    -15.758  0.1064E-01  0.1098E-01  0.9229E-01  0.9234E-01
    -15.578  0.6990E-02  0.7024E-02  0.9355E-01  0.9361E-01
    -15.398  0.6150E-02  0.5784E-02  0.9465E-01  0.9465E-01
    -15.218  0.7158E-02  0.7292E-02  0.9594E-01  0.9596E-01
    -15.038  0.1407E-01  0.1394E-01  0.9847E-01  0.9847E-01
    -14.858  0.1709E-01  0.1702E-01  0.1015E+00  0.1015E+00
    -14.678  0.2227E-01  0.2239E-01  0.1056E+00  0.1056E+00
    -14.498  0.1518E-01  0.1531E-01  0.1083E+00  0.1083E+00
    -14.318  0.1296E-01  0.1280E-01  0.1106E+00  0.1106E+00
    -14.138  0.1538E-01  0.1527E-01  0.1134E+00  0.1134E+00
    -13.959  0.1821E-01  0.1835E-01  0.1167E+00  0.1167E+00
    -13.779  0.1593E-01  0.1600E-01  0.1195E+00  0.1195E+00
    -13.599  0.1495E-01  0.1492E-01  0.1222E+00  0.1222E+00
    -13.419  0.1942E-01  0.1948E-01  0.1257E+00  0.1257E+00
    -13.239  0.8155E-02  0.8101E-02  0.1272E+00  0.1272E+00
    -13.059  0.1092E-01  0.1077E-01  0.1291E+00  0.1291E+00
    -12.879  0.8866E-02  0.8962E-02  0.1307E+00  0.1307E+00
    -12.699  0.2338E-01  0.2345E-01  0.1349E+00  0.1350E+00
    -12.519  0.1592E-01  0.1602E-01  0.1378E+00  0.1378E+00
    -12.339  0.5680E-02  0.5523E-02  0.1388E+00  0.1388E+00
    -12.159  0.9552E-02  0.9292E-02  0.1406E+00  0.1405E+00
    -11.979  0.1294E-01  0.1303E-01  0.1429E+00  0.1429E+00
    -11.800  0.2599E-01  0.2595E-01  0.1476E+00  0.1475E+00
    -11.620  0.3353E-01  0.3377E-01  0.1536E+00  0.1536E+00
    -11.440  0.1706E-01  0.1710E-01  0.1567E+00  0.1567E+00
    -11.260  0.3882E-02  0.3720E-02  0.1574E+00  0.1573E+00
    -11.080  0.1458E-01  0.1455E-01  0.1600E+00  0.1600E+00
    -10.900  0.1309E-01  0.1304E-01  0.1623E+00  0.1623E+00
    -10.720  0.1796E-01  0.1780E-01  0.1656E+00  0.1655E+00
    -10.540  0.1740E-01  0.1760E-01  0.1687E+00  0.1687E+00
    -10.360  0.2192E-01  0.2187E-01  0.1726E+00  0.1726E+00
    -10.180  0.2463E-01  0.2473E-01  0.1771E+00  0.1771E+00
    -10.000  0.1881E-01  0.1876E-01  0.1805E+00  0.1804E+00
     -9.820  0.2681E-01  0.2595E-01  0.1853E+00  0.1851E+00
     -9.641  0.3140E-01  0.3156E-01  0.1909E+00  0.1908E+00
     -9.461  0.2692E-01  0.2716E-01  0.1958E+00  0.1957E+00
     -9.281  0.2543E-01  0.2489E-01  0.2003E+00  0.2001E+00
     -9.101  0.3754E-01  0.3757E-01  0.2071E+00  0.2069E+00
     -8.921  0.4098E-01  0.4149E-01  0.2145E+00  0.2144E+00
     -8.741  0.3321E-01  0.3276E-01  0.2204E+00  0.2203E+00
     -8.561  0.4830E-01  0.4832E-01  0.2291E+00  0.2290E+00
     -8.381  0.5262E-01  0.5208E-01  0.2386E+00  0.2383E+00
     -8.201  0.3618E-01  0.3678E-01  0.2451E+00  0.2449E+00
     -8.021  0.3410E-01  0.3377E-01  0.2512E+00  0.2510E+00
     -7.841  0.2506E-01  0.2469E-01  0.2558E+00  0.2555E+00
     -7.661  0.2181E-01  0.2193E-01  0.2597E+00  0.2594E+00
     -7.482  0.2926E-01  0.2935E-01  0.2649E+00  0.2647E+00
     -7.302  0.4159E-01  0.4036E-01  0.2724E+00  0.2720E+00
     -7.122  0.4324E-01  0.4287E-01  0.2802E+00  0.2797E+00
     -6.942  0.2685E-01  0.2804E-01  0.2850E+00  0.2847E+00
     -6.762  0.1969E-01  0.1833E-01  0.2886E+00  0.2880E+00
     -6.582  0.1287E-01  0.1409E-01  0.2909E+00  0.2905E+00
     -6.402  0.2029E-01  0.1823E-01  0.2945E+00  0.2938E+00
     -6.222  0.3979E-01  0.4005E-01  0.3017E+00  0.3010E+00
     -6.042  0.3572E-01  0.3679E-01  0.3081E+00  0.3076E+00
     -5.862  0.2871E-01  0.2715E-01  0.3133E+00  0.3125E+00
     -5.682  0.2222E-01  0.2277E-01  0.3173E+00  0.3166E+00
     -5.502  0.1570E-01  0.1784E-01  0.3201E+00  0.3198E+00
     -5.323  0.1919E-01  0.1491E-01  0.3236E+00  0.3225E+00
     -5.143  0.1261E-01  0.1343E-01  0.3258E+00  0.3249E+00
     -4.963  0.2188E-01  0.1706E-01  0.3298E+00  0.3280E+00
     -4.783  0.4316E-01  0.4347E-01  0.3375E+00  0.3358E+00
     -4.603  0.3197E-01  0.3406E-01  0.3433E+00  0.3420E+00
     -4.423  0.1399E-01  0.1467E-01  0.3458E+00  0.3446E+00
     -4.243  0.1482E-01  0.1123E-01  0.3485E+00  0.3466E+00
     -4.063  0.1411E-01  0.1166E-01  0.3510E+00  0.3487E+00
     -3.883  0.1536E-01  0.1367E-01  0.3538E+00  0.3512E+00
     -3.703  0.1113E-01  0.1849E-01  0.3558E+00  0.3545E+00
     -3.523  0.1555E-01  0.1798E-01  0.3586E+00  0.3577E+00
     -3.343  0.1508E-01  0.9120E-02  0.3613E+00  0.3594E+00
     -3.164  0.1296E-01  0.6345E-02  0.3636E+00  0.3605E+00
     -2.984  0.4512E-02  0.4706E-02  0.3644E+00  0.3614E+00
     -2.804  0.9945E-02  0.2687E-02  0.3662E+00  0.3618E+00
     -2.624  0.4143E-02  0.1617E-03  0.3670E+00  0.3619E+00
     -2.444  0.3713E-02  0.2020E-04  0.3676E+00  0.3619E+00
     -2.264  0.9991E-02  0.2481E-02  0.3694E+00  0.3623E+00
     -2.084  0.6279E-02  0.7811E-02  0.3706E+00  0.3637E+00
     -1.904  0.3631E-02  0.9091E-02  0.3712E+00  0.3654E+00
     -1.724  0.1027E-01  0.1437E-02  0.3731E+00  0.3656E+00
     -1.544  0.9982E-02  0.2594E-04  0.3749E+00  0.3656E+00
     -1.364  0.4203E-02  0.1813E-02  0.3756E+00  0.3660E+00
     -1.184  0.2270E-02  0.2599E-02  0.3760E+00  0.3664E+00
     -1.005  0.5732E-02  0.1133E-01  0.3771E+00  0.3685E+00
     -0.825  0.2158E-01  0.2475E-01  0.3809E+00  0.3729E+00
     -0.645  0.1946E-01  0.2269E-01  0.3844E+00  0.3770E+00
     -0.465  0.1014E-01  0.1886E-01  0.3863E+00  0.3804E+00
     -0.285  0.2196E-01  0.2728E-01  0.3902E+00  0.3853E+00
     -0.105  0.1319E-01  0.2196E-01  0.3926E+00  0.3892E+00
      0.075  0.9329E-02  0.1583E-01  0.3943E+00  0.3921E+00
      0.255  0.2713E-01  0.2135E-01  0.3992E+00  0.3959E+00
      0.435  0.1857E-01  0.3289E-01  0.4025E+00  0.4019E+00
      0.615  0.1426E-01  0.1369E-01  0.4051E+00  0.4043E+00
      0.795  0.1286E-01  0.6381E-02  0.4074E+00  0.4055E+00
      0.974  0.1495E-01  0.9968E-02  0.4101E+00  0.4073E+00
      1.154  0.9477E-02  0.2035E-01  0.4118E+00  0.4109E+00
      1.334  0.2166E-01  0.1586E-01  0.4157E+00  0.4138E+00
      1.514  0.1921E-01  0.1875E-01  0.4191E+00  0.4171E+00
      1.694  0.2624E-01  0.2110E-01  0.4238E+00  0.4209E+00
      1.874  0.3006E-01  0.2814E-01  0.4293E+00  0.4260E+00
      2.054  0.3092E-01  0.3206E-01  0.4348E+00  0.4318E+00
      2.234  0.2628E-01  0.3032E-01  0.4395E+00  0.4372E+00
      2.414  0.2100E-01  0.1583E-01  0.4433E+00  0.4401E+00
      2.594  0.4376E-01  0.3924E-01  0.4512E+00  0.4471E+00
      2.774  0.4177E-01  0.5080E-01  0.4587E+00  0.4563E+00
      2.954  0.7107E-02  0.2016E-01  0.4600E+00  0.4599E+00
      3.133  0.6926E-04  0.5189E-03  0.4600E+00  0.4600E+00
      3.313  0.3145E-08  0.8950E-07  0.4600E+00  0.4600E+00
      3.493  0.3278E-15  0.4386E-13  0.4600E+00  0.4600E+00
      3.673  0.0000E+00  0.0000E+00  0.4600E+00  0.4600E+00
      3.853  0.0000E+00  0.0000E+00  0.4600E+00  0.4600E+00
      4.033  0.0000E+00  0.0000E+00  0.4600E+00  0.4600E+00
      4.213  0.0000E+00  0.0000E+00  0.4600E+00  0.4600E+00
      4.393  0.0000E+00  0.0000E+00  0.4600E+00  0.4600E+00
      4.573  0.0000E+00  0.0000E+00  0.4600E+00  0.4600E+00
      4.753  0.0000E+00  0.0000E+00  0.4600E+00  0.4600E+00
      4.933  0.0000E+00  0.0000E+00  0.4600E+00  0.4600E+00
      5.113  0.0000E+00  0.0000E+00  0.4600E+00  0.4600E+00
      5.292  0.0000E+00  0.0000E+00  0.4600E+00  0.4600E+00
