 vasp.5.4.4.18Apr17-6-g9f103f2a35 (build Jan 14 2022 15:04:31) complex          
  
 executed on             LinuxIFC date 2023.01.23  17:52:24
 running on   48 total cores
 distrk:  each k-point on   48 cores,    1 groups
 distr:  one band on NCORES_PER_BAND=  12 cores,    4 groups


--------------------------------------------------------------------------------------------------------


 INCAR:
 POTCAR:    PAW_PBE C 08Apr2002                   
 POTCAR:    PAW_PBE N 08Apr2002                   
 POTCAR:    PAW_PBE C 08Apr2002                   
 POTCAR:    PAW_PBE Cr_pv 02Aug2007               
 POTCAR:    PAW_PBE C 08Apr2002                   
   SHA256 =  253f7b50bb8d59471dbedb8285d89021f4a42ed1a2c5d38a03a736e69125dd95 C/
   COPYR  = (c) Copyright 08Apr2002 Georg Kresse                                
   COPYR  = This file is part of the software VASP. Any use, copying, and all ot
   COPYR  = If you do not have a valid VASP license, you may not use, copy or di
   VRHFIN =C: s2p2                                                              
   LEXCH  = PE                                                                  
   EATOM  =   147.1560 eV,   10.8157 Ry                                         
                                                                                
   TITEL  = PAW_PBE C 08Apr2002                                                 
   LULTRA =        F    use ultrasoft PP ?                                      
   IUNSCR =        1    unscreen: 0-lin 1-nonlin 2-no                           
   RPACOR =    1.200    partial core radius                                     
   POMASS =   12.011; ZVAL   =    4.000    mass and valenz                      
   RCORE  =    1.500    outmost cutoff radius                                   
   RWIGS  =    1.630; RWIGS  =    0.863    wigner-seitz radius (au A)           
   ENMAX  =  400.000; ENMIN  =  300.000 eV                                      
   ICORE  =        2    local potential                                         
   LCOR   =        T    correct aug charges                                     
   LPAW   =        T    paw PP                                                  
   EAUG   =  644.873                                                            
   DEXC   =    0.000                                                            
   RMAX   =    1.529    core radius for proj-oper                               
   RAUG   =    1.300    factor for augmentation sphere                          
   RDEP   =    1.501    radius for radial grids                                 
   RDEPT  =    1.300    core radius for aug-charge                              
                                                                                
   Atomic configuration                                                         
    4 entries                                                                   
     n  l   j            E        occ.                                          
     1  0  0.50      -273.3789   2.0000                                         
     2  0  0.50       -13.7508   2.0000                                         
     2  1  0.50        -5.2854   2.0000                                         
     3  2  1.50        -5.4423   0.0000                                         
   Description                                                                  
     l       E           TYP  RCUT    TYP  RCUT                                 
     0    -13.7508458     23  1.200                                             
     0     -8.2022199     23  1.200                                             
     1     -5.2854383     23  1.500                                             
     1     34.0145650     23  1.500                                             
     2     -5.4423304      7  1.500                                             
  local pseudopotential read in
  partial core-charges read in
  partial kinetic energy density read in
  atomic valenz-charges read in
  non local Contribution for L=           0  read in
    real space projection operators read in
  non local Contribution for L=           0  read in
    real space projection operators read in
  non local Contribution for L=           1  read in
    real space projection operators read in
  non local Contribution for L=           1  read in
    real space projection operators read in
    PAW grid and wavefunctions read in
 
   number of l-projection  operators is LMAX  =           4
   number of lm-projection operators is LMMAX =           8
 
 POTCAR:    PAW_PBE N 08Apr2002                   
   SHA256 =  e053789ff3a61a86a1b75d8a110fcc91f86041011e7b0817c7c99e4e8a6349d7 N/
   COPYR  = (c) Copyright 08Apr2002 Georg Kresse                                
   COPYR  = This file is part of the software VASP. Any use, copying, and all ot
   COPYR  = If you do not have a valid VASP license, you may not use, copy or di
   VRHFIN =N: s2p3                                                              
   LEXCH  = PE                                                                  
   EATOM  =   264.5486 eV,   19.4438 Ry                                         
                                                                                
   TITEL  = PAW_PBE N 08Apr2002                                                 
   LULTRA =        F    use ultrasoft PP ?                                      
   IUNSCR =        1    unscreen: 0-lin 1-nonlin 2-no                           
   RPACOR =    1.200    partial core radius                                     
   POMASS =   14.001; ZVAL   =    5.000    mass and valenz                      
   RCORE  =    1.500    outmost cutoff radius                                   
   RWIGS  =    1.400; RWIGS  =    0.741    wigner-seitz radius (au A)           
   ENMAX  =  400.000; ENMIN  =  300.000 eV                                      
   ICORE  =        2    local potential                                         
   LCOR   =        T    correct aug charges                                     
   LPAW   =        T    paw PP                                                  
   EAUG   =  627.112                                                            
   DEXC   =    0.000                                                            
   RMAX   =    1.529    core radius for proj-oper                               
   RAUG   =    1.300    factor for augmentation sphere                          
   RDEP   =    1.514    radius for radial grids                                 
   RDEPT  =    1.338    core radius for aug-charge                              
                                                                                
   Atomic configuration                                                         
    4 entries                                                                   
     n  l   j            E        occ.                                          
     1  0  0.50      -384.7179   2.0000                                         
     2  0  0.50       -18.5828   2.0000                                         
     2  1  0.50        -7.0898   3.0000                                         
     3  2  1.50        -6.8029   0.0000                                         
   Description                                                                  
     l       E           TYP  RCUT    TYP  RCUT                                 
     0    -18.5828119     23  1.200                                             
     0    -13.5018863     23  1.200                                             
     1     -7.0897853     23  1.500                                             
     1      9.5240782     23  1.500                                             
     2     -6.8029130      7  1.500                                             
  local pseudopotential read in
  partial core-charges read in
  partial kinetic energy density read in
  atomic valenz-charges read in
  non local Contribution for L=           0  read in
    real space projection operators read in
  non local Contribution for L=           0  read in
    real space projection operators read in
  non local Contribution for L=           1  read in
    real space projection operators read in
  non local Contribution for L=           1  read in
    real space projection operators read in
    PAW grid and wavefunctions read in
 
   number of l-projection  operators is LMAX  =           4
   number of lm-projection operators is LMMAX =           8
 
 POTCAR:    PAW_PBE C 08Apr2002                   
   SHA256 =  253f7b50bb8d59471dbedb8285d89021f4a42ed1a2c5d38a03a736e69125dd95 C/
   COPYR  = (c) Copyright 08Apr2002 Georg Kresse                                
   COPYR  = This file is part of the software VASP. Any use, copying, and all ot
   COPYR  = If you do not have a valid VASP license, you may not use, copy or di
   VRHFIN =C: s2p2                                                              
   LEXCH  = PE                                                                  
   EATOM  =   147.1560 eV,   10.8157 Ry                                         
                                                                                
   TITEL  = PAW_PBE C 08Apr2002                                                 
   LULTRA =        F    use ultrasoft PP ?                                      
   IUNSCR =        1    unscreen: 0-lin 1-nonlin 2-no                           
   RPACOR =    1.200    partial core radius                                     
   POMASS =   12.011; ZVAL   =    4.000    mass and valenz                      
   RCORE  =    1.500    outmost cutoff radius                                   
   RWIGS  =    1.630; RWIGS  =    0.863    wigner-seitz radius (au A)           
   ENMAX  =  400.000; ENMIN  =  300.000 eV                                      
   ICORE  =        2    local potential                                         
   LCOR   =        T    correct aug charges                                     
   LPAW   =        T    paw PP                                                  
   EAUG   =  644.873                                                            
   DEXC   =    0.000                                                            
   RMAX   =    1.529    core radius for proj-oper                               
   RAUG   =    1.300    factor for augmentation sphere                          
   RDEP   =    1.501    radius for radial grids                                 
   RDEPT  =    1.300    core radius for aug-charge                              
                                                                                
   Atomic configuration                                                         
    4 entries                                                                   
     n  l   j            E        occ.                                          
     1  0  0.50      -273.3789   2.0000                                         
     2  0  0.50       -13.7508   2.0000                                         
     2  1  0.50        -5.2854   2.0000                                         
     3  2  1.50        -5.4423   0.0000                                         
   Description                                                                  
     l       E           TYP  RCUT    TYP  RCUT                                 
     0    -13.7508458     23  1.200                                             
     0     -8.2022199     23  1.200                                             
     1     -5.2854383     23  1.500                                             
     1     34.0145650     23  1.500                                             
     2     -5.4423304      7  1.500                                             
  local pseudopotential read in
  partial core-charges read in
  partial kinetic energy density read in
  atomic valenz-charges read in
  non local Contribution for L=           0  read in
    real space projection operators read in
  non local Contribution for L=           0  read in
    real space projection operators read in
  non local Contribution for L=           1  read in
    real space projection operators read in
  non local Contribution for L=           1  read in
    real space projection operators read in
    PAW grid and wavefunctions read in
 
   number of l-projection  operators is LMAX  =           4
   number of lm-projection operators is LMMAX =           8
 
 POTCAR:    PAW_PBE Cr_pv 02Aug2007               
   SHA256 =  c9a7df34d3cdbacf1090e328ef39c0b420964e11c23f63548d1ac9dd218cdba0 Cr
   COPYR  = (c) Copyright 02Aug2007 Georg Kresse                                
   COPYR  = This file is part of the software VASP. Any use, copying, and all ot
   COPYR  = If you do not have a valid VASP license, you may not use, copy or di
   VRHFIN =Cr : p6d5s1                                                          
   LEXCH  = PE                                                                  
   EATOM  =  1647.9177 eV,  121.1185 Ry                                         
                                                                                
   TITEL  = PAW_PBE Cr_pv 02Aug2007                                             
   LULTRA =        F    use ultrasoft PP ?                                      
   IUNSCR =        1    unscreen: 0-lin 1-nonlin 2-no                           
   RPACOR =    2.080    partial core radius                                     
   POMASS =   51.996; ZVAL   =   12.000    mass and valenz                      
   RCORE  =    2.300    outmost cutoff radius                                   
   RWIGS  =    2.500; RWIGS  =    1.323    wigner-seitz radius (au A)           
   ENMAX  =  265.681; ENMIN  =  199.261 eV                                      
   ICORE  =        3    local potential                                         
   LCOR   =        T    correct aug charges                                     
   LPAW   =        T    paw PP                                                  
   EAUG   =  519.424                                                            
   DEXC   =    0.000                                                            
   RMAX   =    2.356    core radius for proj-oper                               
   RAUG   =    1.300    factor for augmentation sphere                          
   RDEP   =    2.447    radius for radial grids                                 
   RDEPT  =    1.882    core radius for aug-charge                              
                                                                                
   Atomic configuration                                                         
    8 entries                                                                   
     n  l   j            E        occ.                                          
     1  0  0.50     -5880.4963   2.0000                                         
     2  0  0.50      -667.0865   2.0000                                         
     2  1  1.50      -560.6250   6.0000                                         
     3  0  0.50       -73.9860   2.0000                                         
     3  1  1.50       -45.4378   6.0000                                         
     3  2  2.50        -2.9137   5.0000                                         
     4  0  0.50        -4.0071   1.0000                                         
     4  3  2.50        -1.3606   0.0000                                         
   Description                                                                  
     l       E           TYP  RCUT    TYP  RCUT                                 
     1    -45.4377911     23  2.000                                             
     1      1.3605826     23  2.000                                             
     2     -2.9136672     23  2.300                                             
     2     -4.2742498     23  2.300                                             
     0     -4.0071320     23  2.300                                             
     0      9.4498803     23  2.300                                             
     3      2.7211652     23  2.300                                             
  local pseudopotential read in
  partial core-charges read in
  partial kinetic energy density read in
  atomic valenz-charges read in
  non local Contribution for L=           1  read in
    real space projection operators read in
  non local Contribution for L=           1  read in
    real space projection operators read in
  non local Contribution for L=           2  read in
    real space projection operators read in
  non local Contribution for L=           2  read in
    real space projection operators read in
  non local Contribution for L=           0  read in
    real space projection operators read in
  non local Contribution for L=           0  read in
    real space projection operators read in
    PAW grid and wavefunctions read in
 
   number of l-projection  operators is LMAX  =           6
   number of lm-projection operators is LMMAX =          18
 
 Optimization of the real space projectors (new method)

 maximal supplied QI-value         = 25.13
 optimisation between [QCUT,QGAM] = [ 10.56, 21.36] = [ 31.20,127.80] Ry 
 Optimized for a Real-space Cutoff    1.32 Angstroem

   l    n(q)    QCUT    max X(q) W(low)/X(q) W(high)/X(q)  e(spline) 
   0      8    10.556   115.676    0.17E-03    0.39E-03    0.26E-06
   0      8    10.556    87.132    0.17E-03    0.39E-03    0.26E-06
   1      8    10.556     4.429    0.24E-03    0.31E-03    0.16E-06
   1      8    10.556     2.733    0.17E-03    0.22E-03    0.19E-06
 Optimization of the real space projectors (new method)

 maximal supplied QI-value         = 25.13
 optimisation between [QCUT,QGAM] = [ 10.56, 21.36] = [ 31.20,127.80] Ry 
 Optimized for a Real-space Cutoff    1.40 Angstroem

   l    n(q)    QCUT    max X(q) W(low)/X(q) W(high)/X(q)  e(spline) 
   0      9    10.556    79.467    0.20E-03    0.22E-03    0.30E-06
   0      9    10.556    66.151    0.20E-03    0.22E-03    0.30E-06
   1      8    10.556    12.181    0.10E-03    0.78E-03    0.19E-05
   1      8    10.556     8.434    0.11E-03    0.81E-03    0.19E-05
 Optimization of the real space projectors (new method)

 maximal supplied QI-value         = 25.13
 optimisation between [QCUT,QGAM] = [ 10.56, 21.36] = [ 31.20,127.80] Ry 
 Optimized for a Real-space Cutoff    1.32 Angstroem

   l    n(q)    QCUT    max X(q) W(low)/X(q) W(high)/X(q)  e(spline) 
   0      8    10.556   115.676    0.17E-03    0.39E-03    0.26E-06
   0      8    10.556    87.132    0.17E-03    0.39E-03    0.26E-06
   1      8    10.556     4.429    0.24E-03    0.31E-03    0.16E-06
   1      8    10.556     2.733    0.17E-03    0.22E-03    0.19E-06
 Optimization of the real space projectors (new method)

 maximal supplied QI-value         = 16.25
 optimisation between [QCUT,QGAM] = [ 10.73, 21.45] = [ 32.22,128.87] Ry 
 Optimized for a Real-space Cutoff    1.53 Angstroem

   l    n(q)    QCUT    max X(q) W(low)/X(q) W(high)/X(q)  e(spline) 
   1      9    10.726     3.262    0.64E-04    0.35E-04    0.11E-06
   1      9    10.726     5.741    0.13E-03    0.48E-04    0.19E-06
   2      9    10.726    60.438    0.12E-03    0.29E-04    0.13E-06
   2      9    10.726    55.380    0.12E-03    0.29E-04    0.13E-06
   0     10    10.726    80.273    0.43E-04    0.74E-05    0.81E-07
   0     10    10.726    36.654    0.34E-04    0.61E-05    0.73E-07
  PAW_PBE C 08Apr2002                   :
 energy of atom  1       EATOM= -147.1560
 kinetic energy error for atom=    0.0132 (will be added to EATOM!!)
  PAW_PBE N 08Apr2002                   :
 energy of atom  2       EATOM= -264.5486
 kinetic energy error for atom=    0.0298 (will be added to EATOM!!)
  PAW_PBE C 08Apr2002                   :
 energy of atom  3       EATOM= -147.1560
 kinetic energy error for atom=    0.0132 (will be added to EATOM!!)
  PAW_PBE Cr_pv 02Aug2007               :
 energy of atom  4       EATOM=-1647.9177
 kinetic energy error for atom=    0.0134 (will be added to EATOM!!)
 
 
 POSCAR: POSCAR-clean                            
  positions in direct lattice
  velocities in cartesian coordinates
 exchange correlation table for  LEXCH =        8
   RHO(1)=    0.500       N(1)  =     2000
   RHO(2)=  100.500       N(2)  =     4000

 VTST: version 3.2, (02/03/18)

 CHAIN: initializing optimizer
 
 OPT: Using VASP Conjugate-Gradient optimizer
 CHAIN: Read ICHAIN            0
 
 POSCAR: POSCAR-clean                            
  positions in direct lattice
  velocities in cartesian coordinates
 


--------------------------------------------------------------------------------------------------------


 ion  position               nearest neighbor table
   1  1.000  1.000  0.498-   2 1.42  60 1.43  70 1.44
   2  0.056  0.111  0.498-   1 1.42  13 1.42  15 1.44
   3  0.168  0.002  0.497-   4 1.42  62 1.43  60 1.43
   4  0.224  0.114  0.498-   3 1.42  15 1.43  17 1.44
   5  0.334  0.003  0.498-   6 1.42  62 1.43  64 1.43
   6  0.390  0.114  0.498-   5 1.42  19 1.42  17 1.44
   7  0.500  0.000  0.497-   8 1.42  64 1.42  66 1.43
   8  0.556  0.111  0.497-   7 1.42  21 1.43  19 1.43
   9  0.665  0.997  0.499-  66 1.42  10 1.42  68 1.44
  10  0.722  0.109  0.498-   9 1.42  23 1.43  21 1.43
  11  0.831  0.997  0.499-  70 1.43  12 1.43  68 1.44
  12  0.888  0.108  0.498-  11 1.43  23 1.43  13 1.43
  13  0.999  0.165  0.498-  14 1.42   2 1.42  12 1.43
  14  0.055  0.277  0.499-  25 1.42  13 1.42  27 1.43
  15  0.168  0.169  0.499-   4 1.43  16 1.43   2 1.44
  16  0.224  0.281  0.500-  15 1.43  27 1.43  29 1.45
  17  0.336  0.171  0.500-  18 1.42   4 1.44   6 1.44
  18  0.392  0.282  0.504-  17 1.42  31 1.44  29 1.45
  19  0.501  0.168  0.498-  20 1.42   6 1.42   8 1.43
  20  0.558  0.279  0.500-  19 1.42  33 1.43  31 1.44
  21  0.667  0.165  0.497-  22 1.42   8 1.43  10 1.43
  22  0.723  0.276  0.498-  21 1.42  35 1.42  33 1.42
  23  0.833  0.164  0.498-  24 1.42  10 1.43  12 1.43
  24  0.889  0.276  0.498-  23 1.42  35 1.42  25 1.43
  25  1.000  0.332  0.498-  14 1.42  26 1.43  24 1.43
  26  0.055  0.444  0.499-  39 1.41  37 1.42  25 1.43
  27  0.167  0.334  0.500-  28 1.42  16 1.43  14 1.43
  28  0.220  0.445  0.502-  39 1.42  27 1.42  41 1.42
  29  0.336  0.339  0.502-  30 1.42  16 1.45  18 1.45
  30  0.388  0.450  0.504-  41 1.41  29 1.42  71 1.98
  31  0.504  0.337  0.508-  32 1.41  20 1.44  18 1.44
  32  0.563  0.446  0.519-  43 1.40  31 1.41  71 1.99
  33  0.669  0.332  0.499-  34 1.42  22 1.42  20 1.43
  34  0.726  0.443  0.500-  43 1.41  33 1.42  45 1.42
  35  0.834  0.332  0.498-  22 1.42  24 1.42  36 1.43
  36  0.890  0.443  0.498-  45 1.41  37 1.42  35 1.43
  37  0.001  0.500  0.498-  36 1.42  26 1.42  38 1.42
  38  0.056  0.611  0.498-  49 1.42  47 1.42  37 1.42
  39  0.165  0.500  0.500-  26 1.41  28 1.42  40 1.42
  40  0.220  0.612  0.499-  49 1.42  51 1.42  39 1.42
  41  0.331  0.502  0.504-  30 1.41  28 1.42  42 1.45
  42  0.386  0.615  0.506-  53 1.36  51 1.40  41 1.45
  43  0.672  0.498  0.508-  32 1.40  34 1.41  44 1.44
  44  0.727  0.610  0.504-  55 1.40  57 1.41  43 1.44
  45  0.836  0.499  0.498-  36 1.41  34 1.42  46 1.42
  46  0.891  0.611  0.499-  47 1.41  57 1.42  45 1.42
  47  0.001  0.667  0.498-  46 1.41  38 1.42  48 1.43
  48  0.056  0.779  0.498-  61 1.42  59 1.43  47 1.43
  49  0.166  0.668  0.498-  40 1.42  38 1.42  50 1.42
  50  0.222  0.779  0.498-  63 1.42  49 1.42  61 1.43
  51  0.330  0.669  0.501-  42 1.40  52 1.41  40 1.42
  52  0.387  0.780  0.500-  51 1.41  65 1.42  63 1.42
  53  0.491  0.667  0.514-  42 1.36  54 1.37  71 2.05
  54  0.550  0.773  0.506-  53 1.37  65 1.43  67 1.45
  55  0.669  0.661  0.506-  44 1.40  56 1.41  71 1.99
  56  0.719  0.771  0.503-  55 1.41  67 1.45  69 1.45
  57  0.837  0.667  0.500-  44 1.41  58 1.42  46 1.42
  58  0.890  0.778  0.499-  57 1.42  59 1.43  69 1.43
  59  0.001  0.834  0.498-  60 1.42  48 1.43  58 1.43
  60  0.056  0.946  0.498-  59 1.42   1 1.43   3 1.43
  61  0.167  0.835  0.498-  62 1.42  48 1.42  50 1.43
  62  0.223  0.947  0.498-  61 1.42   3 1.43   5 1.43
  63  0.333  0.835  0.498-  64 1.42  50 1.42  52 1.42
  64  0.389  0.946  0.498-  63 1.42   7 1.42   5 1.43
  65  0.498  0.833  0.501-  66 1.42  52 1.42  54 1.43
  66  0.555  0.944  0.498-  65 1.42   9 1.42   7 1.43
  67  0.662  0.827  0.504-  68 1.43  54 1.45  56 1.45
  68  0.719  0.939  0.500-  67 1.43   9 1.44  11 1.44
  69  0.832  0.831  0.500-  70 1.43  58 1.43  56 1.45
  70  0.888  0.942  0.499-  11 1.43  69 1.43   1 1.44
  71  0.528  0.555  0.549-  30 1.98  32 1.99  55 1.99  53 2.05
 

IMPORTANT INFORMATION: All symmetrisations will be switched off!
NOSYMM: (Re-)initialisation of all symmetry stuff for point group C_1.

 
 
 KPOINTS: K-Points                                

Automatic generation of k-mesh.
Space group operators:
 irot       det(A)        alpha          n_x          n_y          n_z        tau_x        tau_y        tau_z
    1     1.000000     0.000000     1.000000     0.000000     0.000000     0.000000     0.000000     0.000000
 
 Subroutine IBZKPT returns following result:
 ===========================================
 
 Found      4 irreducible k-points:
 
 Following reciprocal coordinates:
            Coordinates               Weight
  0.000000  0.000000  0.000000      1.000000
  0.500000 -0.000000  0.000000      1.000000
  0.000000  0.500000  0.000000      1.000000
  0.500000  0.500000  0.000000      1.000000
 
 Following cartesian coordinates:
            Coordinates               Weight
  0.000000  0.000000  0.000000      1.000000
  0.033635  0.019597  0.000000      1.000000
  0.000159  0.039193  0.000000      1.000000
  0.033794  0.058790  0.000000      1.000000
 


--------------------------------------------------------------------------------------------------------




 Dimension of arrays:
   k-points           NKPTS =      4   k-points in BZ     NKDIM =      4   number of bands    NBANDS=    184
   number of dos      NEDOS =    301   number of ions     NIONS =     71
   non local maximal  LDIM  =      6   non local SUM 2l+1 LMDIM =     18
   total plane-waves  NPLWV = ******
   max r-space proj   IRMAX =   6625   max aug-charges    IRDMAX=  15571
   dimension x,y,z NGX =   108 NGY =  108 NGZ =  108
   dimension x,y,z NGXF=   216 NGYF=  216 NGZF=  216
   support grid    NGXF=   216 NGYF=  216 NGZF=  216
   ions per type =              52   1  17   1
   NGX,Y,Z   is equivalent  to a cutoff of  12.05, 12.13, 11.97 a.u.
   NGXF,Y,Z  is equivalent  to a cutoff of  24.10, 24.26, 23.94 a.u.

 SYSTEM =  unknown system                          
 POSCAR =  POSCAR-clean                            

 Startparameter for this run:
   NWRITE =      2    write-flag & timer
   PREC   = accura    normal or accurate (medium, high low for compatibility)
   ISTART =      0    job   : 0-new  1-cont  2-samecut
   ICHARG =      2    charge: 1-file 2-atom 10-const
   ISPIN  =      2    spin polarized calculation?
   LNONCOLLINEAR =      F non collinear calculations
   LSORBIT =      F    spin-orbit coupling
   INIWAV =      1    electr: 0-lowe 1-rand  2-diag
   LASPH  =      F    aspherical Exc in radial PAW
   METAGGA=      F    non-selfconsistent MetaGGA calc.

 Electronic Relaxation 1
   ENCUT  =  440.0 eV  32.34 Ry    5.69 a.u.  25.49 25.31 25.66*2*pi/ulx,y,z
   ENINI  =  440.0     initial cutoff
   ENAUG  =  644.9 eV  augmentation charge cutoff
   NELM   =     50;   NELMIN=  2; NELMDL= -5     # of ELM steps 
   EDIFF  = 0.1E-04   stopping-criterion for ELM
   LREAL  =      T    real-space projection
   NLSPLINE    = F    spline interpolate recip. space projectors
   LCOMPAT=      F    compatible to vasp.4.4
   GGA_COMPAT  = T    GGA compatible to vasp.4.4-vasp.4.6
   LMAXPAW     = -100 max onsite density
   LMAXMIX     =    2 max onsite mixed and CHGCAR
   VOSKOWN=      0    Vosko Wilk Nusair interpolation
   ROPT   =   -0.00025  -0.00025  -0.00025  -0.00025
 Ionic relaxation
   EDIFFG = -.5E-01   stopping-criterion for IOM
   NSW    =    400    number of steps for IOM
   NBLOCK =      1;   KBLOCK =    400    inner block; outer block 
   IBRION =      2    ionic relax: 0-MD 1-quasi-New 2-CG
   NFREE  =      1    steps in history (QN), initial steepest desc. (CG)
   ISIF   =      2    stress and relaxation
   IWAVPR =     11    prediction:  0-non 1-charg 2-wave 3-comb
   ISYM   =      0    0-nonsym 1-usesym 2-fastsym
   LCORR  =      T    Harris-Foulkes like correction to forces

   POTIM  = 0.3000    time-step for ionic-motion
   TEIN   =    0.0    initial temperature
   TEBEG  =    0.0;   TEEND  =   0.0 temperature during run
   SMASS  =  -3.00    Nose mass-parameter (am)
   estimated Nose-frequenzy (Omega)   =  0.10E-29 period in steps =****** mass=  -0.507E-26a.u.
   SCALEE = 1.0000    scale energy and forces
   NPACO  =    256;   APACO  = 16.0  distance and # of slots for P.C.
   PSTRESS=    0.0 pullay stress

  Mass of Ions in am
   POMASS =  12.01 14.00 12.01 52.00
  Ionic Valenz
   ZVAL   =   4.00  5.00  4.00 12.00
  Atomic Wigner-Seitz radii
   RWIGS  =  -1.00 -1.00 -1.00 -1.00
  virtual crystal weights 
   VCA    =   1.00  1.00  1.00  1.00
   NELECT =     293.0000    total number of electrons
   NUPDOWN=      -1.0000    fix difference up-down

 DOS related values:
   EMIN   =  10.00;   EMAX   =-10.00  energy-range for DOS
   EFERMI =   0.00
   ISMEAR =     0;   SIGMA  =   0.10  broadening in eV -4-tet -1-fermi 0-gaus

 Electronic relaxation 2 (details)
   IALGO  =     68    algorithm
   LDIAG  =      T    sub-space diagonalisation (order eigenvalues)
   LSUBROT=      F    optimize rotation matrix (better conditioning)
   TURBO    =      0    0=normal 1=particle mesh
   IRESTART =      0    0=no restart 2=restart with 2 vectors
   NREBOOT  =      0    no. of reboots
   NMIN     =      0    reboot dimension
   EREF     =   0.00    reference energy to select bands
   IMIX   =      4    mixing-type and parameters
     AMIX     =   0.40;   BMIX     =  1.00
     AMIX_MAG =   1.60;   BMIX_MAG =  1.00
     AMIN     =   0.10
     WC   =   100.;   INIMIX=   1;  MIXPRE=   1;  MAXMIX= -45

 Intra band minimization:
   WEIMIN = 0.0010     energy-eigenvalue tresh-hold
   EBREAK =  0.14E-07  absolut break condition
   DEPER  =   0.30     relativ break condition  

   TIME   =   0.40     timestep for ELM

  volume/ion in A,a.u.               =      40.16       271.01
  Fermi-wavevector in a.u.,A,eV,Ry     =   0.766796  1.449035  7.999903  0.587976
  Thomas-Fermi vector in A             =   1.867213
 
 Write flags
   LWAVE        =      F    write WAVECAR
   LDOWNSAMPLE  =      F    k-point downsampling of WAVECAR
   LCHARG       =      F    write CHGCAR
   LVTOT        =      F    write LOCPOT, total local potential
   LVHAR        =      F    write LOCPOT, Hartree potential only
   LELF         =      F    write electronic localiz. function (ELF)
   LORBIT       =      0    0 simple, 1 ext, 2 COOP (PROOUT), +10 PAW based schemes


 Dipole corrections
   LMONO  =      F    monopole corrections only (constant potential shift)
   LDIPOL =      F    correct potential (dipole corrections)
   IDIPOL =      0    1-x, 2-y, 3-z, 4-all directions 
   EPSILON=  1.0000000 bulk dielectric constant

 Exchange correlation treatment:
   GGA     =    --    GGA type
   LEXCH   =     8    internal setting for exchange type
   VOSKOWN=      0    Vosko Wilk Nusair interpolation
   LHFCALC =     F    Hartree Fock is set to
   LHFONE  =     F    Hartree Fock one center treatment
   AEXX    =    0.0000 exact exchange contribution

 Linear response parameters
   LEPSILON=     F    determine dielectric tensor
   LRPA    =     F    only Hartree local field effects (RPA)
   LNABLA  =     F    use nabla operator in PAW spheres
   LVEL    =     F    velocity operator in full k-point grid
   LINTERFAST=   F  fast interpolation
   KINTER  =     0    interpolate to denser k-point grid
   CSHIFT  =0.1000    complex shift for real part using Kramers Kronig
   OMEGAMAX=  -1.0    maximum frequency
   DEG_THRESHOLD= 0.2000000E-02 threshold for treating states as degnerate
   RTIME   =   -0.100 relaxation time in fs
  (WPLASMAI=    0.000 imaginary part of plasma frequency in eV, 0.658/RTIME)
   DFIELD  = 0.0000000 0.0000000 0.0000000 field for delta impulse in time
 
 Orbital magnetization related:
   ORBITALMAG=     F  switch on orbital magnetization
   LCHIMAG   =     F  perturbation theory with respect to B field
   DQ        =  0.001000  dq finite difference perturbation B field
   LLRAUG    =     F  two centre corrections for induced B field



--------------------------------------------------------------------------------------------------------


 conjugate gradient relaxation of ions
 charge density and potential will be updated during run
 spin polarized calculation
 RMM-DIIS sequential band-by-band and
  variant of blocked Davidson during initial phase
 perform sub-space diagonalisation
    before iterative eigenvector-optimisation
 modified Broyden-mixing scheme, WC =      100.0
 initial mixing is a Kerker type mixing with AMIX =  0.4000 and BMIX =      1.0000
 Hartree-type preconditioning will be used
 using additional bands           37
 real space projection scheme for non local part
 use partial core corrections
 calculate Harris-corrections to forces 
   (improved forces if not selfconsistent)
 use gradient corrections 
 use of overlap-Matrix (Vanderbilt PP)
 Gauss-broadening in eV      SIGMA  =   0.10


--------------------------------------------------------------------------------------------------------


  energy-cutoff  :      440.00
  volume of cell :     2851.36
      direct lattice vectors                 reciprocal lattice vectors
    14.900557007 -0.060417792  0.000000000     0.067270503  0.039193260  0.000000000
    -7.450278504 12.787504481  0.000000000     0.000317836  0.078386520  0.000000000
     0.000000000  0.000000000 15.000000000     0.000000000  0.000000000  0.066666667

  length of vectors
    14.900679496 14.799558123 15.000000000     0.077855200  0.078387164  0.066666667


 
 k-points in units of 2pi/SCALE and weight: K-Points                                
   0.00000000  0.00000000  0.00000000       0.250
   0.03363525  0.01959663  0.00000000       0.250
   0.00015892  0.03919326  0.00000000       0.250
   0.03379417  0.05878989  0.00000000       0.250
 
 k-points in reciprocal lattice and weights: K-Points                                
   0.00000000  0.00000000  0.00000000       0.250
   0.50000000 -0.00000000  0.00000000       0.250
   0.00000000  0.50000000  0.00000000       0.250
   0.50000000  0.50000000  0.00000000       0.250
 
 position of ions in fractional coordinates (direct lattice) 
   0.99961314  0.99967559  0.49792471
   0.05571057  0.11133147  0.49805669
   0.16773067  0.00240706  0.49737979
   0.22373853  0.11409738  0.49824352
   0.33411278  0.00260853  0.49759820
   0.39034808  0.11392910  0.49826618
   0.49976937  0.00012799  0.49723610
   0.55590713  0.11114941  0.49688872
   0.66534287  0.99710552  0.49863554
   0.72166958  0.10863628  0.49764486
   0.83128409  0.99660802  0.49862556
   0.88761889  0.10839853  0.49761634
   0.99925724  0.16536622  0.49779927
   0.05507717  0.27701566  0.49856610
   0.16766234  0.16860485  0.49882347
   0.22380486  0.28053018  0.50013573
   0.33576439  0.17106555  0.49970322
   0.39205570  0.28227957  0.50392829
   0.50120408  0.16768009  0.49769705
   0.55769831  0.27891799  0.50033873
   0.66691744  0.16484149  0.49718441
   0.72321811  0.27602278  0.49754920
   0.83279806  0.16434688  0.49760801
   0.88873513  0.27579683  0.49774019
   0.99975648  0.33214760  0.49836794
   0.05492696  0.44385506  0.49890835
   0.16658786  0.33407548  0.50009871
   0.22028693  0.44540425  0.50163816
   0.33634013  0.33901735  0.50221570
   0.38821848  0.45020844  0.50396990
   0.50431200  0.33679229  0.50776048
   0.56336864  0.44648614  0.51931183
   0.66859906  0.33192617  0.49923633
   0.72585277  0.44284125  0.50027348
   0.83403113  0.33160628  0.49761688
   0.89019702  0.44338226  0.49769063
   0.00058855  0.49984497  0.49823232
   0.05575441  0.61132980  0.49827162
   0.16505342  0.50033858  0.50025701
   0.21999491  0.61181855  0.49937370
   0.33089786  0.50186440  0.50377291
   0.38577544  0.61531951  0.50604316
   0.67176701  0.49757304  0.50758446
   0.72731937  0.61038911  0.50426309
   0.83624237  0.49917999  0.49828604
   0.89146034  0.61078435  0.49907429
   0.00141421  0.66719526  0.49839257
   0.05619122  0.77893352  0.49801899
   0.16610377  0.66772633  0.49827946
   0.22183765  0.77936224  0.49799955
   0.33039435  0.66874038  0.50088176
   0.38711756  0.77954258  0.49998530
   0.49121174  0.66681999  0.51384523
   0.54979083  0.77349674  0.50621051
   0.66883770  0.66068600  0.50585837
   0.71896605  0.77129039  0.50266513
   0.83693073  0.66657100  0.50044911
   0.88971952  0.77758138  0.49934223
   0.00093548  0.83426029  0.49801272
   0.05626433  0.94564475  0.49753530
   0.16707545  0.83527445  0.49773014
   0.22288492  0.94673505  0.49754448
   0.33252526  0.83530594  0.49823945
   0.38888122  0.94644791  0.49757832
   0.49776045  0.83254918  0.50066364
   0.55464204  0.94370255  0.49829232
   0.66239492  0.82721105  0.50366096
   0.71898920  0.93918066  0.50011029
   0.83184176  0.83052227  0.50012014
   0.88760673  0.94234442  0.49887940
   0.52753340  0.55536774  0.54892776
 
 position of ions in cartesian coordinates  (Angst):
   7.44693097 12.72296172  7.46887062
   0.00066810  1.42028573  7.47085038
   2.48134710  0.02064639  7.46069678
   2.48377151  1.44550292  7.47365282
   4.95903231  0.01317018  7.46397305
   4.96760035  1.43328486  7.47399271
   7.44588849 -0.02855834  7.45854151
   7.45523186  1.38773683  7.45333079
   2.48526558 12.71029278  7.47953309
   9.94390819  1.34558526  7.46467294
   4.96158867 12.69390513  7.47938334
  12.41841662  1.33251875  7.46424509
  13.65746515  2.05424831  7.46698899
  -1.24316333  3.53901134  7.47849149
   1.24210909  2.14590552  7.48235210
   1.24478918  3.57375911  7.50203600
   3.72859043  2.16721530  7.49554836
   3.73878687  3.58596415  7.55892432
   6.21895665  2.11392828  7.46545582
   6.23199871  3.53297014  7.50508088
   8.70932631  2.06761762  7.45776618
   8.71990617  3.48594725  7.46323803
  11.18472490  2.05127061  7.46412012
  11.18788536  3.47305776  7.46610289
  12.42233633  4.18693589  7.47551911
  -2.48840150  5.67248005  7.48362522
  -0.00670349  4.26192682  7.50148064
  -0.03598769  5.68229955  7.52457238
   2.48588161  4.31486498  7.53323546
   2.43049332  5.73358708  7.55954854
   5.00533333  4.27626352  7.61640724
   5.06806039  5.67540608  7.78967741
   7.48955605  4.20411206  7.48854493
   7.51632003  5.61897999  7.50410226
   9.95696920  4.19002653  7.46425322
   9.96111012  5.61596886  7.46535950
  -3.71521445  6.39173422  7.47348483
  -3.72380550  7.81401405  7.47407434
  -1.26827393  6.38810964  7.50385522
  -1.28017188  7.81034083  7.49060551
   1.19153284  6.39760113  7.55659361
   1.16396725  7.84509332  7.59064736
   6.30264486  6.32213083  7.61376687
   6.28989482  7.76141051  7.56394629
   8.74144710  6.33274244  7.47429065
   8.73274215  7.75654754  7.48611431
  -4.94971797  8.53167690  7.47588849
  -4.96599120  9.95722095  7.47028482
  -2.49970835  8.52851780  7.47419196
  -2.50096114  9.95269515  7.46999331
  -0.05924225  8.53155894  7.51322634
  -0.03954201  9.94501542  7.49977949
   2.35133390  8.49728563  7.70767850
   2.42942338  9.85787594  7.59315765
   5.04375953  8.40811547  7.58787556
   4.96666631  9.81944100  7.53997689
   7.50459440  8.47321419  7.50673662
   7.46411854  9.88957052  7.49013338
  -6.20153238 10.66805071  7.47019077
  -6.20694697 12.08903715  7.46302955
  -3.73350997 10.67098145  7.46595207
  -3.73233038 12.09291243  7.46316713
  -1.26845023 10.66138802  7.47359169
  -1.25675372 12.07921149  7.46367476
   1.21418478 10.61615277  7.50995463
   1.23362849 12.03409037  7.47438476
   3.70710050 10.53794463  7.55491440
   3.71618198 11.96633721  7.50165433
   6.20728345 10.57004915  7.50180206
   6.20510626 11.99660631  7.48319101
   3.72289715  7.06989512  8.23391634
 


--------------------------------------------------------------------------------------------------------


 k-point  1 :   0.0000 0.0000 0.0000  plane waves:   59727
 k-point  2 :   0.5000-0.0000 0.0000  plane waves:   59760
 k-point  3 :   0.0000 0.5000 0.0000  plane waves:   59800
 k-point  4 :   0.5000 0.5000 0.0000  plane waves:   59722

 maximum and minimum number of plane-waves per node :      5001     4961

 maximum number of plane-waves:     59800
 maximum index in each direction: 
   IXMAX=   25   IYMAX=   25   IZMAX=   25
   IXMIN=  -25   IYMIN=  -25   IZMIN=  -25


 real space projection operators:
  total allocation   :      18848.98 KBytes
  max/ min on nodes  :       1615.36       1538.22


 parallel 3D FFT for wavefunctions:
    minimum data exchange during FFTs selected (reduces bandwidth)
 parallel 3D FFT for charge:
    minimum data exchange during FFTs selected (reduces bandwidth)


 total amount of memory used by VASP MPI-rank0   111715. kBytes
=======================================================================

   base      :      30000. kBytes
   nonlr-proj:       9887. kBytes
   fftplans  :      10853. kBytes
   grid      :      30996. kBytes
   one-center:        186. kBytes
   wavefun   :      29793. kBytes
 
     INWAV:  cpu time    0.0000: real time    0.0000
 Broyden mixing: mesh for mixing (old mesh)
   NGX = 51   NGY = 51   NGZ = 51
  (NGX  =216   NGY  =216   NGZ  =216)
  gives a total of 132651 points

 initial charge density was supplied:
 charge density of overlapping atoms calculated
 number of electron     293.0000000 magnetization       1.0000000
 keeping initial charge density in first step


--------------------------------------------------------------------------------------------------------


 Maximum index for non-local projection operator          546
 Maximum index for augmentation-charges          326 (set IRDMAX)


--------------------------------------------------------------------------------------------------------


 First call to EWALD:  gamma=   0.125
 Maximum number of real-space cells 3x 3x 3
 Maximum number of reciprocal cells 3x 3x 3

    FEWALD:  cpu time    0.0125: real time    0.0131


--------------------------------------- Iteration      1(   1)  ---------------------------------------


    POTLOK:  cpu time    0.4013: real time    0.4305
    SETDIJ:  cpu time    0.0125: real time    0.0130
     EDDAV:  cpu time   11.4842: real time   11.6126
       DOS:  cpu time    0.0015: real time    0.0015
    --------------------------------------------
      LOOP:  cpu time   11.8995: real time   12.0576

 eigenvalue-minimisations  :  3376
 total energy-change (2. order) : 0.2453132E+04  (-0.1079210E+05)
 number of electron     293.0000000 magnetization       1.0000000
 augmentation part      293.0000000 magnetization       1.0000000

 Free energy of the ion-electron system (eV)
  ---------------------------------------------------
  alpha Z        PSCENC =       156.77688690
  Ewald energy   TEWEN  =     30381.00515851
  -Hartree energ DENC   =    -39544.73302968
  -exchange      EXHF   =         0.00000000
  -V(xc)+E(xc)   XCENC  =       982.50055031
  PAW double counting   =      9000.30529238    -9089.18527416
  entropy T*S    EENTRO =        -0.10783745
  eigenvalues    EBANDS =     -1498.70727977
  atomic energy  EATOM  =     12065.27733323
  Solvation  Ediel_sol  =         0.00000000
  ---------------------------------------------------
  free energy    TOTEN  =      2453.13180028 eV

  energy without entropy =     2453.23963773  energy(sigma->0) =     2453.18571900


--------------------------------------------------------------------------------------------------------




--------------------------------------- Iteration      1(   2)  ---------------------------------------


     EDDAV:  cpu time   14.5726: real time   14.8476
       DOS:  cpu time    0.0010: real time    0.0010
    --------------------------------------------
      LOOP:  cpu time   14.5736: real time   14.8486

 eigenvalue-minimisations  :  4224
 total energy-change (2. order) :-0.2687103E+04  (-0.2570719E+04)
 number of electron     293.0000000 magnetization       1.0000000
 augmentation part      293.0000000 magnetization       1.0000000

 Free energy of the ion-electron system (eV)
  ---------------------------------------------------
  alpha Z        PSCENC =       156.77688690
  Ewald energy   TEWEN  =     30381.00515851
  -Hartree energ DENC   =    -39544.73302968
  -exchange      EXHF   =         0.00000000
  -V(xc)+E(xc)   XCENC  =       982.50055031
  PAW double counting   =      9000.30529238    -9089.18527416
  entropy T*S    EENTRO =        -0.01833622
  eigenvalues    EBANDS =     -4185.89984890
  atomic energy  EATOM  =     12065.27733323
  Solvation  Ediel_sol  =         0.00000000
  ---------------------------------------------------
  free energy    TOTEN  =      -233.97126763 eV

  energy without entropy =     -233.95293140  energy(sigma->0) =     -233.96209951


--------------------------------------------------------------------------------------------------------




--------------------------------------- Iteration      1(   3)  ---------------------------------------


     EDDAV:  cpu time   12.2359: real time   12.3919
       DOS:  cpu time    0.0010: real time    0.0010
    --------------------------------------------
      LOOP:  cpu time   12.2370: real time   12.3929

 eigenvalue-minimisations  :  3536
 total energy-change (2. order) :-0.4553487E+03  (-0.4526351E+03)
 number of electron     293.0000000 magnetization       1.0000000
 augmentation part      293.0000000 magnetization       1.0000000

 Free energy of the ion-electron system (eV)
  ---------------------------------------------------
  alpha Z        PSCENC =       156.77688690
  Ewald energy   TEWEN  =     30381.00515851
  -Hartree energ DENC   =    -39544.73302968
  -exchange      EXHF   =         0.00000000
  -V(xc)+E(xc)   XCENC  =       982.50055031
  PAW double counting   =      9000.30529238    -9089.18527416
  entropy T*S    EENTRO =        -0.03379165
  eigenvalues    EBANDS =     -4641.23312450
  atomic energy  EATOM  =     12065.27733323
  Solvation  Ediel_sol  =         0.00000000
  ---------------------------------------------------
  free energy    TOTEN  =      -689.31999865 eV

  energy without entropy =     -689.28620701  energy(sigma->0) =     -689.30310283


--------------------------------------------------------------------------------------------------------




--------------------------------------- Iteration      1(   4)  ---------------------------------------


     EDDAV:  cpu time   12.6284: real time   12.7846
       DOS:  cpu time    0.0012: real time    0.0012
    --------------------------------------------
      LOOP:  cpu time   12.6296: real time   12.7858

 eigenvalue-minimisations  :  3568
 total energy-change (2. order) :-0.1662973E+02  (-0.1648556E+02)
 number of electron     293.0000000 magnetization       1.0000000
 augmentation part      293.0000000 magnetization       1.0000000

 Free energy of the ion-electron system (eV)
  ---------------------------------------------------
  alpha Z        PSCENC =       156.77688690
  Ewald energy   TEWEN  =     30381.00515851
  -Hartree energ DENC   =    -39544.73302968
  -exchange      EXHF   =         0.00000000
  -V(xc)+E(xc)   XCENC  =       982.50055031
  PAW double counting   =      9000.30529238    -9089.18527416
  entropy T*S    EENTRO =        -0.02646118
  eigenvalues    EBANDS =     -4657.87018904
  atomic energy  EATOM  =     12065.27733323
  Solvation  Ediel_sol  =         0.00000000
  ---------------------------------------------------
  free energy    TOTEN  =      -705.94973272 eV

  energy without entropy =     -705.92327154  energy(sigma->0) =     -705.93650213


--------------------------------------------------------------------------------------------------------




--------------------------------------- Iteration      1(   5)  ---------------------------------------


     EDDAV:  cpu time   13.7196: real time   13.9938
       DOS:  cpu time    0.0009: real time    0.0009
    CHARGE:  cpu time    0.4889: real time    0.4981
    MIXING:  cpu time    0.0074: real time    0.0088
    --------------------------------------------
      LOOP:  cpu time   14.2168: real time   14.5016

 eigenvalue-minimisations  :  3976
 total energy-change (2. order) :-0.5376838E+00  (-0.5358903E+00)
 number of electron     292.9999989 magnetization       0.7702380
 augmentation part       11.6327870 magnetization       0.7666638

 Broyden mixing:
  rms(total) = 0.47013E+01    rms(broyden)= 0.47008E+01
  rms(prec ) = 0.54846E+01
  weight for this iteration     100.00

 Free energy of the ion-electron system (eV)
  ---------------------------------------------------
  alpha Z        PSCENC =       156.77688690
  Ewald energy   TEWEN  =     30381.00515851
  -Hartree energ DENC   =    -39544.73302968
  -exchange      EXHF   =         0.00000000
  -V(xc)+E(xc)   XCENC  =       982.50055031
  PAW double counting   =      9000.30529238    -9089.18527416
  entropy T*S    EENTRO =        -0.02649634
  eigenvalues    EBANDS =     -4658.40783770
  atomic energy  EATOM  =     12065.27733323
  Solvation  Ediel_sol  =         0.00000000
  ---------------------------------------------------
  free energy    TOTEN  =      -706.48741654 eV

  energy without entropy =     -706.46092020  energy(sigma->0) =     -706.47416837


--------------------------------------------------------------------------------------------------------




--------------------------------------- Iteration      1(   6)  ---------------------------------------


    POTLOK:  cpu time    0.4052: real time    0.4143
    SETDIJ:  cpu time    0.0122: real time    0.0130
    EDDIAG:  cpu time    2.0505: real time    2.0818
  RMM-DIIS:  cpu time   11.6290: real time   11.7343
    ORTHCH:  cpu time    0.2230: real time    0.2245
       DOS:  cpu time    0.0010: real time    0.0010
    CHARGE:  cpu time    0.4558: real time    0.4653
    MIXING:  cpu time    0.0061: real time    0.0088
    --------------------------------------------
      LOOP:  cpu time   14.7829: real time   14.9430

 eigenvalue-minimisations  :  4145
 total energy-change (2. order) :-0.3260686E+02  (-0.5462052E+02)
 number of electron     292.9999978 magnetization       0.7278059
 augmentation part       17.4657205 magnetization       0.7276403

 Broyden mixing:
  rms(total) = 0.88152E+01    rms(broyden)= 0.88149E+01
  rms(prec ) = 0.97002E+01
  weight for this iteration     100.00

 eigenvalues of (default mixing * dielectric matrix)
  average eigenvalue GAMMA=   0.2036
  0.2036

 Free energy of the ion-electron system (eV)
  ---------------------------------------------------
  alpha Z        PSCENC =       156.77688690
  Ewald energy   TEWEN  =     30381.00515851
  -Hartree energ DENC   =    -39836.64650647
  -exchange      EXHF   =         0.00000000
  -V(xc)+E(xc)   XCENC  =       996.48712734
  PAW double counting   =     15310.51771514   -15398.97360141
  entropy T*S    EENTRO =        -0.05485218
  eigenvalues    EBANDS =     -4413.48354053
  atomic energy  EATOM  =     12065.27733323
  Solvation  Ediel_sol  =         0.00000000
  ---------------------------------------------------
  free energy    TOTEN  =      -739.09427947 eV

  energy without entropy =     -739.03942729  energy(sigma->0) =     -739.06685338


--------------------------------------------------------------------------------------------------------




--------------------------------------- Iteration      1(   7)  ---------------------------------------


    POTLOK:  cpu time    0.4085: real time    0.4137
    SETDIJ:  cpu time    0.0121: real time    0.0122
    EDDIAG:  cpu time    2.0495: real time    2.0654
  RMM-DIIS:  cpu time    8.5642: real time    8.6366
    ORTHCH:  cpu time    0.6428: real time    0.7113
       DOS:  cpu time    0.0010: real time    0.0010
    CHARGE:  cpu time    0.4574: real time    0.4680
    MIXING:  cpu time    0.0068: real time    0.0079
    --------------------------------------------
      LOOP:  cpu time   12.1424: real time   12.3162

 eigenvalue-minimisations  :  2989
 total energy-change (2. order) : 0.7310350E+02  (-0.4988784E+01)
 number of electron     292.9999981 magnetization       0.6348363
 augmentation part       15.6293823 magnetization       0.5688895

 Broyden mixing:
  rms(total) = 0.36169E+01    rms(broyden)= 0.36166E+01
  rms(prec ) = 0.43882E+01
  weight for this iteration     100.00

 eigenvalues of (default mixing * dielectric matrix)
  average eigenvalue GAMMA=   0.4581
  0.4581  0.4581

 Free energy of the ion-electron system (eV)
  ---------------------------------------------------
  alpha Z        PSCENC =       156.77688690
  Ewald energy   TEWEN  =     30381.00515851
  -Hartree energ DENC   =    -39956.61922060
  -exchange      EXHF   =         0.00000000
  -V(xc)+E(xc)   XCENC  =      1000.97106584
  PAW double counting   =     16888.03134831   -16983.21459777
  entropy T*S    EENTRO =        -0.04749243
  eigenvalues    EBANDS =     -4218.17126455
  atomic energy  EATOM  =     12065.27733323
  Solvation  Ediel_sol  =         0.00000000
  ---------------------------------------------------
  free energy    TOTEN  =      -665.99078255 eV

  energy without entropy =     -665.94329012  energy(sigma->0) =     -665.96703633


--------------------------------------------------------------------------------------------------------




--------------------------------------- Iteration      1(   8)  ---------------------------------------


    POTLOK:  cpu time    0.4242: real time    0.4335
    SETDIJ:  cpu time    0.0122: real time    0.0122
    EDDIAG:  cpu time    2.0497: real time    2.0647
  RMM-DIIS:  cpu time    8.9309: real time    9.0036
    ORTHCH:  cpu time    0.3468: real time    0.4023
       DOS:  cpu time    0.0011: real time    0.0011
    CHARGE:  cpu time    0.4596: real time    0.4680
    MIXING:  cpu time    0.0070: real time    0.0071
    --------------------------------------------
      LOOP:  cpu time   12.2315: real time   12.3926

 eigenvalue-minimisations  :  3136
 total energy-change (2. order) :-0.3182233E+00  (-0.1989861E+01)
 number of electron     292.9999990 magnetization       0.3707716
 augmentation part       11.1409428 magnetization       0.3079788

 Broyden mixing:
  rms(total) = 0.29755E+01    rms(broyden)= 0.29747E+01
  rms(prec ) = 0.36587E+01
  weight for this iteration     100.00

 eigenvalues of (default mixing * dielectric matrix)
  average eigenvalue GAMMA=   0.8431
  1.8580  0.3357  0.3357

 Free energy of the ion-electron system (eV)
  ---------------------------------------------------
  alpha Z        PSCENC =       156.77688690
  Ewald energy   TEWEN  =     30381.00515851
  -Hartree energ DENC   =    -40134.21164229
  -exchange      EXHF   =         0.00000000
  -V(xc)+E(xc)   XCENC  =      1007.40538353
  PAW double counting   =     19663.70202597   -19763.13963126
  entropy T*S    EENTRO =        -0.02839384
  eigenvalues    EBANDS =     -4043.09612659
  atomic energy  EATOM  =     12065.27733323
  Solvation  Ediel_sol  =         0.00000000
  ---------------------------------------------------
  free energy    TOTEN  =      -666.30900584 eV

  energy without entropy =     -666.28061200  energy(sigma->0) =     -666.29480892


--------------------------------------------------------------------------------------------------------




--------------------------------------- Iteration      1(   9)  ---------------------------------------


    POTLOK:  cpu time    0.4329: real time    0.4388
    SETDIJ:  cpu time    0.0121: real time    0.0121
    EDDIAG:  cpu time    2.0458: real time    2.0613
  RMM-DIIS:  cpu time    8.3199: real time    8.3880
    ORTHCH:  cpu time    0.4275: real time    0.4295
       DOS:  cpu time    0.0011: real time    0.0011
    CHARGE:  cpu time    0.4592: real time    0.4672
    MIXING:  cpu time    0.0074: real time    0.0074
    --------------------------------------------
      LOOP:  cpu time   11.7059: real time   11.8053

 eigenvalue-minimisations  :  2960
 total energy-change (2. order) : 0.1678441E+02  (-0.2123541E+01)
 number of electron     292.9999987 magnetization       0.2781334
 augmentation part       11.7697115 magnetization       0.2842263

 Broyden mixing:
  rms(total) = 0.15162E+01    rms(broyden)= 0.15158E+01
  rms(prec ) = 0.18208E+01
  weight for this iteration     100.00

 eigenvalues of (default mixing * dielectric matrix)
  average eigenvalue GAMMA=   0.9232
  2.2574  0.7320  0.3518  0.3518

 Free energy of the ion-electron system (eV)
  ---------------------------------------------------
  alpha Z        PSCENC =       156.77688690
  Ewald energy   TEWEN  =     30381.00515851
  -Hartree energ DENC   =    -40457.75658948
  -exchange      EXHF   =         0.00000000
  -V(xc)+E(xc)   XCENC  =      1021.02828193
  PAW double counting   =     28575.02805467   -28677.54357827
  entropy T*S    EENTRO =        -0.00716842
  eigenvalues    EBANDS =     -3713.33297527
  atomic energy  EATOM  =     12065.27733323
  Solvation  Ediel_sol  =         0.00000000
  ---------------------------------------------------
  free energy    TOTEN  =      -649.52459619 eV

  energy without entropy =     -649.51742778  energy(sigma->0) =     -649.52101199


--------------------------------------------------------------------------------------------------------




--------------------------------------- Iteration      1(  10)  ---------------------------------------


    POTLOK:  cpu time    0.4413: real time    0.4473
    SETDIJ:  cpu time    0.0122: real time    0.0122
    EDDIAG:  cpu time    2.0765: real time    2.0928
  RMM-DIIS:  cpu time    8.5265: real time    8.6003
    ORTHCH:  cpu time    0.2430: real time    0.2437
       DOS:  cpu time    0.0009: real time    0.0009
    CHARGE:  cpu time    0.4847: real time    0.4936
    MIXING:  cpu time    0.0088: real time    0.0088
    --------------------------------------------
      LOOP:  cpu time   11.7938: real time   11.8997

 eigenvalue-minimisations  :  2983
 total energy-change (2. order) :-0.5951612E+00  (-0.5727468E+00)
 number of electron     292.9999983 magnetization       0.2225349
 augmentation part       13.9396847 magnetization       0.2400111

 Broyden mixing:
  rms(total) = 0.16460E+01    rms(broyden)= 0.16441E+01
  rms(prec ) = 0.20699E+01
  weight for this iteration     100.00

 eigenvalues of (default mixing * dielectric matrix)
  average eigenvalue GAMMA=   0.9097
  2.3122  1.0606  0.3460  0.3460  0.4839

 Free energy of the ion-electron system (eV)
  ---------------------------------------------------
  alpha Z        PSCENC =       156.77688690
  Ewald energy   TEWEN  =     30381.00515851
  -Hartree energ DENC   =    -40494.33655980
  -exchange      EXHF   =         0.00000000
  -V(xc)+E(xc)   XCENC  =      1021.69158676
  PAW double counting   =     30107.17263632   -30208.34237628
  entropy T*S    EENTRO =        -0.00034067
  eigenvalues    EBANDS =     -3679.36408238
  atomic energy  EATOM  =     12065.27733323
  Solvation  Ediel_sol  =         0.00000000
  ---------------------------------------------------
  free energy    TOTEN  =      -650.11975739 eV

  energy without entropy =     -650.11941672  energy(sigma->0) =     -650.11958706


--------------------------------------------------------------------------------------------------------




--------------------------------------- Iteration      1(  11)  ---------------------------------------


    POTLOK:  cpu time    0.4277: real time    0.4324
    SETDIJ:  cpu time    0.0120: real time    0.0124
    EDDIAG:  cpu time    2.0729: real time    2.0929
  RMM-DIIS:  cpu time    9.1298: real time    9.2017
    ORTHCH:  cpu time    0.1509: real time    0.1515
       DOS:  cpu time    0.0012: real time    0.0012
    CHARGE:  cpu time    0.4915: real time    0.5006
    MIXING:  cpu time    0.0088: real time    0.0091
    --------------------------------------------
      LOOP:  cpu time   12.2949: real time   12.4018

 eigenvalue-minimisations  :  3233
 total energy-change (2. order) : 0.1785905E+01  (-0.3488306E-01)
 number of electron     292.9999984 magnetization       0.1966506
 augmentation part       13.2675249 magnetization       0.1189958

 Broyden mixing:
  rms(total) = 0.92895E+00    rms(broyden)= 0.92888E+00
  rms(prec ) = 0.10990E+01
  weight for this iteration     100.00

 eigenvalues of (default mixing * dielectric matrix)
  average eigenvalue GAMMA=   0.9973
  2.0608  2.0608  0.3510  0.3510  0.5801  0.5801

 Free energy of the ion-electron system (eV)
  ---------------------------------------------------
  alpha Z        PSCENC =       156.77688690
  Ewald energy   TEWEN  =     30381.00515851
  -Hartree energ DENC   =    -40520.81926528
  -exchange      EXHF   =         0.00000000
  -V(xc)+E(xc)   XCENC  =      1021.87328620
  PAW double counting   =     30619.73917724   -30720.24717392
  entropy T*S    EENTRO =        -0.07290716
  eigenvalues    EBANDS =     -3651.86634834
  atomic energy  EATOM  =     12065.27733323
  Solvation  Ediel_sol  =         0.00000000
  ---------------------------------------------------
  free energy    TOTEN  =      -648.33385261 eV

  energy without entropy =     -648.26094545  energy(sigma->0) =     -648.29739903


--------------------------------------------------------------------------------------------------------




--------------------------------------- Iteration      1(  12)  ---------------------------------------


    POTLOK:  cpu time    0.3900: real time    0.3940
    SETDIJ:  cpu time    0.0122: real time    0.0123
    EDDIAG:  cpu time    2.0414: real time    2.0566
  RMM-DIIS:  cpu time    8.3223: real time    8.3928
    ORTHCH:  cpu time    0.2857: real time    0.2866
       DOS:  cpu time    0.0010: real time    0.0010
    CHARGE:  cpu time    0.4525: real time    0.4604
    MIXING:  cpu time    0.0084: real time    0.0085
    --------------------------------------------
      LOOP:  cpu time   11.5136: real time   11.6122

 eigenvalue-minimisations  :  2964
 total energy-change (2. order) : 0.1230470E+00  (-0.1910074E-01)
 number of electron     292.9999985 magnetization       0.2092528
 augmentation part       13.0144603 magnetization      -0.2221846

 Broyden mixing:
  rms(total) = 0.78041E+00    rms(broyden)= 0.77914E+00
  rms(prec ) = 0.83364E+00
  weight for this iteration     100.00

 eigenvalues of (default mixing * dielectric matrix)
  average eigenvalue GAMMA=   0.8752
  2.0627  2.0627  0.3506  0.3506  0.6064  0.6064  0.0868

 Free energy of the ion-electron system (eV)
  ---------------------------------------------------
  alpha Z        PSCENC =       156.77688690
  Ewald energy   TEWEN  =     30381.00515851
  -Hartree energ DENC   =    -40551.60495756
  -exchange      EXHF   =         0.00000000
  -V(xc)+E(xc)   XCENC  =      1021.67610969
  PAW double counting   =     31046.09651423   -31145.21502075
  entropy T*S    EENTRO =        -0.02131811
  eigenvalues    EBANDS =     -3622.20151171
  atomic energy  EATOM  =     12065.27733323
  Solvation  Ediel_sol  =         0.00000000
  ---------------------------------------------------
  free energy    TOTEN  =      -648.21080557 eV

  energy without entropy =     -648.18948746  energy(sigma->0) =     -648.20014652


--------------------------------------------------------------------------------------------------------




--------------------------------------- Iteration      1(  13)  ---------------------------------------


    POTLOK:  cpu time    0.3944: real time    0.3983
    SETDIJ:  cpu time    0.0118: real time    0.0118
    EDDIAG:  cpu time    2.0278: real time    2.0427
  RMM-DIIS:  cpu time    8.7647: real time    8.8335
    ORTHCH:  cpu time    0.3236: real time    0.3248
       DOS:  cpu time    0.0010: real time    0.0010
    CHARGE:  cpu time    0.4891: real time    0.4969
    MIXING:  cpu time    0.0080: real time    0.0081
    --------------------------------------------
      LOOP:  cpu time   12.0205: real time   12.1172

 eigenvalue-minimisations  :  3104
 total energy-change (2. order) :-0.9237265E-01  (-0.3176459E-02)
 number of electron     292.9999985 magnetization       0.2513699
 augmentation part       13.0533018 magnetization      -0.1879789

 Broyden mixing:
  rms(total) = 0.78685E+00    rms(broyden)= 0.78678E+00
  rms(prec ) = 0.85334E+00
  weight for this iteration     100.00

 eigenvalues of (default mixing * dielectric matrix)
  average eigenvalue GAMMA=   0.8468
  2.0652  2.0652  0.6094  0.6094  0.3502  0.3502  0.3625  0.3625

 Free energy of the ion-electron system (eV)
  ---------------------------------------------------
  alpha Z        PSCENC =       156.77688690
  Ewald energy   TEWEN  =     30381.00515851
  -Hartree energ DENC   =    -40551.78310411
  -exchange      EXHF   =         0.00000000
  -V(xc)+E(xc)   XCENC  =      1021.67153889
  PAW double counting   =     31042.78113146   -31141.83673964
  entropy T*S    EENTRO =        -0.02007978
  eigenvalues    EBANDS =     -3622.17530369
  atomic energy  EATOM  =     12065.27733323
  Solvation  Ediel_sol  =         0.00000000
  ---------------------------------------------------
  free energy    TOTEN  =      -648.30317822 eV

  energy without entropy =     -648.28309844  energy(sigma->0) =     -648.29313833


--------------------------------------------------------------------------------------------------------




--------------------------------------- Iteration      1(  14)  ---------------------------------------


    POTLOK:  cpu time    0.4041: real time    0.4074
    SETDIJ:  cpu time    0.0121: real time    0.0122
    EDDIAG:  cpu time    2.0480: real time    2.0639
  RMM-DIIS:  cpu time    8.7885: real time    8.8744
    ORTHCH:  cpu time    0.2287: real time    0.2295
       DOS:  cpu time    0.0010: real time    0.0010
    CHARGE:  cpu time    0.4876: real time    0.4963
    MIXING:  cpu time    0.0092: real time    0.0093
    --------------------------------------------
      LOOP:  cpu time   11.9791: real time   12.0940

 eigenvalue-minimisations  :  3093
 total energy-change (2. order) :-0.4404956E-01  (-0.9213317E-03)
 number of electron     292.9999985 magnetization       0.3187161
 augmentation part       13.0545216 magnetization      -0.1375062

 Broyden mixing:
  rms(total) = 0.77453E+00    rms(broyden)= 0.77452E+00
  rms(prec ) = 0.84223E+00
  weight for this iteration     100.00

 eigenvalues of (default mixing * dielectric matrix)
  average eigenvalue GAMMA=   0.8230
  2.0711  2.0711  0.5753  0.5753  0.5899  0.5899  0.3505  0.3505  0.2331

 Free energy of the ion-electron system (eV)
  ---------------------------------------------------
  alpha Z        PSCENC =       156.77688690
  Ewald energy   TEWEN  =     30381.00515851
  -Hartree energ DENC   =    -40552.78049484
  -exchange      EXHF   =         0.00000000
  -V(xc)+E(xc)   XCENC  =      1021.71094880
  PAW double counting   =     31015.63509479   -31114.73971279
  entropy T*S    EENTRO =        -0.02446891
  eigenvalues    EBANDS =     -3621.20797348
  atomic energy  EATOM  =     12065.27733323
  Solvation  Ediel_sol  =         0.00000000
  ---------------------------------------------------
  free energy    TOTEN  =      -648.34722778 eV

  energy without entropy =     -648.32275887  energy(sigma->0) =     -648.33499333


--------------------------------------------------------------------------------------------------------




--------------------------------------- Iteration      1(  15)  ---------------------------------------


    POTLOK:  cpu time    0.3832: real time    0.3918
    SETDIJ:  cpu time    0.0123: real time    0.0123
    EDDIAG:  cpu time    2.0475: real time    2.0634
  RMM-DIIS:  cpu time    8.4916: real time    8.5612
    ORTHCH:  cpu time    0.2378: real time    0.2384
       DOS:  cpu time    0.0009: real time    0.0009
    CHARGE:  cpu time    0.4893: real time    0.4986
    MIXING:  cpu time    0.0095: real time    0.0095
    --------------------------------------------
      LOOP:  cpu time   11.6720: real time   11.7761

 eigenvalue-minimisations  :  2986
 total energy-change (2. order) :-0.6583208E-01  (-0.9405130E-03)
 number of electron     292.9999985 magnetization       0.2803296
 augmentation part       13.0628060 magnetization      -0.2451212

 Broyden mixing:
  rms(total) = 0.78307E+00    rms(broyden)= 0.78305E+00
  rms(prec ) = 0.85299E+00
  weight for this iteration     100.00

 eigenvalues of (default mixing * dielectric matrix)
  average eigenvalue GAMMA=   0.8102
  2.0623  2.0623  0.6512  0.6512  0.5916  0.5916  0.3503  0.3503  0.3757  0.4157

 Free energy of the ion-electron system (eV)
  ---------------------------------------------------
  alpha Z        PSCENC =       156.77688690
  Ewald energy   TEWEN  =     30381.00515851
  -Hartree energ DENC   =    -40554.51900849
  -exchange      EXHF   =         0.00000000
  -V(xc)+E(xc)   XCENC  =      1021.76613933
  PAW double counting   =     30991.13525565   -31090.28189390
  entropy T*S    EENTRO =        -0.03262824
  eigenvalues    EBANDS =     -3619.54030288
  atomic energy  EATOM  =     12065.27733323
  Solvation  Ediel_sol  =         0.00000000
  ---------------------------------------------------
  free energy    TOTEN  =      -648.41305987 eV

  energy without entropy =     -648.38043163  energy(sigma->0) =     -648.39674575


--------------------------------------------------------------------------------------------------------




--------------------------------------- Iteration      1(  16)  ---------------------------------------


    POTLOK:  cpu time    0.4054: real time    0.4094
    SETDIJ:  cpu time    0.0122: real time    0.0124
    EDDIAG:  cpu time    2.0048: real time    2.0223
  RMM-DIIS:  cpu time    8.4658: real time    8.5292
    ORTHCH:  cpu time    0.2050: real time    0.2062
       DOS:  cpu time    0.0010: real time    0.0010
    CHARGE:  cpu time    0.4844: real time    0.4909
    MIXING:  cpu time    0.0094: real time    0.0095
    --------------------------------------------
      LOOP:  cpu time   11.5881: real time   11.6810

 eigenvalue-minimisations  :  2996
 total energy-change (2. order) : 0.4601716E-01  (-0.1129090E-02)
 number of electron     292.9999985 magnetization       0.1861678
 augmentation part       12.9790400 magnetization      -0.2541853

 Broyden mixing:
  rms(total) = 0.69076E+00    rms(broyden)= 0.69074E+00
  rms(prec ) = 0.73789E+00
  weight for this iteration     100.00

 eigenvalues of (default mixing * dielectric matrix)
  average eigenvalue GAMMA=   0.9272
  2.0707  2.0707  1.0919  0.9644  0.9644  0.3501  0.3501  0.6189  0.6189  0.5496
  0.5496

 Free energy of the ion-electron system (eV)
  ---------------------------------------------------
  alpha Z        PSCENC =       156.77688690
  Ewald energy   TEWEN  =     30381.00515851
  -Hartree energ DENC   =    -40555.48534350
  -exchange      EXHF   =         0.00000000
  -V(xc)+E(xc)   XCENC  =      1021.77961240
  PAW double counting   =     30975.43508273   -31074.59899695
  entropy T*S    EENTRO =        -0.02432304
  eigenvalues    EBANDS =     -3618.53245299
  atomic energy  EATOM  =     12065.27733323
  Solvation  Ediel_sol  =         0.00000000
  ---------------------------------------------------
  free energy    TOTEN  =      -648.36704271 eV

  energy without entropy =     -648.34271966  energy(sigma->0) =     -648.35488119


--------------------------------------------------------------------------------------------------------




--------------------------------------- Iteration      1(  17)  ---------------------------------------


    POTLOK:  cpu time    0.4089: real time    0.4131
    SETDIJ:  cpu time    0.0121: real time    0.0121
    EDDIAG:  cpu time    1.9825: real time    2.0045
  RMM-DIIS:  cpu time    8.3547: real time    8.4206
    ORTHCH:  cpu time    0.1970: real time    0.2011
       DOS:  cpu time    0.0019: real time    0.0022
    CHARGE:  cpu time    0.4645: real time    0.4714
    MIXING:  cpu time    0.0089: real time    0.0089
    --------------------------------------------
      LOOP:  cpu time   11.4304: real time   11.5339

 eigenvalue-minimisations  :  2952
 total energy-change (2. order) :-0.9746820E-01  (-0.1835143E-01)
 number of electron     292.9999985 magnetization       0.0126343
 augmentation part       13.1681467 magnetization      -0.2205729

 Broyden mixing:
  rms(total) = 0.65694E+00    rms(broyden)= 0.65669E+00
  rms(prec ) = 0.79808E+00
  weight for this iteration     100.00

 eigenvalues of (default mixing * dielectric matrix)
  average eigenvalue GAMMA=   0.9598
  2.1885  2.1885  1.3258  1.0103  1.0103  0.3501  0.3501  0.6815  0.6815  0.6113
  0.6113  0.5087

 Free energy of the ion-electron system (eV)
  ---------------------------------------------------
  alpha Z        PSCENC =       156.77688690
  Ewald energy   TEWEN  =     30381.00515851
  -Hartree energ DENC   =    -40572.80345846
  -exchange      EXHF   =         0.00000000
  -V(xc)+E(xc)   XCENC  =      1022.04039831
  PAW double counting   =     30994.71441318   -31093.68959225
  entropy T*S    EENTRO =        -0.03641339
  eigenvalues    EBANDS =     -3601.74923693
  atomic energy  EATOM  =     12065.27733323
  Solvation  Ediel_sol  =         0.00000000
  ---------------------------------------------------
  free energy    TOTEN  =      -648.46451090 eV

  energy without entropy =     -648.42809751  energy(sigma->0) =     -648.44630421


--------------------------------------------------------------------------------------------------------




--------------------------------------- Iteration      1(  18)  ---------------------------------------


    POTLOK:  cpu time    0.3934: real time    0.3979
    SETDIJ:  cpu time    0.0120: real time    0.0121
    EDDIAG:  cpu time    2.0244: real time    2.0398
  RMM-DIIS:  cpu time    8.5817: real time    8.6490
    ORTHCH:  cpu time    0.2166: real time    0.2172
       DOS:  cpu time    0.0011: real time    0.0011
    CHARGE:  cpu time    0.4497: real time    0.4563
    MIXING:  cpu time    0.0087: real time    0.0090
    --------------------------------------------
      LOOP:  cpu time   11.6877: real time   11.7822

 eigenvalue-minimisations  :  3022
 total energy-change (2. order) : 0.3479839E+00  (-0.2556657E-01)
 number of electron     292.9999985 magnetization      -0.0352806
 augmentation part       12.9225586 magnetization      -0.0872384

 Broyden mixing:
  rms(total) = 0.40321E+00    rms(broyden)= 0.40279E+00
  rms(prec ) = 0.45930E+00
  weight for this iteration     100.00

 eigenvalues of (default mixing * dielectric matrix)
  average eigenvalue GAMMA=   0.9032
  2.1169  2.1169  1.3982  0.9841  0.9841  0.7095  0.7095  0.6042  0.6042  0.3501
  0.3501  0.4067  0.4067

 Free energy of the ion-electron system (eV)
  ---------------------------------------------------
  alpha Z        PSCENC =       156.77688690
  Ewald energy   TEWEN  =     30381.00515851
  -Hartree energ DENC   =    -40590.45190693
  -exchange      EXHF   =         0.00000000
  -V(xc)+E(xc)   XCENC  =      1022.31638727
  PAW double counting   =     31092.56883629   -31191.37557247
  entropy T*S    EENTRO =        -0.03670897
  eigenvalues    EBANDS =     -3584.19694080
  atomic energy  EATOM  =     12065.27733323
  Solvation  Ediel_sol  =         0.00000000
  ---------------------------------------------------
  free energy    TOTEN  =      -648.11652697 eV

  energy without entropy =     -648.07981800  energy(sigma->0) =     -648.09817249


--------------------------------------------------------------------------------------------------------




--------------------------------------- Iteration      1(  19)  ---------------------------------------


    POTLOK:  cpu time    0.3940: real time    0.3985
    SETDIJ:  cpu time    0.0120: real time    0.0121
    EDDIAG:  cpu time    1.9900: real time    2.0055
  RMM-DIIS:  cpu time    9.2566: real time    9.3303
    ORTHCH:  cpu time    0.2969: real time    0.2978
       DOS:  cpu time    0.0012: real time    0.0012
    CHARGE:  cpu time    0.4523: real time    0.4595
    MIXING:  cpu time    0.0100: real time    0.0100
    --------------------------------------------
      LOOP:  cpu time   12.4131: real time   12.5150

 eigenvalue-minimisations  :  3249
 total energy-change (2. order) : 0.2762231E-01  (-0.5632223E-02)
 number of electron     292.9999985 magnetization      -0.0179612
 augmentation part       12.9743476 magnetization      -0.0267642

 Broyden mixing:
  rms(total) = 0.43689E+00    rms(broyden)= 0.43687E+00
  rms(prec ) = 0.51266E+00
  weight for this iteration     100.00

 eigenvalues of (default mixing * dielectric matrix)
  average eigenvalue GAMMA=   0.8609
  2.1282  2.1282  1.3754  0.9718  0.9718  0.7386  0.7386  0.3501  0.3501  0.6035
  0.6035  0.4517  0.4517  0.1892

 Free energy of the ion-electron system (eV)
  ---------------------------------------------------
  alpha Z        PSCENC =       156.77688690
  Ewald energy   TEWEN  =     30381.00515851
  -Hartree energ DENC   =    -40590.88679380
  -exchange      EXHF   =         0.00000000
  -V(xc)+E(xc)   XCENC  =      1022.34293193
  PAW double counting   =     31094.00705774   -31192.79308175
  entropy T*S    EENTRO =        -0.03309378
  eigenvalues    EBANDS =     -3583.78530364
  atomic energy  EATOM  =     12065.27733323
  Solvation  Ediel_sol  =         0.00000000
  ---------------------------------------------------
  free energy    TOTEN  =      -648.08890466 eV

  energy without entropy =     -648.05581088  energy(sigma->0) =     -648.07235777


--------------------------------------------------------------------------------------------------------




--------------------------------------- Iteration      1(  20)  ---------------------------------------


    POTLOK:  cpu time    0.4065: real time    0.4103
    SETDIJ:  cpu time    0.0121: real time    0.0121
    EDDIAG:  cpu time    2.0275: real time    2.0455
  RMM-DIIS:  cpu time    9.9002: real time    9.9760
    ORTHCH:  cpu time    0.2783: real time    0.2798
       DOS:  cpu time    0.0009: real time    0.0009
    CHARGE:  cpu time    0.4529: real time    0.4602
    MIXING:  cpu time    0.0099: real time    0.0101
    --------------------------------------------
      LOOP:  cpu time   13.0882: real time   13.1949

 eigenvalue-minimisations  :  3500
 total energy-change (2. order) :-0.2467683E-01  (-0.1172975E-02)
 number of electron     292.9999985 magnetization      -0.1505912
 augmentation part       12.9860902 magnetization      -0.1608074

 Broyden mixing:
  rms(total) = 0.45950E+00    rms(broyden)= 0.45950E+00
  rms(prec ) = 0.53851E+00
  weight for this iteration     100.00

 eigenvalues of (default mixing * dielectric matrix)
  average eigenvalue GAMMA=   0.8595
  1.4834  2.1264  2.1264  0.9806  0.9806  0.5434  0.5434  0.3501  0.3501  0.6843
  0.6843  0.6380  0.6380  0.3814  0.3814

 Free energy of the ion-electron system (eV)
  ---------------------------------------------------
  alpha Z        PSCENC =       156.77688690
  Ewald energy   TEWEN  =     30381.00515851
  -Hartree energ DENC   =    -40590.12428300
  -exchange      EXHF   =         0.00000000
  -V(xc)+E(xc)   XCENC  =      1022.32478582
  PAW double counting   =     31092.20204254   -31190.98474651
  entropy T*S    EENTRO =        -0.03270443
  eigenvalues    EBANDS =     -3584.55805456
[...]
  Hartree 39945.85292 39919.83939-39156.96496   -25.80771   -16.45493    17.78476
  E(xc)   -1111.27773 -1110.89380 -1150.33292    -0.01737    -0.00571    -0.01052
  Local  -83629.15481-83628.36289 85977.18998    53.81406    34.14974   -36.82552
  n-local  -288.49078  -286.43291  -264.71871     1.25876    -0.48203     0.13186
  augment    66.02016    65.16840    66.02945    -1.71041     0.33993     0.21252
  Kinetic  4390.37773  4373.38834  4967.66918    -4.99393     1.14623    -1.23260
  Fock        0.00000     0.00000     0.00000     0.00000     0.00000     0.00000
  vdW        -1.60690    -1.73487    -0.04510     0.03103     0.00156    -0.00050
  -------------------------------------------------------------------------------------
  Total      -1.95067    -1.94153    -3.46731     0.25606     0.00156    -0.00220
  in kB      -1.09608    -1.09095    -1.94828     0.14388     0.00087    -0.00124
  external pressure =       -1.38 kB  Pullay stress =        0.00 kB


 VOLUME and BASIS-vectors are now :
 -----------------------------------------------------------------------------
  energy-cutoff  :      440.00
  volume of cell :     2851.36
      direct lattice vectors                 reciprocal lattice vectors
    14.900557007 -0.060417792  0.000000000     0.067270503  0.039193260  0.000000000
    -7.450278504 12.787504481  0.000000000     0.000317836  0.078386520  0.000000000
     0.000000000  0.000000000 15.000000000     0.000000000  0.000000000  0.066666667

  length of vectors
    14.900679496 14.799558123 15.000000000     0.077855200  0.078387164  0.066666667


 FORCES acting on ions
    electron-ion (+dipol)            ewald-force                    non-local-force                 convergence-correction
 -----------------------------------------------------------------------------------------------
   0.210E+01 0.301E-01 0.683E+01   -.213E+01 -.345E-01 -.685E+01   0.581E-01 -.444E-02 0.269E-01   0.298E-05 -.285E-03 0.193E-03
   -.247E+01 -.132E+00 0.618E+01   0.253E+01 0.151E+00 -.618E+01   -.463E-01 -.376E-01 -.263E-02   0.227E-03 0.994E-04 0.180E-03
   0.967E+00 -.513E+00 0.845E+01   -.103E+01 0.631E+00 -.849E+01   0.695E-01 -.116E+00 0.528E-01   0.364E-03 0.343E-03 0.217E-03
   -.180E+01 0.470E+00 0.843E+01   0.185E+01 -.340E+00 -.848E+01   -.479E-01 -.162E+00 0.531E-01   0.123E-02 0.105E-02 0.239E-03
   0.227E+01 0.166E+00 0.680E+01   -.231E+01 0.466E-01 -.682E+01   0.619E-01 -.223E+00 0.885E-02   -.167E-03 0.405E-03 0.138E-03
   0.488E+01 -.741E+00 0.773E+01   -.492E+01 0.944E+00 -.766E+01   0.372E-01 -.227E+00 -.565E-01   -.886E-03 0.130E-02 0.266E-03
   -.839E+00 -.358E+00 0.985E+01   0.837E+00 0.486E+00 -.989E+01   0.533E-02 -.131E+00 0.291E-01   0.436E-03 -.553E-03 0.148E-03
   0.148E+01 -.279E+01 0.114E+02   -.155E+01 0.297E+01 -.115E+02   0.979E-01 -.173E+00 0.553E-01   -.212E-03 0.201E-03 0.194E-03
   -.567E+01 -.327E+01 0.631E+01   0.582E+01 0.335E+01 -.628E+01   -.160E+00 -.685E-01 -.244E-01   0.102E-02 -.193E-02 0.228E-03
   -.148E+01 -.133E+01 0.656E+01   0.149E+01 0.135E+01 -.658E+01   -.259E-01 -.330E-01 0.622E-02   0.289E-03 -.529E-03 0.127E-03
   0.187E+01 -.129E+01 0.675E+01   -.186E+01 0.128E+01 -.677E+01   -.493E-02 0.166E-01 0.247E-01   -.152E-02 -.124E-02 0.237E-03
   -.178E+01 0.158E+00 0.796E+01   0.178E+01 -.218E+00 -.799E+01   -.920E-02 0.795E-01 0.515E-01   -.374E-03 -.257E-03 0.262E-03
   0.192E+01 0.365E+01 0.737E+01   -.196E+01 -.371E+01 -.738E+01   0.141E-01 0.726E-01 0.298E-01   0.139E-03 -.116E-03 0.240E-03
   0.127E+00 0.471E+01 0.575E+01   -.116E+00 -.479E+01 -.578E+01   -.371E-01 0.796E-01 0.211E-01   0.140E-02 0.547E-03 0.155E-03
   0.271E+01 0.476E+01 0.590E+01   -.269E+01 -.465E+01 -.588E+01   -.472E-02 -.117E+00 -.355E-01   0.527E-03 0.846E-03 0.195E-03
   -.114E+01 0.909E+01 0.810E+01   0.168E+01 -.890E+01 -.817E+01   -.525E+00 -.198E+00 0.578E-01   0.174E-02 0.157E-02 0.357E-03
   0.145E+01 0.729E+01 0.733E+01   -.143E+01 -.680E+01 -.736E+01   -.275E-01 -.511E+00 0.323E-01   0.162E-03 0.134E-02 0.274E-03
   0.270E+01 0.554E+01 0.408E+00   -.242E+01 -.468E+01 0.812E-02   -.289E+00 -.912E+00 -.414E+00   0.388E-03 0.577E-02 0.781E-03
   -.934E+00 0.584E+01 0.134E+02   0.878E+00 -.558E+01 -.134E+02   0.501E-01 -.259E+00 0.869E-01   -.440E-03 0.998E-03 0.423E-03
   0.159E+01 0.676E+01 0.124E+02   -.216E+01 -.634E+01 -.125E+02   0.584E+00 -.444E+00 0.214E+00   -.159E-02 0.165E-02 0.751E-03
   -.235E+01 0.413E+01 0.864E+01   0.238E+01 -.412E+01 -.863E+01   -.646E-02 -.829E-02 -.214E-01   -.472E-03 0.975E-04 0.125E-03
   -.263E+01 0.293E+01 0.973E+01   0.251E+01 -.287E+01 -.975E+01   0.112E+00 -.449E-01 0.221E-01   -.101E-02 0.362E-03 0.168E-03
   -.148E+01 0.254E+01 0.597E+01   0.152E+01 -.254E+01 -.595E+01   -.509E-01 0.896E-02 -.179E-01   -.127E-03 -.638E-03 0.171E-03
   -.114E+01 0.242E+01 0.543E+01   0.107E+01 -.247E+01 -.546E+01   0.344E-01 0.517E-01 0.105E-01   -.773E-04 0.425E-03 0.128E-03
   0.133E+01 0.424E+01 0.460E+01   -.131E+01 -.432E+01 -.459E+01   -.279E-01 0.970E-01 0.258E-02   -.416E-03 0.836E-03 0.158E-03
   0.452E+01 0.579E+01 0.376E+01   -.456E+01 -.586E+01 -.378E+01   0.406E-01 0.829E-01 0.128E-01   -.258E-04 0.212E-03 0.125E-03
   0.466E+01 0.120E+02 0.527E+01   -.445E+01 -.121E+02 -.529E+01   -.225E+00 0.961E-01 -.130E-01   0.814E-03 0.107E-02 0.151E-03
   0.117E+02 0.105E+02 0.341E+01   -.116E+02 -.105E+02 -.346E+01   -.661E-01 0.277E-01 0.372E-01   0.265E-02 0.209E-02 0.387E-03
   -.339E+01 0.216E+02 0.162E+02   0.371E+01 -.208E+02 -.164E+02   -.325E+00 -.771E+00 0.180E+00   0.525E-02 0.349E-02 0.140E-02
   -.677E+01 0.435E+02 0.561E+02   0.137E+02 -.400E+02 -.559E+02   -.702E+01 -.347E+01 -.195E+00   0.162E-01 0.143E-01 0.620E-02
   0.412E+01 0.216E+02 -.596E+01   -.420E+01 -.202E+02 0.603E+01   0.949E-01 -.139E+01 -.497E-01   -.506E-02 0.520E-02 0.794E-03
   0.124E+00 0.407E+02 -.403E+02   -.749E+01 -.363E+02 0.424E+02   0.741E+01 -.439E+01 -.208E+01   -.158E-01 0.143E-01 0.298E-02
   -.445E+01 0.106E+02 0.108E+02   0.420E+01 -.106E+02 -.106E+02   0.239E+00 0.263E-02 -.140E+00   -.130E-02 0.153E-02 0.651E-03
   -.121E+02 0.627E+01 0.156E+02   0.117E+02 -.617E+01 -.159E+02   0.476E+00 -.114E+00 0.331E+00   -.256E-02 0.118E-02 0.112E-02
   -.270E+01 0.302E+01 0.684E+01   0.263E+01 -.306E+01 -.682E+01   0.445E-01 0.638E-01 -.433E-01   -.101E-03 0.587E-03 0.103E-03
   -.343E+01 0.499E+01 0.890E+01   0.334E+01 -.506E+01 -.895E+01   0.837E-01 0.596E-01 0.386E-01   -.611E-04 -.167E-03 0.964E-04
   -.627E+00 0.108E+01 0.523E+01   0.583E+00 -.109E+01 -.525E+01   0.555E-01 -.805E-02 0.688E-02   0.240E-03 -.743E-04 0.899E-04
   0.186E+01 -.250E-01 0.498E+01   -.199E+01 -.638E-01 -.499E+01   0.121E+00 0.613E-01 -.880E-02   0.221E-03 -.192E-03 0.957E-04
   0.662E+01 0.355E+01 0.255E+01   -.665E+01 -.373E+01 -.246E+01   0.226E-01 0.190E+00 -.928E-01   0.178E-02 0.125E-02 0.216E-03
   0.965E+01 0.194E+01 0.853E+01   -.998E+01 -.226E+01 -.861E+01   0.354E+00 0.321E+00 0.851E-01   0.234E-02 -.663E-03 0.302E-03
   0.304E+02 0.165E+02 0.180E+02   -.295E+02 -.178E+02 -.187E+02   -.888E+00 0.129E+01 0.662E+00   0.610E-02 0.809E-02 0.199E-02
   0.529E+02 0.153E+02 0.107E+02   -.562E+02 -.175E+02 -.113E+02   0.328E+01 0.221E+01 0.643E+00   0.743E-02 -.513E-02 0.159E-02
   -.256E+02 0.691E+01 0.277E+01   0.244E+02 -.761E+01 -.274E+01   0.119E+01 0.688E+00 -.113E-01   -.782E-02 0.555E-02 0.186E-02
   -.262E+02 -.709E+01 0.162E+02   0.253E+02 0.711E+01 -.165E+02   0.889E+00 -.471E-01 0.251E+00   -.612E-02 -.640E-02 0.198E-02
   -.612E+01 -.333E+00 0.130E+02   0.596E+01 0.244E+00 -.131E+02   0.153E+00 0.999E-01 0.969E-01   -.209E-02 0.716E-03 0.379E-03
   -.421E+01 -.686E+00 0.722E+01   0.411E+01 0.641E+00 -.716E+01   0.129E+00 0.507E-01 -.706E-01   -.150E-02 -.104E-02 0.233E-03
   -.376E+01 -.525E+01 0.507E+01   0.369E+01 0.523E+01 -.510E+01   0.641E-01 0.349E-01 0.148E-01   -.321E-03 -.280E-03 0.917E-04
   -.158E+00 -.382E+01 0.528E+01   0.223E-01 0.382E+01 -.527E+01   0.135E+00 0.824E-02 -.142E-01   0.349E-03 -.488E-03 0.118E-03
   0.521E+01 -.416E+01 0.704E+01   -.532E+01 0.412E+01 -.706E+01   0.124E+00 0.298E-01 0.257E-01   0.432E-03 0.545E-04 0.152E-03
   0.535E+01 -.372E+01 0.603E+01   -.545E+01 0.376E+01 -.602E+01   0.107E+00 -.173E-01 -.111E-01   0.872E-04 -.451E-03 0.156E-03
   0.233E+02 -.397E+01 0.122E+02   -.239E+02 0.393E+01 -.124E+02   0.588E+00 0.444E-01 0.194E+00   0.388E-02 -.168E-02 0.700E-03
   0.119E+02 -.144E+02 0.743E+01   -.121E+02 0.148E+02 -.731E+01   0.224E+00 -.325E+00 -.108E+00   0.142E-02 -.122E-02 0.416E-03
   -.150E+02 -.375E+02 -.167E+02   0.339E+02 0.266E+02 0.190E+02   -.189E+02 0.109E+02 -.225E+01   0.224E-01 -.201E-01 0.419E-02
   -.115E+02 -.545E+02 0.139E+01   0.121E+02 0.584E+02 -.184E+01   -.666E+00 -.394E+01 0.447E+00   0.488E-02 -.473E-02 0.794E-03
   -.172E+00 -.338E+02 0.434E+02   -.624E+01 0.297E+02 -.427E+02   0.644E+01 0.408E+01 -.647E+00   -.159E-01 -.140E-01 0.574E-02
   -.152E+01 -.237E+02 0.146E+02   0.165E+01 0.226E+02 -.148E+02   -.104E+00 0.109E+01 0.274E+00   -.553E-02 -.391E-02 0.124E-02
   -.133E+02 -.767E+01 0.993E+01   0.130E+02 0.755E+01 -.100E+02   0.291E+00 0.135E+00 0.780E-01   -.317E-02 -.213E-02 0.464E-03
   -.378E+01 -.119E+02 0.829E+01   0.352E+01 0.119E+02 -.831E+01   0.257E+00 0.222E-01 -.866E-02   -.123E-02 -.751E-03 0.163E-03
   -.129E+01 -.407E+01 0.744E+01   0.119E+01 0.410E+01 -.747E+01   0.118E+00 -.241E-01 0.276E-01   -.121E-02 -.300E-03 0.138E-03
   -.111E+01 -.479E+01 0.778E+01   0.110E+01 0.484E+01 -.779E+01   0.226E-01 -.405E-01 0.198E-01   -.397E-03 0.172E-03 0.214E-03
   0.120E+01 -.293E+01 0.542E+01   -.130E+01 0.299E+01 -.544E+01   0.129E+00 -.782E-01 0.104E-01   0.403E-03 -.507E-03 0.131E-03
   0.162E+01 -.360E+01 0.591E+01   -.165E+01 0.369E+01 -.589E+01   0.566E-01 -.952E-01 -.271E-01   0.188E-04 0.510E-03 0.142E-03
   0.556E+01 -.512E+01 0.718E+01   -.584E+01 0.537E+01 -.721E+01   0.281E+00 -.256E+00 0.352E-01   0.187E-02 -.104E-02 0.183E-03
   0.390E+01 -.630E+01 0.725E+01   -.398E+01 0.650E+01 -.725E+01   0.828E-01 -.215E+00 -.193E-01   0.763E-03 -.940E-04 0.116E-03
   0.209E+01 -.180E+02 0.102E+02   -.202E+01 0.185E+02 -.103E+02   -.837E-01 -.457E+00 0.129E+00   0.196E-02 -.209E-02 0.486E-03
   0.191E+01 -.105E+02 0.105E+02   -.180E+01 0.109E+02 -.105E+02   -.107E+00 -.415E+00 0.572E-01   0.708E-03 -.153E-02 0.284E-03
   -.855E+01 -.125E+02 0.161E+01   0.936E+01 0.122E+02 -.146E+01   -.812E+00 0.364E+00 -.154E+00   -.166E-02 -.614E-02 0.778E-03
   -.410E+01 -.819E+01 0.511E+01   0.413E+01 0.799E+01 -.513E+01   -.564E-01 0.214E+00 0.237E-01   -.774E-03 -.125E-02 0.244E-03
   0.812E+00 -.847E+01 0.784E+01   -.121E+01 0.823E+01 -.791E+01   0.405E+00 0.220E+00 0.523E-01   -.134E-02 -.155E-02 0.279E-03
   -.316E+01 -.563E+01 0.576E+01   0.314E+01 0.551E+01 -.573E+01   0.387E-01 0.111E+00 -.334E-01   -.412E-03 -.933E-03 0.176E-03
   -.185E+02 0.156E+02 -.555E+03   0.225E+02 -.192E+02 0.542E+03   -.395E+01 0.366E+01 0.132E+02   -.208E-02 -.123E-02 -.213E-01
 -----------------------------------------------------------------------------------------------
   0.939E+01 -.685E+01 -.112E+02   0.348E-12 -.238E-12 0.000E+00   -.939E+01 0.686E+01 0.112E+02   0.647E-02 -.755E-02 0.252E-01
 
 
 POSITION                                       TOTAL-FORCE (eV/Angst)
 -----------------------------------------------------------------------------------
      7.44694     12.72295      7.46887         0.025713     -0.008409      0.004759
      0.00067      1.42029      7.47085         0.014318     -0.019505      0.001389
      2.48135      0.02063      7.46070         0.005902      0.004220      0.014863
      2.48380      1.44549      7.47366         0.005219     -0.030728      0.002894
      4.95904      0.01316      7.46397         0.016962     -0.008165     -0.010584
      4.96758      1.43329      7.47400        -0.003663     -0.022043      0.012914
      7.44590     -0.02857      7.45854         0.003963     -0.001447     -0.008308
      7.45522      1.38775      7.45333         0.024199      0.003554     -0.005630
      2.48528     12.71027      7.47953        -0.004567      0.000526      0.005834
      9.94391      1.34559      7.46467        -0.007264     -0.007813     -0.015439
      4.96157     12.69390      7.47939         0.006688      0.001508      0.005804
     12.41842      1.33254      7.46425        -0.017174      0.018040      0.023676
     13.65745      2.05425      7.46700        -0.022874      0.014914      0.019763
     -1.24314      3.53902      7.47849        -0.024390      0.001056     -0.002612
      1.24211      2.14591      7.48235         0.015641     -0.004808     -0.009457
      1.24482      3.57377      7.50204         0.024906     -0.005132     -0.011021
      3.72859      2.16717      7.49555        -0.014870     -0.021585      0.001576
      3.73876      3.58598      7.55891        -0.008344     -0.030453      0.004391
      6.21895      2.11392      7.46546        -0.010193      0.007618      0.017991
      6.23198      3.53295      7.50512         0.010853     -0.026381      0.023764
      8.70933      2.06763      7.45776         0.018538      0.005937     -0.013973
      8.71990      3.48594      7.46323        -0.009438      0.013457      0.007061
     11.18472      2.05126      7.46412        -0.009059      0.004473      0.000729
     11.18788      3.47308      7.46610        -0.029608      0.006901     -0.016043
     12.42232      4.18696      7.47552        -0.002774      0.016872      0.005832
     -2.48841      5.67247      7.48362        -0.001313      0.008091     -0.006695
     -0.00674      4.26191      7.50147        -0.012741     -0.008234     -0.031668
     -0.03597      5.68231      7.52457        -0.012392      0.010723     -0.018181
      2.48591      4.31481      7.53324         0.019517      0.021257      0.007775
      2.43076      5.73374      7.55952         0.000730      0.012873     -0.006720
      5.00525      4.27621      7.61641        -0.007454      0.017736      0.020642
      5.06780      5.67554      7.78949         0.008274     -0.010466      0.018113
      7.48957      4.20412      7.48855        -0.013038      0.004763      0.027408
      7.51633      5.61898      7.50416         0.000328     -0.012428      0.012792
      9.95697      4.19005      7.46425        -0.020230      0.019861     -0.019728
      9.96112      5.61596      7.46535        -0.006163     -0.009326     -0.006258
     -3.71521      6.39172      7.47348         0.011537     -0.021382     -0.012060
     -3.72381      7.81401      7.47407        -0.000165     -0.025948     -0.014124
     -1.26828      6.38813      7.50385        -0.010068      0.003455     -0.007950
     -1.28016      7.81032      7.49061         0.018097     -0.002874      0.001679
      1.19145      6.39774      7.55659        -0.002911      0.001474     -0.009706
      1.16385      7.84493      7.59065         0.029129      0.006087     -0.000855
      6.30268      6.32229      7.61381        -0.012176     -0.016331      0.019497
      6.29000      7.76134      7.56394         0.007685     -0.025283      0.005240
      8.74144      6.33279      7.47429        -0.005875      0.010322     -0.001045
      8.73276      7.75654      7.48611         0.023728      0.007052     -0.008336
     -4.94973      8.53169      7.47588        -0.015560      0.014652     -0.015507
     -4.96597      9.95722      7.47028        -0.000344      0.015601     -0.007976
     -2.49971      8.52854      7.47419         0.012247     -0.004612      0.005236
     -2.50098      9.95270      7.46999         0.004569      0.023527     -0.001352
     -0.05921      8.53155      7.51325        -0.011663      0.001460      0.001134
     -0.03959      9.94503      7.49978        -0.023863      0.020101      0.010395
      2.35161      8.49706      7.70760        -0.028817      0.014083     -0.019596
      2.42948      9.85795      7.59313        -0.021652     -0.007583      0.001316
      5.04354      8.40796      7.58782        -0.013520     -0.008801      0.019274
      4.96665      9.81949      7.53999         0.003030      0.002438      0.005266
      7.50457      8.47319      7.50674        -0.003185      0.019025     -0.017687
      7.46413      9.88959      7.49012         0.004971      0.027174     -0.022931
     -6.20155     10.66805      7.47019         0.012587      0.015368     -0.004450
     -6.20694     12.08905      7.46303         0.014366      0.011667      0.011040
     -3.73350     10.67096      7.46595         0.027058     -0.016597     -0.011092
     -3.73234     12.09292      7.46316         0.018657     -0.005698     -0.007584
     -1.26842     10.66136      7.47359         0.003036     -0.008600      0.001244
     -1.25675     12.07921      7.46367         0.002605     -0.012665     -0.014636
      1.21420     10.61615      7.50997        -0.004137      0.001879      0.017923
      1.23364     12.03408      7.47439         0.005314     -0.010377      0.012644
      3.70709     10.53791      7.55491        -0.001982      0.010458      0.005204
      3.71616     11.96640      7.50165        -0.027149      0.010483      0.006061
      6.20728     10.57003      7.50180        -0.000021     -0.012272     -0.014999
      6.20512     11.99660      7.48319         0.012027     -0.013473     -0.006292
      3.72291      7.06993      8.23420         0.008242      0.008734      0.017368
 -----------------------------------------------------------------------------------
    total drift:                                0.004367      0.002953      0.001133


--------------------------------------------------------------------------------------------------------



  FREE ENERGIE OF THE ION-ELECTRON SYSTEM (eV)
  ---------------------------------------------------
  free  energy   TOTEN  =      -655.37436798 eV

  energy  without entropy=     -655.34117079  energy(sigma->0) =     -655.35776939
 
 d Force = 0.2432024E-04[-0.279E-05, 0.514E-04]  d Energy = 0.4583640E-04-0.215E-04
 d Force =-0.2084896E+00[-0.209E+00,-0.208E+00]  d Ewald  =-0.2084895E+00-0.114E-06


--------------------------------------------------------------------------------------------------------


    POTLOK:  cpu time    0.4173: real time    0.4190


--------------------------------------------------------------------------------------------------------


 stress matrix after NEB project (eV)
     -1.95067      0.25606     -0.00220
      0.25606     -1.94153      0.00156
     -0.00220      0.00156     -3.46731
  FORCES: max atom, RMS     0.037587    0.023982
  FORCE total and by dimension    0.202075    0.031668
  Stress total and by dimension    4.441630    3.467313


--------------------------------------------------------------------------------------------------------


  
 reached required accuracy - stopping structural energy minimisation
     LOOP+:  cpu time   45.3243: real time   45.6831
    4ORBIT:  cpu time    0.0000: real time    0.0000

 total amount of memory used by VASP MPI-rank0   111715. kBytes
=======================================================================

   base      :      30000. kBytes
   nonlr-proj:       9887. kBytes
   fftplans  :      10853. kBytes
   grid      :      30996. kBytes
   one-center:        186. kBytes
   wavefun   :      29793. kBytes
 
  
  
 General timing and accounting informations for this job:
 ========================================================
  
                  Total CPU time used (sec):     1499.416
                            User time (sec):     1488.229
                          System time (sec):       11.187
                         Elapsed time (sec):     1517.504
  
                   Maximum memory used (kb):      488240.
                   Average memory used (kb):           0.
  
                          Minor page faults:      1969975
                          Major page faults:            0
                 Voluntary context switches:        11096
