       N       E                     dE             d eps       ncg     rms          rms(c)
DAV:   1     0.268166445562E+04    0.26817E+04   -0.10451E+05  3872   0.117E+03
DAV:   2    -0.379015103103E+01   -0.26855E+04   -0.25738E+04  4648   0.310E+02
DAV:   3    -0.494944368123E+03   -0.49115E+03   -0.48672E+03  3984   0.150E+02
DAV:   4    -0.513240079351E+03   -0.18296E+02   -0.17849E+02  4208   0.409E+01
DAV:   5    -0.513954654198E+03   -0.71457E+00   -0.70877E+00  4808   0.638E+00    0.450E+01
DAV:   6    -0.481953335378E+03    0.32001E+02   -0.51098E+01  4416   0.278E+01    0.291E+01
DAV:   7    -0.473452412880E+03    0.85009E+01   -0.50792E+01  4112   0.207E+01    0.176E+01
DAV:   8    -0.471382802684E+03    0.20696E+01   -0.11946E+01  3984   0.137E+01    0.123E+01
DAV:   9    -0.471667553079E+03   -0.28475E+00   -0.11796E+01  5016   0.118E+01    0.663E+00
DAV:  10    -0.470908740879E+03    0.75881E+00   -0.59826E+00  4824   0.914E+00    0.325E+00
DAV:  11    -0.470852359831E+03    0.56381E-01   -0.14868E+00  4896   0.413E+00    0.202E+00
DAV:  12    -0.470796352247E+03    0.56008E-01   -0.10050E+00  4688   0.270E+00    0.133E+00
DAV:  13    -0.470759796614E+03    0.36556E-01   -0.26718E-01  4024   0.180E+00    0.527E-01
DAV:  14    -0.470760642795E+03   -0.84618E-03   -0.48397E-02  3792   0.704E-01    0.307E-01
DAV:  15    -0.470760039975E+03    0.60282E-03   -0.71124E-03  4592   0.354E-01    0.215E-01
DAV:  16    -0.470760099142E+03   -0.59167E-04   -0.16656E-03  4504   0.142E-01    0.138E-01
DAV:  17    -0.470760120929E+03   -0.21787E-04   -0.22206E-04  2536   0.668E-02
   1 F= -.47485074E+03 E0= -.47485074E+03  d E =0.000000E+00  mag=     0.0000
