 vasp.5.4.4.18Apr17-6-g9f103f2a35 (build Jan 14 2022 15:04:31) complex          
  
 executed on             LinuxIFC date 2023.04.05  11:31:15
 running on   48 total cores
 distrk:  each k-point on   48 cores,    1 groups
 distr:  one band on NCORES_PER_BAND=  12 cores,    4 groups


--------------------------------------------------------------------------------------------------------


 INCAR:
 POTCAR:    PAW_PBE C 08Apr2002                   
 POTCAR:    PAW_PBE N 08Apr2002                   
 POTCAR:    PAW_PBE Ge_d 03Jul2007                
 POTCAR:    PAW_PBE C 08Apr2002                   
   SHA256 =  253f7b50bb8d59471dbedb8285d89021f4a42ed1a2c5d38a03a736e69125dd95 C/
   COPYR  = (c) Copyright 08Apr2002 Georg Kresse                                
   COPYR  = This file is part of the software VASP. Any use, copying, and all ot
   COPYR  = If you do not have a valid VASP license, you may not use, copy or di
   VRHFIN =C: s2p2                                                              
   LEXCH  = PE                                                                  
   EATOM  =   147.1560 eV,   10.8157 Ry                                         
                                                                                
   TITEL  = PAW_PBE C 08Apr2002                                                 
   LULTRA =        F    use ultrasoft PP ?                                      
   IUNSCR =        1    unscreen: 0-lin 1-nonlin 2-no                           
   RPACOR =    1.200    partial core radius                                     
   POMASS =   12.011; ZVAL   =    4.000    mass and valenz                      
   RCORE  =    1.500    outmost cutoff radius                                   
   RWIGS  =    1.630; RWIGS  =    0.863    wigner-seitz radius (au A)           
   ENMAX  =  400.000; ENMIN  =  300.000 eV                                      
   ICORE  =        2    local potential                                         
   LCOR   =        T    correct aug charges                                     
   LPAW   =        T    paw PP                                                  
   EAUG   =  644.873                                                            
   DEXC   =    0.000                                                            
   RMAX   =    1.529    core radius for proj-oper                               
   RAUG   =    1.300    factor for augmentation sphere                          
   RDEP   =    1.501    radius for radial grids                                 
   RDEPT  =    1.300    core radius for aug-charge                              
                                                                                
   Atomic configuration                                                         
    4 entries                                                                   
     n  l   j            E        occ.                                          
     1  0  0.50      -273.3789   2.0000                                         
     2  0  0.50       -13.7508   2.0000                                         
     2  1  0.50        -5.2854   2.0000                                         
     3  2  1.50        -5.4423   0.0000                                         
   Description                                                                  
     l       E           TYP  RCUT    TYP  RCUT                                 
     0    -13.7508458     23  1.200                                             
     0     -8.2022199     23  1.200                                             
     1     -5.2854383     23  1.500                                             
     1     34.0145650     23  1.500                                             
     2     -5.4423304      7  1.500                                             
  local pseudopotential read in
  partial core-charges read in
  partial kinetic energy density read in
  atomic valenz-charges read in
  non local Contribution for L=           0  read in
    real space projection operators read in
  non local Contribution for L=           0  read in
    real space projection operators read in
  non local Contribution for L=           1  read in
    real space projection operators read in
  non local Contribution for L=           1  read in
    real space projection operators read in
    PAW grid and wavefunctions read in
 
   number of l-projection  operators is LMAX  =           4
   number of lm-projection operators is LMMAX =           8
 
 POTCAR:    PAW_PBE N 08Apr2002                   
   SHA256 =  e053789ff3a61a86a1b75d8a110fcc91f86041011e7b0817c7c99e4e8a6349d7 N/
   COPYR  = (c) Copyright 08Apr2002 Georg Kresse                                
   COPYR  = This file is part of the software VASP. Any use, copying, and all ot
   COPYR  = If you do not have a valid VASP license, you may not use, copy or di
   VRHFIN =N: s2p3                                                              
   LEXCH  = PE                                                                  
   EATOM  =   264.5486 eV,   19.4438 Ry                                         
                                                                                
   TITEL  = PAW_PBE N 08Apr2002                                                 
   LULTRA =        F    use ultrasoft PP ?                                      
   IUNSCR =        1    unscreen: 0-lin 1-nonlin 2-no                           
   RPACOR =    1.200    partial core radius                                     
   POMASS =   14.001; ZVAL   =    5.000    mass and valenz                      
   RCORE  =    1.500    outmost cutoff radius                                   
   RWIGS  =    1.400; RWIGS  =    0.741    wigner-seitz radius (au A)           
   ENMAX  =  400.000; ENMIN  =  300.000 eV                                      
   ICORE  =        2    local potential                                         
   LCOR   =        T    correct aug charges                                     
   LPAW   =        T    paw PP                                                  
   EAUG   =  627.112                                                            
   DEXC   =    0.000                                                            
   RMAX   =    1.529    core radius for proj-oper                               
   RAUG   =    1.300    factor for augmentation sphere                          
   RDEP   =    1.514    radius for radial grids                                 
   RDEPT  =    1.338    core radius for aug-charge                              
                                                                                
   Atomic configuration                                                         
    4 entries                                                                   
     n  l   j            E        occ.                                          
     1  0  0.50      -384.7179   2.0000                                         
     2  0  0.50       -18.5828   2.0000                                         
     2  1  0.50        -7.0898   3.0000                                         
     3  2  1.50        -6.8029   0.0000                                         
   Description                                                                  
     l       E           TYP  RCUT    TYP  RCUT                                 
     0    -18.5828119     23  1.200                                             
     0    -13.5018863     23  1.200                                             
     1     -7.0897853     23  1.500                                             
     1      9.5240782     23  1.500                                             
     2     -6.8029130      7  1.500                                             
  local pseudopotential read in
  partial core-charges read in
  partial kinetic energy density read in
  atomic valenz-charges read in
  non local Contribution for L=           0  read in
    real space projection operators read in
  non local Contribution for L=           0  read in
    real space projection operators read in
  non local Contribution for L=           1  read in
    real space projection operators read in
  non local Contribution for L=           1  read in
    real space projection operators read in
    PAW grid and wavefunctions read in
 
   number of l-projection  operators is LMAX  =           4
   number of lm-projection operators is LMMAX =           8
 
 POTCAR:    PAW_PBE Ge_d 03Jul2007                
   SHA256 =  944b26c40d2d7c4f4eb1ff3a2e8dbfdd7129146276cd341854bfd5c0e57780ed Ge
   COPYR  = (c) Copyright 03Jul2007 Georg Kresse                                
   COPYR  = This file is part of the software VASP. Any use, copying, and all ot
   COPYR  = If you do not have a valid VASP license, you may not use, copy or di
   VRHFIN =Ge: 3d4s4p                                                           
   LEXCH  = PE                                                                  
   EATOM  =  2596.2402 eV,  190.8183 Ry                                         
                                                                                
   TITEL  = PAW_PBE Ge_d 03Jul2007                                              
   LULTRA =        F    use ultrasoft PP ?                                      
   IUNSCR =        1    unscreen: 0-lin 1-nonlin 2-no                           
   RPACOR =    2.000    partial core radius                                     
   POMASS =   72.610; ZVAL   =   14.000    mass and valenz                      
   RCORE  =    2.300    outmost cutoff radius                                   
   RWIGS  =    2.300; RWIGS  =    1.217    wigner-seitz radius (au A)           
   ENMAX  =  310.294; ENMIN  =  232.720 eV                                      
   ICORE  =        3    local potential                                         
   LCOR   =        T    correct aug charges                                     
   LPAW   =        T    paw PP                                                  
   EAUG   =  531.356                                                            
   DEXC   =    0.000                                                            
   RMAX   =    2.342    core radius for proj-oper                               
   RAUG   =    1.300    factor for augmentation sphere                          
   RDEP   =    2.318    radius for radial grids                                 
   RDEPT  =    1.783    core radius for aug-charge                              
                                                                                
   Atomic configuration                                                         
    9 entries                                                                   
     n  l   j            E        occ.                                          
     1  0  0.50    -10959.8463   2.0000                                         
     2  0  0.50     -1371.6056   2.0000                                         
     2  1  1.50     -1198.4791   6.0000                                         
     3  0  0.50      -168.4733   2.0000                                         
     3  1  1.50      -115.6019   6.0000                                         
     3  2  2.50       -29.3106  10.0000                                         
     4  0  0.50       -11.7309   2.0000                                         
     4  1  0.50        -3.8952   2.0000                                         
     4  3  2.50        -4.0817   0.0000                                         
   Description                                                                  
     l       E           TYP  RCUT    TYP  RCUT                                 
     2    -29.3105938     23  2.200                                             
     2    -13.6058260     23  2.200                                             
     0    -11.7309493     23  2.300                                             
     0     -7.4578696     23  2.300                                             
     1     -3.8952261     23  2.300                                             
     1      6.1178114     23  2.300                                             
     3     -1.3605826     23  2.300                                             
  local pseudopotential read in
  partial core-charges read in
  partial kinetic energy density read in
  atomic valenz-charges read in
  non local Contribution for L=           2  read in
    real space projection operators read in
  non local Contribution for L=           2  read in
    real space projection operators read in
  non local Contribution for L=           0  read in
    real space projection operators read in
  non local Contribution for L=           0  read in
    real space projection operators read in
  non local Contribution for L=           1  read in
    real space projection operators read in
  non local Contribution for L=           1  read in
    real space projection operators read in
    PAW grid and wavefunctions read in
 
   number of l-projection  operators is LMAX  =           6
   number of lm-projection operators is LMMAX =          18
 

 ----------------------------------------------------------------------------- 
|                                                                             |
|  ADVICE TO THIS USER RUNNING 'VASP/VAMP'   (HEAR YOUR MASTER'S VOICE ...):  |
|                                                                             |
|      You have a (more or less) 'large supercell' and for larger cells       |
|      it might be more efficient to use real space projection opertators     |
|      So try LREAL= Auto  in the INCAR   file.                               |
|      Mind:          For very  accurate calculation you might also keep the  |
|      reciprocal projection scheme          (i.e. LREAL=.FALSE.)             |
|                                                                             |
 ----------------------------------------------------------------------------- 

  PAW_PBE C 08Apr2002                   :
 energy of atom  1       EATOM= -147.1560
 kinetic energy error for atom=    0.0132 (will be added to EATOM!!)
  PAW_PBE N 08Apr2002                   :
 energy of atom  2       EATOM= -264.5486
 kinetic energy error for atom=    0.0298 (will be added to EATOM!!)
  PAW_PBE Ge_d 03Jul2007                :
 energy of atom  3       EATOM=-2596.2402
 kinetic energy error for atom=    0.0090 (will be added to EATOM!!)
 
 
 POSCAR: POSCAR-c3n4                             
  positions in cartesian coordinates
  No initial velocities read in
 exchange correlation table for  LEXCH =        8
   RHO(1)=    0.500       N(1)  =     2000
   RHO(2)=  100.500       N(2)  =     4000

 VTST: version 3.2, (02/03/18)

 CHAIN: initializing optimizer
 
 OPT: Using VASP Dynamics algorithm
 CHAIN: Read ICHAIN            0
 
 POSCAR: POSCAR-c3n4                             
  positions in cartesian coordinates
  No initial velocities read in
 


--------------------------------------------------------------------------------------------------------


 ion  position               nearest neighbor table
   1  0.106  0.214  0.426-  26 1.29  46 1.29  25 1.36
   2  0.288  0.399  0.433-  29 1.27  35 1.33  25 1.38
   3  0.104  0.392  0.427-  44 1.27  39 1.32  25 1.37
   4  0.447  0.064  0.506-  30 1.27  27 1.28  48 1.35
   5  0.453  0.401  0.413-  28 1.28  29 1.29  56 1.37
   6  0.112  0.053  0.449-  26 1.27  31 1.28  32 1.34
   7  0.096  0.712  0.484-  54 1.28  34 1.30  33 1.35
   8  0.284  0.890  0.501-  27 1.28  37 1.30  33 1.36
   9  0.109  0.895  0.498-  31 1.27  52 1.29  33 1.38
  10  0.448  0.548  0.502-  38 1.27  56 1.30  35 1.30
  11  0.445  0.885  0.489-  37 1.28  36 1.29  48 1.33
  12  0.087  0.542  0.481-  34 1.27  40 1.29  39 1.30
  13  0.616  0.223  0.473-  42 1.30  30 1.30  41 1.35
  14  0.780  0.390  0.400-  45 1.29  51 1.31  41 1.35
  15  0.610  0.394  0.435-  28 1.29  55 1.29  41 1.39
  16  0.940  0.052  0.461-  46 1.27  43 1.28  32 1.34
  17  0.941  0.387  0.394-  45 1.27  44 1.29  40 1.37
  18  0.623  0.066  0.512-  42 1.28  47 1.29  48 1.35
  19  0.613  0.711  0.531-  50 1.27  38 1.31  49 1.35
  20  0.790  0.897  0.523-  43 1.27  53 1.29  49 1.39
  21  0.609  0.892  0.521-  47 1.28  36 1.29  49 1.38
  22  0.938  0.563  0.421-  51 1.26  54 1.29  40 1.36
  23  0.954  0.902  0.535-  52 1.29  53 1.29  32 1.34
  24  0.621  0.555  0.490-  55 1.26  50 1.28  56 1.36
  25  0.167  0.335  0.425-   1 1.36   3 1.37   2 1.38
  26  0.165  0.161  0.421-   6 1.27   1 1.29
  27  0.336  0.002  0.522-   8 1.28   4 1.28
  28  0.512  0.352  0.392-   5 1.28  15 1.29
  29  0.345  0.361  0.390-   2 1.27   5 1.29
  30  0.506  0.177  0.493-   4 1.27  13 1.30
  31  0.159  0.988  0.447-   9 1.27   6 1.28
  32  0.002  0.002  0.483-  16 1.34  23 1.34   6 1.34
  33  0.165  0.831  0.500-   7 1.35   8 1.36   9 1.38
  34  0.134  0.645  0.518-  12 1.27   7 1.30
  35  0.334  0.491  0.492-  10 1.30   2 1.33  57 1.98
  36  0.503  0.831  0.490-  11 1.29  21 1.29
  37  0.333  0.829  0.479-  11 1.28   8 1.30
  38  0.499  0.648  0.545-  10 1.27  19 1.31
  39  0.142  0.484  0.485-  12 1.30   3 1.32  57 1.99
  40  0.988  0.496  0.436-  12 1.29  22 1.36  17 1.37
  41  0.667  0.330  0.429-  13 1.35  14 1.35  15 1.39
  42  0.680  0.178  0.495-  18 1.28  13 1.30
  43  0.827  0.986  0.468-  20 1.27  16 1.28
  44  0.011  0.348  0.379-   3 1.27  17 1.29
  45  0.830  0.330  0.380-  17 1.27  14 1.29
  46  0.993  0.161  0.435-  16 1.27   1 1.29
  47  0.669  0.005  0.539-  21 1.28  18 1.29
  48  0.505  0.004  0.498-  11 1.33  18 1.35   4 1.35
  49  0.668  0.832  0.534-  19 1.35  21 1.38  20 1.39
  50  0.675  0.666  0.512-  19 1.27  24 1.28
  51  0.832  0.507  0.396-  22 1.26  14 1.31
  52  0.016  0.853  0.549-  23 1.29   9 1.29
  53  0.849  0.860  0.566-  20 1.29  23 1.29
  54  0.004  0.677  0.435-   7 1.28  22 1.29
  55  0.668  0.491  0.484-  24 1.26  15 1.29
  56  0.506  0.502  0.467-  10 1.30  24 1.36   5 1.37
  57  0.287  0.593  0.558-  35 1.98  39 1.99
 

IMPORTANT INFORMATION: All symmetrisations will be switched off!
NOSYMM: (Re-)initialisation of all symmetry stuff for point group C_1.

 
 
 KPOINTS: K-Points                                

Automatic generation of k-mesh.
Space group operators:
 irot       det(A)        alpha          n_x          n_y          n_z        tau_x        tau_y        tau_z
    1     1.000000     0.000000     1.000000     0.000000     0.000000     0.000000     0.000000     0.000000
 
 Subroutine IBZKPT returns following result:
 ===========================================
 
 Found      5 irreducible k-points:
 
 Following reciprocal coordinates:
            Coordinates               Weight
  0.000000  0.000000  0.000000      1.000000
  0.333333 -0.000000  0.000000      2.000000
  0.000000  0.333333  0.000000      2.000000
  0.333333  0.333333  0.000000      2.000000
 -0.333333  0.333333  0.000000      2.000000
 
 Following cartesian coordinates:
            Coordinates               Weight
  0.000000  0.000000  0.000000      1.000000
  0.024277  0.014368  0.000000      2.000000
  0.000396  0.028736  0.000000      2.000000
  0.024673  0.043104  0.000000      2.000000
 -0.023881  0.014368  0.000000      2.000000
 
 TETIRR: Found     24 inequivalent tetrahedra from       54


--------------------------------------------------------------------------------------------------------




 Dimension of arrays:
   k-points           NKPTS =      5   k-points in BZ     NKDIM =      5   number of bands    NBANDS=    168
   number of dos      NEDOS =   4000   number of ions     NIONS =     57
   non local maximal  LDIM  =      6   non local SUM 2l+1 LMDIM =     18
   total plane-waves  NPLWV = 392000
   max r-space proj   IRMAX =      1   max aug-charges    IRDMAX=   6385
   dimension x,y,z NGX =    70 NGY =   70 NGZ =   80
   dimension x,y,z NGXF=   140 NGYF=  140 NGZF=  160
   support grid    NGXF=   140 NGYF=  140 NGZF=  160
   ions per type =              24  32   1
   NGX,Y,Z   is equivalent  to a cutoff of   8.76,  8.92,  9.24 a.u.
   NGXF,Y,Z  is equivalent  to a cutoff of  17.51, 17.84, 18.47 a.u.

 SYSTEM =  unknown system                          
 POSCAR =  POSCAR-c3n4                             

 Startparameter for this run:
   NWRITE =      2    write-flag & timer
   PREC   = normal    normal or accurate (medium, high low for compatibility)
   ISTART =      0    job   : 0-new  1-cont  2-samecut
   ICHARG =      2    charge: 1-file 2-atom 10-const
   ISPIN  =      2    spin polarized calculation?
   LNONCOLLINEAR =      F non collinear calculations
   LSORBIT =      F    spin-orbit coupling
   INIWAV =      1    electr: 0-lowe 1-rand  2-diag
   LASPH  =      F    aspherical Exc in radial PAW
   METAGGA=      F    non-selfconsistent MetaGGA calc.

 Electronic Relaxation 1
   ENCUT  =  440.0 eV  32.34 Ry    5.69 a.u.  22.73 22.31 24.63*2*pi/ulx,y,z
   ENINI  =  440.0     initial cutoff
   ENAUG  =  644.9 eV  augmentation charge cutoff
   NELM   =    100;   NELMIN=  2; NELMDL= -5     # of ELM steps 
   EDIFF  = 0.1E-03   stopping-criterion for ELM
   LREAL  =      F    real-space projection
   NLSPLINE    = F    spline interpolate recip. space projectors
   LCOMPAT=      F    compatible to vasp.4.4
   GGA_COMPAT  = T    GGA compatible to vasp.4.4-vasp.4.6
   LMAXPAW     = -100 max onsite density
   LMAXMIX     =    2 max onsite mixed and CHGCAR
   VOSKOWN=      0    Vosko Wilk Nusair interpolation
   ROPT   =    0.00000   0.00000   0.00000
 Ionic relaxation
   EDIFFG = -.1E-01   stopping-criterion for IOM
   NSW    =      0    number of steps for IOM
   NBLOCK =      1;   KBLOCK =      1    inner block; outer block 
   IBRION =     -1    ionic relax: 0-MD 1-quasi-New 2-CG
   NFREE  =      0    steps in history (QN), initial steepest desc. (CG)
   ISIF   =      2    stress and relaxation
   IWAVPR =     10    prediction:  0-non 1-charg 2-wave 3-comb
   ISYM   =      0    0-nonsym 1-usesym 2-fastsym
   LCORR  =      T    Harris-Foulkes like correction to forces

   POTIM  = 0.5000    time-step for ionic-motion
   TEIN   =    0.0    initial temperature
   TEBEG  =    0.0;   TEEND  =   0.0 temperature during run
   SMASS  =  -3.00    Nose mass-parameter (am)
   estimated Nose-frequenzy (Omega)   =  0.10E-29 period in steps =****** mass=  -0.404E-26a.u.
   SCALEE = 1.0000    scale energy and forces
   NPACO  =    256;   APACO  = 16.0  distance and # of slots for P.C.
   PSTRESS=    0.0 pullay stress

  Mass of Ions in am
   POMASS =  12.01 14.00 72.61
  Ionic Valenz
   ZVAL   =   4.00  5.00 14.00
  Atomic Wigner-Seitz radii
   RWIGS  =  -1.00 -1.00 -1.00
  virtual crystal weights 
   VCA    =   1.00  1.00  1.00
   NELECT =     270.0000    total number of electrons
   NUPDOWN=      -1.0000    fix difference up-down

 DOS related values:
   EMIN   = -14.00;   EMAX   =  6.00  energy-range for DOS
   EFERMI =   0.00
   ISMEAR =    -5;   SIGMA  =   0.20  broadening in eV -4-tet -1-fermi 0-gaus

 Electronic relaxation 2 (details)
   IALGO  =     38    algorithm
   LDIAG  =      T    sub-space diagonalisation (order eigenvalues)
   LSUBROT=      F    optimize rotation matrix (better conditioning)
   TURBO    =      0    0=normal 1=particle mesh
   IRESTART =      0    0=no restart 2=restart with 2 vectors
   NREBOOT  =      0    no. of reboots
   NMIN     =      0    reboot dimension
   EREF     =   0.00    reference energy to select bands
   IMIX   =      4    mixing-type and parameters
     AMIX     =   0.25;   BMIX     =  0.00
     AMIX_MAG =   1.00;   BMIX_MAG =  0.00
     AMIN     =   0.10
     WC   =   100.;   INIMIX=   1;  MIXPRE=   1;  MAXMIX= -45

 Intra band minimization:
   WEIMIN = 0.0000     energy-eigenvalue tresh-hold
   EBREAK =  0.15E-06  absolut break condition
   DEPER  =   0.30     relativ break condition  

   TIME   =   0.40     timestep for ELM

  volume/ion in A,a.u.               =      37.39       252.30
  Fermi-wavevector in a.u.,A,eV,Ry     =   0.822235  1.553800  9.198505  0.676071
  Thomas-Fermi vector in A             =   1.933535
 
 Write flags
   LWAVE        =      F    write WAVECAR
   LDOWNSAMPLE  =      F    k-point downsampling of WAVECAR
   LCHARG       =      F    write CHGCAR
   LVTOT        =      F    write LOCPOT, total local potential
   LVHAR        =      F    write LOCPOT, Hartree potential only
   LELF         =      F    write electronic localiz. function (ELF)
   LORBIT       =     11    0 simple, 1 ext, 2 COOP (PROOUT), +10 PAW based schemes


 Dipole corrections
   LMONO  =      F    monopole corrections only (constant potential shift)
   LDIPOL =      F    correct potential (dipole corrections)
   IDIPOL =      0    1-x, 2-y, 3-z, 4-all directions 
   EPSILON=  1.0000000 bulk dielectric constant

 Exchange correlation treatment:
   GGA     =    --    GGA type
   LEXCH   =     8    internal setting for exchange type
   VOSKOWN=      0    Vosko Wilk Nusair interpolation
   LHFCALC =     F    Hartree Fock is set to
   LHFONE  =     F    Hartree Fock one center treatment
   AEXX    =    0.0000 exact exchange contribution

 Linear response parameters
   LEPSILON=     F    determine dielectric tensor
   LRPA    =     F    only Hartree local field effects (RPA)
   LNABLA  =     F    use nabla operator in PAW spheres
   LVEL    =     F    velocity operator in full k-point grid
   LINTERFAST=   F  fast interpolation
   KINTER  =     0    interpolate to denser k-point grid
   CSHIFT  =0.1000    complex shift for real part using Kramers Kronig
   OMEGAMAX=  -1.0    maximum frequency
   DEG_THRESHOLD= 0.2000000E-02 threshold for treating states as degnerate
   RTIME   =   -0.100 relaxation time in fs
  (WPLASMAI=    0.000 imaginary part of plasma frequency in eV, 0.658/RTIME)
   DFIELD  = 0.0000000 0.0000000 0.0000000 field for delta impulse in time
 
 Orbital magnetization related:
   ORBITALMAG=     F  switch on orbital magnetization
   LCHIMAG   =     F  perturbation theory with respect to B field
   DQ        =  0.001000  dq finite difference perturbation B field
   LLRAUG    =     F  two centre corrections for induced B field



--------------------------------------------------------------------------------------------------------


 Static calculation
 charge density and potential will be updated during run
 spin polarized calculation
 Variant of blocked Davidson
 Davidson routine will perform the subspace rotation
 perform sub-space diagonalisation
    after iterative eigenvector-optimisation
 modified Broyden-mixing scheme, WC =      100.0
 initial mixing is a Kerker type mixing with AMIX =  0.2500 and BMIX =      0.0001
 Hartree-type preconditioning will be used
 using additional bands           33
 reciprocal scheme for non local part
 use partial core corrections
 calculate Harris-corrections to forces 
   (improved forces if not selfconsistent)
 use gradient corrections 
 use of overlap-Matrix (Vanderbilt PP)
 Fermi weights with tetrahedron method with Bloechl corrections


--------------------------------------------------------------------------------------------------------


  energy-cutoff  :      440.00
  volume of cell :     2131.08
      direct lattice vectors                 reciprocal lattice vectors
    13.289687265 -0.183110855  0.000000000     0.075864968  0.044900119  0.000000000
    -6.644843633 11.227383354  0.000000000     0.001237305  0.089800238  0.000000000
     0.000000000  0.000000000 14.400000000     0.000000000  0.000000000  0.069444444

  length of vectors
    13.290948694 13.046382023 14.400000000     0.088156191  0.089808762  0.069444444


 
 k-points in units of 2pi/SCALE and weight: K-Points                                
   0.00000000  0.00000000  0.00000000       0.111
   0.02427679  0.01436804  0.00000000       0.222
   0.00039594  0.02873608  0.00000000       0.222
   0.02467273  0.04310411  0.00000000       0.222
  -0.02388085  0.01436804  0.00000000       0.222
 
 k-points in reciprocal lattice and weights: K-Points                                
   0.00000000  0.00000000  0.00000000       0.111
   0.33333333 -0.00000000  0.00000000       0.222
   0.00000000  0.33333333  0.00000000       0.222
   0.33333333  0.33333333  0.00000000       0.222
  -0.33333333  0.33333333  0.00000000       0.222
 
 position of ions in fractional coordinates (direct lattice) 
   0.10567936  0.21351909  0.42646415
   0.28750403  0.39866334  0.43315811
   0.10379301  0.39177313  0.42728737
   0.44732828  0.06383887  0.50569377
   0.45258916  0.40124889  0.41252546
   0.11203481  0.05273921  0.44868132
   0.09638015  0.71191070  0.48390127
   0.28433946  0.89006364  0.50120122
   0.10941441  0.89537413  0.49812536
   0.44792521  0.54827090  0.50190381
   0.44544784  0.88520183  0.48897001
   0.08690842  0.54210436  0.48067119
   0.61614813  0.22292684  0.47270451
   0.78023735  0.38968276  0.39988272
   0.61037743  0.39432339  0.43546161
   0.93951642  0.05229783  0.46070020
   0.94071854  0.38652888  0.39388003
   0.62278394  0.06558106  0.51203168
   0.61322902  0.71118454  0.53124878
   0.78984871  0.89727295  0.52288011
   0.60944297  0.89248269  0.52132702
   0.93832005  0.56283419  0.42050954
   0.95436023  0.90171878  0.53466451
   0.62130548  0.55465507  0.48986027
   0.16668926  0.33545237  0.42502835
   0.16473950  0.16097029  0.42095206
   0.33626584  0.00180669  0.52215766
   0.51175722  0.35246859  0.39238613
   0.34471728  0.36074551  0.38975287
   0.50565751  0.17673507  0.49315170
   0.15873210  0.98821904  0.44665654
   0.00214731  0.00186372  0.48284181
   0.16462634  0.83083069  0.50025956
   0.13400723  0.64526801  0.51778798
   0.33371346  0.49116238  0.49155062
   0.50288345  0.83078126  0.48972341
   0.33307237  0.82932770  0.47937372
   0.49902190  0.64803204  0.54483375
   0.14173676  0.48364631  0.48511610
   0.98839512  0.49595573  0.43598798
   0.66736443  0.33015381  0.42931770
   0.67970142  0.17802103  0.49523771
   0.82720183  0.98622484  0.46784919
   0.01097216  0.34809993  0.37880244
   0.83047981  0.33016544  0.37952861
   0.99296173  0.16101876  0.43513088
   0.66886761  0.00524437  0.53948092
   0.50484899  0.00388347  0.49830916
   0.66830364  0.83227641  0.53419919
   0.67536455  0.66551462  0.51246466
   0.83211404  0.50666912  0.39574663
   0.01584380  0.85299492  0.54867721
   0.84924332  0.85956436  0.56604968
   0.00424175  0.67726383  0.43455477
   0.66753141  0.49127771  0.48382075
   0.50565566  0.50179634  0.46716125
   0.28676550  0.59288202  0.55779478
 
 position of ions in cartesian coordinates  (Angst):
  -0.01435527  2.37790959  6.14108378
   1.17178305  4.42330102  6.23747683
  -1.22389461  4.37958150  6.15293814
   5.52065366  0.63483277  7.28199023
   3.34853218  4.42210115  5.94036663
   1.13846380  0.57160858  6.46101103
  -3.44967325  7.97524611  6.96817831
  -2.13555124  9.94102004  7.21729761
  -4.49553787 10.03267365  7.17300516
   2.30961161  6.07362762  7.22741483
   0.03783477  9.85693397  7.04116808
  -2.44721306  6.07049964  6.92166509
   6.70710196  2.39006170  6.80694490
   7.77972932  4.23224784  5.75831116
   5.49150783  4.31545317  6.27064722
  12.13836856  0.41513210  6.63408291
   9.93343126  4.16745217  5.67187246
   7.84082791  0.62226515  7.37325615
   3.42391188  7.87245260  7.64998240
   4.53460387  9.92939755  7.52947352
   2.16889853  9.90864963  7.50710912
   8.73003482  6.14733867  6.05533738
   6.69136864  9.94918873  7.69916900
   4.57135935  6.11355736  7.05398784
  -0.01378041  3.73572976  6.12040821
   1.11971408  1.77710952  6.06170965
   4.45686263 -0.04128955  7.51907026
   4.45899480  3.86359164  5.65036034
   2.18408731  3.98710667  5.61244138
   5.54565321  1.89168106  7.10138445
  -4.45706110 11.06604844  6.43185422
   0.01615297  0.02053150  6.95292211
  -3.33290736  9.29790976  7.20373770
  -2.50679085  7.22013311  7.45614687
   1.17125037  5.45336173  7.07832892
   1.16275225  9.23541622  7.05201717
  -1.08432527  9.25019083  6.90298161
   2.32577342  7.18432782  7.84560603
  -1.33011689  5.40412894  6.98567187
   9.83991379  5.38729926  6.27822687
   6.67524413  3.58456175  6.18217490
   7.85009745  1.87424963  7.13142302
   4.43994383 10.92125470  6.73702830
  -2.16725303  3.90624218  5.45475514
   8.84291920  3.55482410  5.46521200
  12.12620632  1.62599727  6.26588461
   8.85419343 -0.06359641  7.76852519
   6.68348017 -0.04884212  7.17565190
   3.35119984  9.22191264  7.69246839
   4.55314303  7.34832120  7.37949108
   7.69179823  5.53619936  5.69875147
  -5.45745877  9.57399981  7.90095186
   5.57450736  9.49515297  8.15111538
  -4.44394077  7.60312397  6.25758870
   5.60682005  5.39353095  6.96701876
   3.38564734  5.54126888  6.72712196
  -0.12858453  6.60400390  8.03224488
 


--------------------------------------------------------------------------------------------------------


 k-point  1 :   0.0000 0.0000 0.0000  plane waves:   44623
 k-point  2 :   0.3333-0.0000 0.0000  plane waves:   44684
 k-point  3 :   0.0000 0.3333 0.0000  plane waves:   44690
 k-point  4 :   0.3333 0.3333 0.0000  plane waves:   44678
 k-point  5 :  -0.3333 0.3333 0.0000  plane waves:   44633

 maximum and minimum number of plane-waves per node :      3749     3702

 maximum number of plane-waves:     44690
 maximum index in each direction: 
   IXMAX=   23   IYMAX=   22   IZMAX=   24
   IXMIN=  -23   IYMIN=  -22   IZMIN=  -24


 parallel 3D FFT for wavefunctions:
    minimum data exchange during FFTs selected (reduces bandwidth)
 parallel 3D FFT for charge:
    minimum data exchange during FFTs selected (reduces bandwidth)


 total amount of memory used by VASP MPI-rank0    79006. kBytes
=======================================================================

   base      :      30000. kBytes
   nonl-proj :      11452. kBytes
   fftplans  :       3323. kBytes
   grid      :       8675. kBytes
   one-center:        155. kBytes
   wavefun   :      25401. kBytes
 
     INWAV:  cpu time    0.0001: real time    0.0003
 Broyden mixing: mesh for mixing (old mesh)
   NGX = 45   NGY = 45   NGZ = 49
  (NGX  =140   NGY  =140   NGZ  =160)
  gives a total of  99225 points

 initial charge density was supplied:
 charge density of overlapping atoms calculated
 number of electron     270.0000000 magnetization       1.0000000
 keeping initial charge density in first step


--------------------------------------------------------------------------------------------------------


 Maximum index for augmentation-charges          217 (set IRDMAX)


--------------------------------------------------------------------------------------------------------


 First call to EWALD:  gamma=   0.138
 Maximum number of real-space cells 3x 3x 3
 Maximum number of reciprocal cells 3x 3x 3

    FEWALD:  cpu time    0.0028: real time    0.0029


--------------------------------------- Iteration      1(   1)  ---------------------------------------


    POTLOK:  cpu time    0.1717: real time    0.2336
    SETDIJ:  cpu time    0.0083: real time    0.0090
     EDDAV:  cpu time    6.3580: real time    6.4340
 BZINTS: Fermi energy:  9.770085;270.000000 electrons
         Band energy:***********;  BLOECHL correction: -0.057581
       DOS:  cpu time    0.1702: real time    0.1706
    --------------------------------------------
      LOOP:  cpu time    6.7083: real time    6.8472

 eigenvalue-minimisations  :  3872
 total energy-change (2. order) : 0.2681664E+04  (-0.1045113E+05)
 number of electron     270.0000000 magnetization       1.0000000
 augmentation part      270.0000000 magnetization       1.0000000

 Free energy of the ion-electron system (eV)
  ---------------------------------------------------
  alpha Z        PSCENC =       163.06963167
  Ewald energy   TEWEN  =     28524.30684766
  -Hartree energ DENC   =    -39774.24629271
  -exchange      EXHF   =         0.00000000
  -V(xc)+E(xc)   XCENC  =      1044.55224100
  PAW double counting   =     10998.91041168   -11485.61342155
  entropy T*S    EENTRO =         0.00000000
  eigenvalues    EBANDS =     -1381.57529409
  atomic energy  EATOM  =     14592.26033195
  Solvation  Ediel_sol  =         0.00000000
  ---------------------------------------------------
  free energy    TOTEN  =      2681.66445562 eV

  energy without entropy =     2681.66445562  energy(sigma->0) =     2681.66445562


--------------------------------------------------------------------------------------------------------




--------------------------------------- Iteration      1(   2)  ---------------------------------------


     EDDAV:  cpu time    9.0814: real time    9.4597
 BZINTS: Fermi energy: -0.240935;270.000000 electrons
         Band energy:***********;  BLOECHL correction:  0.000000
       DOS:  cpu time    0.0040: real time    0.0040
    --------------------------------------------
      LOOP:  cpu time    9.0854: real time    9.4638

 eigenvalue-minimisations  :  4648
 total energy-change (2. order) :-0.2685455E+04  (-0.2573841E+04)
 number of electron     270.0000000 magnetization       1.0000000
 augmentation part      270.0000000 magnetization       1.0000000

 Free energy of the ion-electron system (eV)
  ---------------------------------------------------
  alpha Z        PSCENC =       163.06963167
  Ewald energy   TEWEN  =     28524.30684766
  -Hartree energ DENC   =    -39774.24629271
  -exchange      EXHF   =         0.00000000
  -V(xc)+E(xc)   XCENC  =      1044.55224100
  PAW double counting   =     10998.91041168   -11485.61342155
  entropy T*S    EENTRO =         0.00000000
  eigenvalues    EBANDS =     -4067.02990074
  atomic energy  EATOM  =     14592.26033195
  Solvation  Ediel_sol  =         0.00000000
  ---------------------------------------------------
  free energy    TOTEN  =        -3.79015103 eV

  energy without entropy =       -3.79015103  energy(sigma->0) =       -3.79015103


--------------------------------------------------------------------------------------------------------




--------------------------------------- Iteration      1(   3)  ---------------------------------------


     EDDAV:  cpu time    7.8769: real time    8.0402
 BZINTS: Fermi energy: -3.557217;270.000000 electrons
         Band energy:***********;  BLOECHL correction: -0.006224
       DOS:  cpu time    0.0099: real time    0.0099
    --------------------------------------------
      LOOP:  cpu time    7.8867: real time    8.0501

 eigenvalue-minimisations  :  3984
 total energy-change (2. order) :-0.4911542E+03  (-0.4867193E+03)
 number of electron     270.0000000 magnetization       1.0000000
 augmentation part      270.0000000 magnetization       1.0000000

 Free energy of the ion-electron system (eV)
  ---------------------------------------------------
  alpha Z        PSCENC =       163.06963167
  Ewald energy   TEWEN  =     28524.30684766
  -Hartree energ DENC   =    -39774.24629271
  -exchange      EXHF   =         0.00000000
  -V(xc)+E(xc)   XCENC  =      1044.55224100
  PAW double counting   =     10998.91041168   -11485.61342155
  entropy T*S    EENTRO =         0.00000000
  eigenvalues    EBANDS =     -4558.18411784
  atomic energy  EATOM  =     14592.26033195
  Solvation  Ediel_sol  =         0.00000000
  ---------------------------------------------------
  free energy    TOTEN  =      -494.94436812 eV

  energy without entropy =     -494.94436812  energy(sigma->0) =     -494.94436812


--------------------------------------------------------------------------------------------------------




--------------------------------------- Iteration      1(   4)  ---------------------------------------


     EDDAV:  cpu time    8.1840: real time    8.3563
 BZINTS: Fermi energy: -3.936234;270.000000 electrons
         Band energy:***********;  BLOECHL correction:  0.000000
       DOS:  cpu time    0.0040: real time    0.0040
    --------------------------------------------
      LOOP:  cpu time    8.1880: real time    8.3603

 eigenvalue-minimisations  :  4208
 total energy-change (2. order) :-0.1829571E+02  (-0.1784875E+02)
 number of electron     270.0000000 magnetization       1.0000000
 augmentation part      270.0000000 magnetization       1.0000000

 Free energy of the ion-electron system (eV)
  ---------------------------------------------------
  alpha Z        PSCENC =       163.06963167
  Ewald energy   TEWEN  =     28524.30684766
  -Hartree energ DENC   =    -39774.24629271
  -exchange      EXHF   =         0.00000000
  -V(xc)+E(xc)   XCENC  =      1044.55224100
  PAW double counting   =     10998.91041168   -11485.61342155
  entropy T*S    EENTRO =         0.00000000
  eigenvalues    EBANDS =     -4576.47982906
  atomic energy  EATOM  =     14592.26033195
  Solvation  Ediel_sol  =         0.00000000
  ---------------------------------------------------
  free energy    TOTEN  =      -513.24007935 eV

  energy without entropy =     -513.24007935  energy(sigma->0) =     -513.24007935


--------------------------------------------------------------------------------------------------------




--------------------------------------- Iteration      1(   5)  ---------------------------------------


     EDDAV:  cpu time    8.7901: real time    9.0144
 BZINTS: Fermi energy: -3.961240;270.000000 electrons
         Band energy:***********;  BLOECHL correction:  0.000000
       DOS:  cpu time    0.0039: real time    0.0039
    CHARGE:  cpu time    0.1460: real time    0.1514
    MIXING:  cpu time    0.0042: real time    0.0043
    --------------------------------------------
      LOOP:  cpu time    8.9441: real time    9.1739

 eigenvalue-minimisations  :  4808
 total energy-change (2. order) :-0.7145748E+00  (-0.7087729E+00)
 number of electron     270.0000079 magnetization       0.0000001
 augmentation part       20.4643279 magnetization       0.0009593

 Broyden mixing:
  rms(total) = 0.45021E+01    rms(broyden)= 0.44993E+01
  rms(prec ) = 0.49933E+01
  weight for this iteration     100.00

 Free energy of the ion-electron system (eV)
  ---------------------------------------------------
  alpha Z        PSCENC =       163.06963167
  Ewald energy   TEWEN  =     28524.30684766
  -Hartree energ DENC   =    -39774.24629271
  -exchange      EXHF   =         0.00000000
  -V(xc)+E(xc)   XCENC  =      1044.55224100
  PAW double counting   =     10998.91041168   -11485.61342155
  entropy T*S    EENTRO =         0.00000000
  eigenvalues    EBANDS =     -4577.19440391
  atomic energy  EATOM  =     14592.26033195
  Solvation  Ediel_sol  =         0.00000000
  ---------------------------------------------------
  free energy    TOTEN  =      -513.95465420 eV

  energy without entropy =     -513.95465420  energy(sigma->0) =     -513.95465420


--------------------------------------------------------------------------------------------------------




--------------------------------------- Iteration      1(   6)  ---------------------------------------


    POTLOK:  cpu time    0.0968: real time    0.0990
    SETDIJ:  cpu time    0.0103: real time    0.0104
     EDDAV:  cpu time    7.4067: real time    7.5214
 BZINTS: Fermi energy: -3.289822;270.000000 electrons
         Band energy:***********;  BLOECHL correction:  0.000000
       DOS:  cpu time    0.0036: real time    0.0036
    CHARGE:  cpu time    0.1128: real time    0.1164
    MIXING:  cpu time    0.0025: real time    0.0030
    --------------------------------------------
      LOOP:  cpu time    7.6329: real time    7.7538

 eigenvalue-minimisations  :  4416
 total energy-change (2. order) : 0.3200132E+02  (-0.5109782E+01)
 number of electron     270.0000073 magnetization      -0.0000000
 augmentation part       19.4364639 magnetization       0.0030914

 Broyden mixing:
  rms(total) = 0.29110E+01    rms(broyden)= 0.29107E+01
  rms(prec ) = 0.31332E+01
  weight for this iteration     100.00

 eigenvalues of (default mixing * dielectric matrix)
  average eigenvalue GAMMA=   1.6116
  1.6116

 Free energy of the ion-electron system (eV)
  ---------------------------------------------------
  alpha Z        PSCENC =       163.06963167
  Ewald energy   TEWEN  =     28524.30684766
  -Hartree energ DENC   =    -40142.13829797
  -exchange      EXHF   =         0.00000000
  -V(xc)+E(xc)   XCENC  =      1060.86447906
  PAW double counting   =     15110.62400104   -15600.49279608
  entropy T*S    EENTRO =         0.00000000
  eigenvalues    EBANDS =     -4190.44753271
  atomic energy  EATOM  =     14592.26033195
  Solvation  Ediel_sol  =         0.00000000
  ---------------------------------------------------
  free energy    TOTEN  =      -481.95333538 eV

  energy without entropy =     -481.95333538  energy(sigma->0) =     -481.95333538


--------------------------------------------------------------------------------------------------------




--------------------------------------- Iteration      1(   7)  ---------------------------------------


    POTLOK:  cpu time    0.1200: real time    0.1241
    SETDIJ:  cpu time    0.0101: real time    0.0101
     EDDAV:  cpu time    7.1211: real time    7.2272
 BZINTS: Fermi energy: -2.525881;270.000000 electrons
         Band energy:***********;  BLOECHL correction:  0.000000
       DOS:  cpu time    0.0038: real time    0.0038
    CHARGE:  cpu time    0.1123: real time    0.1134
    MIXING:  cpu time    0.0030: real time    0.0030
    --------------------------------------------
      LOOP:  cpu time    7.3702: real time    7.4816

 eigenvalue-minimisations  :  4112
 total energy-change (2. order) : 0.8500922E+01  (-0.5079159E+01)
 number of electron     270.0000066 magnetization      -0.0000000
 augmentation part       18.8354004 magnetization       0.0003410

 Broyden mixing:
  rms(total) = 0.17557E+01    rms(broyden)= 0.17552E+01
  rms(prec ) = 0.18909E+01
  weight for this iteration     100.00

 eigenvalues of (default mixing * dielectric matrix)
  average eigenvalue GAMMA=   1.6313
  0.9605  2.3022

 Free energy of the ion-electron system (eV)
  ---------------------------------------------------
  alpha Z        PSCENC =       163.06963167
  Ewald energy   TEWEN  =     28524.30684766
  -Hartree energ DENC   =    -40520.02137500
  -exchange      EXHF   =         0.00000000
  -V(xc)+E(xc)   XCENC  =      1076.01630360
  PAW double counting   =     21671.26241819   -22166.11992020
  entropy T*S    EENTRO =         0.00000000
  eigenvalues    EBANDS =     -3814.22665074
  atomic energy  EATOM  =     14592.26033195
  Solvation  Ediel_sol  =         0.00000000
  ---------------------------------------------------
  free energy    TOTEN  =      -473.45241288 eV

  energy without entropy =     -473.45241288  energy(sigma->0) =     -473.45241288


--------------------------------------------------------------------------------------------------------




--------------------------------------- Iteration      1(   8)  ---------------------------------------


    POTLOK:  cpu time    0.1019: real time    0.1037
    SETDIJ:  cpu time    0.0104: real time    0.0104
     EDDAV:  cpu time    6.8912: real time    7.0204
 BZINTS: Fermi energy: -1.935734;270.000000 electrons
         Band energy:***********;  BLOECHL correction:  0.000000
       DOS:  cpu time    0.0038: real time    0.0037
    CHARGE:  cpu time    0.1123: real time    0.1140
    MIXING:  cpu time    0.0029: real time    0.0029
    --------------------------------------------
      LOOP:  cpu time    7.1225: real time    7.2552

 eigenvalue-minimisations  :  3984
 total energy-change (2. order) : 0.2069610E+01  (-0.1194618E+01)
 number of electron     270.0000069 magnetization       0.0000000
 augmentation part       18.6090318 magnetization       0.0007210

 Broyden mixing:
  rms(total) = 0.12283E+01    rms(broyden)= 0.12281E+01
  rms(prec ) = 0.12937E+01
  weight for this iteration     100.00

 eigenvalues of (default mixing * dielectric matrix)
  average eigenvalue GAMMA=   1.7403
  3.1734  1.3404  0.7071

 Free energy of the ion-electron system (eV)
  ---------------------------------------------------
  alpha Z        PSCENC =       163.06963167
  Ewald energy   TEWEN  =     28524.30684766
  -Hartree energ DENC   =    -40636.62383995
  -exchange      EXHF   =         0.00000000
  -V(xc)+E(xc)   XCENC  =      1080.87238752
  PAW double counting   =     25717.10477144   -26214.73274021
  entropy T*S    EENTRO =         0.00000000
  eigenvalues    EBANDS =     -3697.64019275
  atomic energy  EATOM  =     14592.26033195
  Solvation  Ediel_sol  =         0.00000000
  ---------------------------------------------------
  free energy    TOTEN  =      -471.38280268 eV

  energy without entropy =     -471.38280268  energy(sigma->0) =     -471.38280268


--------------------------------------------------------------------------------------------------------




--------------------------------------- Iteration      1(   9)  ---------------------------------------


    POTLOK:  cpu time    0.1256: real time    0.1278
    SETDIJ:  cpu time    0.0104: real time    0.0104
     EDDAV:  cpu time    8.2346: real time    8.3210
 BZINTS: Fermi energy: -1.825706;270.000000 electrons
         Band energy:***********;  BLOECHL correction:  0.000000
       DOS:  cpu time    0.0037: real time    0.0037
    CHARGE:  cpu time    0.1095: real time    0.1104
    MIXING:  cpu time    0.0411: real time    0.0418
    --------------------------------------------
      LOOP:  cpu time    8.5249: real time    8.6151

 eigenvalue-minimisations  :  5016
 total energy-change (2. order) :-0.2847504E+00  (-0.1179567E+01)
 number of electron     270.0000070 magnetization       0.0000000
 augmentation part       18.7019021 magnetization       0.0008463

 Broyden mixing:
  rms(total) = 0.66271E+00    rms(broyden)= 0.66236E+00
  rms(prec ) = 0.84197E+00
  weight for this iteration     100.00

 eigenvalues of (default mixing * dielectric matrix)
  average eigenvalue GAMMA=   1.6557
  3.6698  1.4716  0.7407  0.7407

 Free energy of the ion-electron system (eV)
  ---------------------------------------------------
  alpha Z        PSCENC =       163.06963167
  Ewald energy   TEWEN  =     28524.30684766
  -Hartree energ DENC   =    -40688.82070305
  -exchange      EXHF   =         0.00000000
  -V(xc)+E(xc)   XCENC  =      1082.99959890
  PAW double counting   =     30712.40413789   -31214.90461080
  entropy T*S    EENTRO =         0.00000000
  eigenvalues    EBANDS =     -3642.98278729
  atomic energy  EATOM  =     14592.26033195
  Solvation  Ediel_sol  =         0.00000000
  ---------------------------------------------------
  free energy    TOTEN  =      -471.66755308 eV

  energy without entropy =     -471.66755308  energy(sigma->0) =     -471.66755308


--------------------------------------------------------------------------------------------------------




--------------------------------------- Iteration      1(  10)  ---------------------------------------


    POTLOK:  cpu time    0.0988: real time    0.1007
    SETDIJ:  cpu time    0.0103: real time    0.0104
     EDDAV:  cpu time    8.2263: real time    8.3469
 BZINTS: Fermi energy: -1.480620;270.000000 electrons
         Band energy:***********;  BLOECHL correction:  0.000000
       DOS:  cpu time    0.0037: real time    0.0038
    CHARGE:  cpu time    0.1109: real time    0.1116
    MIXING:  cpu time    0.0028: real time    0.0028
    --------------------------------------------
      LOOP:  cpu time    8.4529: real time    8.5761

 eigenvalue-minimisations  :  4824
 total energy-change (2. order) : 0.7588122E+00  (-0.5982595E+00)
 number of electron     270.0000068 magnetization       0.0000000
 augmentation part       18.6838841 magnetization       0.0006512

 Broyden mixing:
  rms(total) = 0.32536E+00    rms(broyden)= 0.32477E+00
  rms(prec ) = 0.37969E+00
  weight for this iteration     100.00

 eigenvalues of (default mixing * dielectric matrix)
  average eigenvalue GAMMA=   1.5604
  3.9124  1.6663  1.0212  0.6011  0.6011

 Free energy of the ion-electron system (eV)
  ---------------------------------------------------
  alpha Z        PSCENC =       163.06963167
  Ewald energy   TEWEN  =     28524.30684766
  -Hartree energ DENC   =    -40700.48515730
  -exchange      EXHF   =         0.00000000
  -V(xc)+E(xc)   XCENC  =      1083.86514520
  PAW double counting   =     32852.38652341   -33354.86968971
  entropy T*S    EENTRO =         0.00000000
  eigenvalues    EBANDS =     -3631.44237377
  atomic energy  EATOM  =     14592.26033195
  Solvation  Ediel_sol  =         0.00000000
  ---------------------------------------------------
  free energy    TOTEN  =      -470.90874088 eV

  energy without entropy =     -470.90874088  energy(sigma->0) =     -470.90874088


--------------------------------------------------------------------------------------------------------




--------------------------------------- Iteration      1(  11)  ---------------------------------------


    POTLOK:  cpu time    0.0957: real time    0.0978
    SETDIJ:  cpu time    0.0101: real time    0.0101
     EDDAV:  cpu time    8.0134: real time    8.1109
 BZINTS: Fermi energy: -1.600650;270.000000 electrons
         Band energy:***********;  BLOECHL correction:  0.000000
       DOS:  cpu time    0.0038: real time    0.0038
    CHARGE:  cpu time    0.1130: real time    0.1143
    MIXING:  cpu time    0.0028: real time    0.0028
    --------------------------------------------
      LOOP:  cpu time    8.2387: real time    8.3396

 eigenvalue-minimisations  :  4896
 total energy-change (2. order) : 0.5638105E-01  (-0.1486755E+00)
 number of electron     270.0000069 magnetization       0.0000000
 augmentation part       18.6775960 magnetization       0.0003268

 Broyden mixing:
  rms(total) = 0.20202E+00    rms(broyden)= 0.20184E+00
  rms(prec ) = 0.25500E+00
  weight for this iteration     100.00

 eigenvalues of (default mixing * dielectric matrix)
  average eigenvalue GAMMA=   1.4881
  3.8969  1.7483  1.1981  0.9531  0.5660  0.5660

 Free energy of the ion-electron system (eV)
  ---------------------------------------------------
  alpha Z        PSCENC =       163.06963167
  Ewald energy   TEWEN  =     28524.30684766
  -Hartree energ DENC   =    -40680.75877508
  -exchange      EXHF   =         0.00000000
  -V(xc)+E(xc)   XCENC  =      1083.40117468
  PAW double counting   =     33838.14710700   -34340.03340992
  entropy T*S    EENTRO =         0.00000000
  eigenvalues    EBANDS =     -3651.24526779
  atomic energy  EATOM  =     14592.26033195
  Solvation  Ediel_sol  =         0.00000000
  ---------------------------------------------------
  free energy    TOTEN  =      -470.85235983 eV

  energy without entropy =     -470.85235983  energy(sigma->0) =     -470.85235983


--------------------------------------------------------------------------------------------------------




--------------------------------------- Iteration      1(  12)  ---------------------------------------


    POTLOK:  cpu time    0.1240: real time    0.1260
    SETDIJ:  cpu time    0.0086: real time    0.0086
     EDDAV:  cpu time    7.6951: real time    7.7853
 BZINTS: Fermi energy: -1.649412;270.000000 electrons
         Band energy:***********;  BLOECHL correction:  0.000000
       DOS:  cpu time    0.0035: real time    0.0035
    CHARGE:  cpu time    0.1522: real time    0.1531
    MIXING:  cpu time    0.0030: real time    0.0030
    --------------------------------------------
      LOOP:  cpu time    7.9864: real time    8.0796

 eigenvalue-minimisations  :  4688
 total energy-change (2. order) : 0.5600758E-01  (-0.1005006E+00)
 number of electron     270.0000068 magnetization      -0.0000000
 augmentation part       18.6663783 magnetization       0.0001389

 Broyden mixing:
  rms(total) = 0.13253E+00    rms(broyden)= 0.13229E+00
  rms(prec ) = 0.17123E+00
  weight for this iteration     100.00

 eigenvalues of (default mixing * dielectric matrix)
  average eigenvalue GAMMA=   1.4835
  3.8510  2.2574  1.3837  0.8925  0.8925  0.5536  0.5536

 Free energy of the ion-electron system (eV)
  ---------------------------------------------------
  alpha Z        PSCENC =       163.06963167
  Ewald energy   TEWEN  =     28524.30684766
  -Hartree energ DENC   =    -40661.29896712
  -exchange      EXHF   =         0.00000000
  -V(xc)+E(xc)   XCENC  =      1082.79703438
  PAW double counting   =     34070.98096438   -34572.22892142
  entropy T*S    EENTRO =         0.00000000
  eigenvalues    EBANDS =     -3670.68327374
  atomic energy  EATOM  =     14592.26033195
  Solvation  Ediel_sol  =         0.00000000
  ---------------------------------------------------
  free energy    TOTEN  =      -470.79635225 eV

  energy without entropy =     -470.79635225  energy(sigma->0) =     -470.79635225


--------------------------------------------------------------------------------------------------------




--------------------------------------- Iteration      1(  13)  ---------------------------------------


    POTLOK:  cpu time    0.0969: real time    0.0994
    SETDIJ:  cpu time    0.0101: real time    0.0102
     EDDAV:  cpu time    7.0934: real time    7.2043
 BZINTS: Fermi energy: -1.685671;270.000000 electrons
         Band energy:***********;  BLOECHL correction:  0.000000
       DOS:  cpu time    0.0037: real time    0.0037
    CHARGE:  cpu time    0.1116: real time    0.1123
    MIXING:  cpu time    0.0030: real time    0.0030
    --------------------------------------------
      LOOP:  cpu time    7.3189: real time    7.4329

 eigenvalue-minimisations  :  4024
 total energy-change (2. order) : 0.3655563E-01  (-0.2671764E-01)
 number of electron     270.0000068 magnetization      -0.0000000
 augmentation part       18.6794725 magnetization       0.0000425

 Broyden mixing:
  rms(total) = 0.52691E-01    rms(broyden)= 0.52582E-01
  rms(prec ) = 0.58777E-01
  weight for this iteration     100.00

 eigenvalues of (default mixing * dielectric matrix)
  average eigenvalue GAMMA=   1.4606
  3.8357  2.5416  1.5019  0.8986  0.8986  0.9044  0.5519  0.5519

 Free energy of the ion-electron system (eV)
  ---------------------------------------------------
  alpha Z        PSCENC =       163.06963167
  Ewald energy   TEWEN  =     28524.30684766
  -Hartree energ DENC   =    -40644.30283496
  -exchange      EXHF   =         0.00000000
  -V(xc)+E(xc)   XCENC  =      1082.21297822
  PAW double counting   =     34209.17250419   -34710.29893250
  entropy T*S    EENTRO =         0.00000000
  eigenvalues    EBANDS =     -3687.18032284
  atomic energy  EATOM  =     14592.26033195
  Solvation  Ediel_sol  =         0.00000000
  ---------------------------------------------------
  free energy    TOTEN  =      -470.75979661 eV

  energy without entropy =     -470.75979661  energy(sigma->0) =     -470.75979661


--------------------------------------------------------------------------------------------------------




--------------------------------------- Iteration      1(  14)  ---------------------------------------


    POTLOK:  cpu time    0.0970: real time    0.0990
    SETDIJ:  cpu time    0.0085: real time    0.0086
     EDDAV:  cpu time    6.9226: real time    7.0050
 BZINTS: Fermi energy: -1.709427;270.000000 electrons
         Band energy:***********;  BLOECHL correction:  0.000000
       DOS:  cpu time    0.0035: real time    0.0035
    CHARGE:  cpu time    0.1121: real time    0.1125
    MIXING:  cpu time    0.0031: real time    0.0031
    --------------------------------------------
      LOOP:  cpu time    7.1468: real time    7.2317

 eigenvalue-minimisations  :  3792
 total energy-change (2. order) :-0.8461811E-03  (-0.4839711E-02)
 number of electron     270.0000068 magnetization       0.0000000
 augmentation part       18.6832708 magnetization       0.0000033

 Broyden mixing:
  rms(total) = 0.30695E-01    rms(broyden)= 0.30680E-01
  rms(prec ) = 0.34122E-01
  weight for this iteration     100.00

 eigenvalues of (default mixing * dielectric matrix)
  average eigenvalue GAMMA=   1.4182
  3.8085  2.5249  1.5006  1.0739  1.0739  0.8369  0.8369  0.5540  0.5540

 Free energy of the ion-electron system (eV)
  ---------------------------------------------------
  alpha Z        PSCENC =       163.06963167
  Ewald energy   TEWEN  =     28524.30684766
  -Hartree energ DENC   =    -40639.93691716
  -exchange      EXHF   =         0.00000000
  -V(xc)+E(xc)   XCENC  =      1082.06079895
  PAW double counting   =     34277.38356000   -34778.43330227
  entropy T*S    EENTRO =         0.00000000
  eigenvalues    EBANDS =     -3691.47159359
  atomic energy  EATOM  =     14592.26033195
  Solvation  Ediel_sol  =         0.00000000
  ---------------------------------------------------
  free energy    TOTEN  =      -470.76064279 eV

  energy without entropy =     -470.76064279  energy(sigma->0) =     -470.76064279


--------------------------------------------------------------------------------------------------------




--------------------------------------- Iteration      1(  15)  ---------------------------------------


    POTLOK:  cpu time    0.0984: real time    0.1003
    SETDIJ:  cpu time    0.0101: real time    0.0101
     EDDAV:  cpu time    7.7380: real time    7.8166
 BZINTS: Fermi energy: -1.704426;270.000000 electrons
         Band energy:***********;  BLOECHL correction:  0.000000
       DOS:  cpu time    0.0036: real time    0.0036
    CHARGE:  cpu time    0.1118: real time    0.1122
    MIXING:  cpu time    0.0033: real time    0.0033
    --------------------------------------------
      LOOP:  cpu time    7.9652: real time    8.0462

 eigenvalue-minimisations  :  4592
 total energy-change (2. order) : 0.6028198E-03  (-0.7112448E-03)
 number of electron     270.0000068 magnetization       0.0000000
 augmentation part       18.6833218 magnetization      -0.0000036

 Broyden mixing:
  rms(total) = 0.21488E-01    rms(broyden)= 0.21483E-01
  rms(prec ) = 0.22136E-01
  weight for this iteration     100.00

 eigenvalues of (default mixing * dielectric matrix)
  average eigenvalue GAMMA=   1.4419
  3.7357  2.6303  1.8634  1.2880  1.2880  0.8711  0.8711  0.7613  0.5552  0.5552

 Free energy of the ion-electron system (eV)
  ---------------------------------------------------
  alpha Z        PSCENC =       163.06963167
  Ewald energy   TEWEN  =     28524.30684766
  -Hartree energ DENC   =    -40641.41536380
  -exchange      EXHF   =         0.00000000
  -V(xc)+E(xc)   XCENC  =      1082.09476236
  PAW double counting   =     34286.23156501   -34787.37820877
  entropy T*S    EENTRO =         0.00000000
  eigenvalues    EBANDS =     -3689.92960604
  atomic energy  EATOM  =     14592.26033195
  Solvation  Ediel_sol  =         0.00000000
  ---------------------------------------------------
  free energy    TOTEN  =      -470.76003997 eV

  energy without entropy =     -470.76003997  energy(sigma->0) =     -470.76003997


--------------------------------------------------------------------------------------------------------




--------------------------------------- Iteration      1(  16)  ---------------------------------------


    POTLOK:  cpu time    0.1317: real time    0.1345
    SETDIJ:  cpu time    0.0101: real time    0.0101
     EDDAV:  cpu time    7.8205: real time    7.9731
 BZINTS: Fermi energy: -1.700675;270.000000 electrons
         Band energy:***********;  BLOECHL correction:  0.000000
       DOS:  cpu time    0.0036: real time    0.0036
    CHARGE:  cpu time    0.1104: real time    0.1145
    MIXING:  cpu time    0.0031: real time    0.0033
    --------------------------------------------
      LOOP:  cpu time    8.0795: real time    8.2392

 eigenvalue-minimisations  :  4504
 total energy-change (2. order) :-0.5916675E-04  (-0.1665608E-03)
 number of electron     270.0000068 magnetization       0.0000000
 augmentation part       18.6830850 magnetization      -0.0000132

 Broyden mixing:
  rms(total) = 0.13789E-01    rms(broyden)= 0.13787E-01
  rms(prec ) = 0.14070E-01
  weight for this iteration     100.00

 eigenvalues of (default mixing * dielectric matrix)
  average eigenvalue GAMMA=   1.4918
  3.5768  3.1953  2.3427  1.2727  1.1375  1.1375  0.8947  0.8947  0.8476  0.5552
  0.5552

 Free energy of the ion-electron system (eV)
  ---------------------------------------------------
  alpha Z        PSCENC =       163.06963167
  Ewald energy   TEWEN  =     28524.30684766
  -Hartree energ DENC   =    -40642.20103052
  -exchange      EXHF   =         0.00000000
  -V(xc)+E(xc)   XCENC  =      1082.10998004
  PAW double counting   =     34288.03638311   -34789.20611485
  entropy T*S    EENTRO =         0.00000000
  eigenvalues    EBANDS =     -3689.13612820
  atomic energy  EATOM  =     14592.26033195
  Solvation  Ediel_sol  =         0.00000000
  ---------------------------------------------------
  free energy    TOTEN  =      -470.76009914 eV

  energy without entropy =     -470.76009914  energy(sigma->0) =     -470.76009914


--------------------------------------------------------------------------------------------------------




--------------------------------------- Iteration      1(  17)  ---------------------------------------


    POTLOK:  cpu time    0.0972: real time    0.1004
    SETDIJ:  cpu time    0.0086: real time    0.0090
     EDDAV:  cpu time    5.4699: real time    5.6049
 BZINTS: Fermi energy: -1.699425;270.000000 electrons
         Band energy:***********;  BLOECHL correction:  0.000000
       DOS:  cpu time    0.0037: real time    0.0039
    --------------------------------------------
      LOOP:  cpu time    5.5795: real time    5.7181

 eigenvalue-minimisations  :  2536
 total energy-change (2. order) :-0.2178700E-04  (-0.2220649E-04)
 number of electron     270.0000068 magnetization       0.0000000
 augmentation part       18.6830850 magnetization      -0.0000132

 Free energy of the ion-electron system (eV)
  ---------------------------------------------------
  alpha Z        PSCENC =       163.06963167
  Ewald energy   TEWEN  =     28524.30684766
  -Hartree energ DENC   =    -40642.54241891
  -exchange      EXHF   =         0.00000000
  -V(xc)+E(xc)   XCENC  =      1082.11924201
  PAW double counting   =     34293.52012418   -34794.69115257
  entropy T*S    EENTRO =         0.00000000
  eigenvalues    EBANDS =     -3688.80272691
  atomic energy  EATOM  =     14592.26033195
  Solvation  Ediel_sol  =         0.00000000
  ---------------------------------------------------
  free energy    TOTEN  =      -470.76012093 eV

  energy without entropy =     -470.76012093  energy(sigma->0) =     -470.76012093


--------------------------------------------------------------------------------------------------------




 average (electrostatic) potential at core
  the test charge radii are     0.6991  0.7089  0.9911
  (the norm of the test charge is              1.0000)
       1 -60.0203       2 -60.4019       3 -60.4016       4 -60.0861       5 -60.0822
       6 -60.1038       7 -60.2277       8 -60.0508       9 -59.9539      10 -60.8253
      11 -60.2466      12 -60.8063      13 -60.0261      14 -60.0127      15 -59.7699
      16 -60.1133      17 -60.0969      18 -60.0607      19 -60.3293      20 -60.0158
      21 -60.0509      22 -60.1913      23 -60.1434      24 -60.1471      25 -74.1185
      26 -71.7478      27 -71.7331      28 -71.9728      29 -72.0903      30 -71.8126
      31 -71.7788      32 -74.6147      33 -73.7312      34 -72.2838      35 -73.3713
      36 -71.8948      37 -71.9079      38 -72.3443      39 -73.3196      40 -74.7391
      41 -73.8783      42 -71.8962      43 -71.7973      44 -72.1196      45 -72.1112
      46 -71.7724      47 -71.7813      48 -74.4865      49 -73.9215      50 -72.0736
      51 -71.9589      52 -71.7579      53 -71.7109      54 -72.0304      55 -71.9536
      56 -74.7737      57 -81.4641
 
 
 
 E-fermi :  -1.6994     XC(G=0):  -3.1720     alpha+bet : -2.5440


 spin component 1

 k-point     1 :       0.0000    0.0000    0.0000
  band No.  band energies     occupation 
      1     -27.2211      1.00000
      2     -27.1204      1.00000
      3     -26.8477      1.00000
      4     -26.7984      1.00000
      5     -26.7893      1.00000
      6     -26.7643      1.00000
      7     -26.7481      1.00000
      8     -26.7147      1.00000
      9     -26.6888      1.00000
     10     -25.7586      1.00000
     11     -25.6434      1.00000
     12     -25.5979      1.00000
     13     -24.6635      1.00000
     14     -24.6470      1.00000
     15     -24.5343      1.00000
     16     -24.4575      1.00000
     17     -24.3967      1.00000
     18     -24.2708      1.00000
     19     -23.5118      1.00000
     20     -23.2783      1.00000
     21     -23.2754      1.00000
     22     -22.4616      1.00000
     23     -22.4026      1.00000
     24     -22.1687      1.00000
     25     -22.0420      1.00000
     26     -21.9927      1.00000
     27     -21.9762      1.00000
     28     -21.8750      1.00000
     29     -21.8370      1.00000
     30     -21.5558      1.00000
     31     -21.4936      1.00000
     32     -21.3885      1.00000
     33     -20.9980      1.00000
     34     -20.8525      1.00000
     35     -20.7313      1.00000
     36     -20.5577      1.00000
     37     -20.2947      1.00000
     38     -17.8628      1.00000
     39     -17.7797      1.00000
     40     -17.6424      1.00000
     41     -17.4212      1.00000
     42     -17.2862      1.00000
     43     -17.2507      1.00000
     44     -16.8179      1.00000
     45     -16.5847      1.00000
     46     -15.9434      1.00000
     47     -15.8049      1.00000
     48     -15.7295      1.00000
     49     -15.4536      1.00000
     50     -15.3502      1.00000
     51     -15.3112      1.00000
     52     -14.7206      1.00000
     53     -14.6118      1.00000
     54     -14.2544      1.00000
     55     -14.1810      1.00000
     56     -14.1040      1.00000
     57     -14.0138      1.00000
     58     -13.8973      1.00000
     59     -13.8462      1.00000
     60     -13.7633      1.00000
     61     -13.6775      1.00000
     62     -13.6138      1.00000
     63     -12.7484      1.00000
     64     -12.6844      1.00000
     65     -12.5098      1.00000
     66     -12.4269      1.00000
     67     -12.3023      1.00000
     68     -12.2284      1.00000
     69     -12.2087      1.00000
     70     -12.1354      1.00000
     71     -12.0876      1.00000
     72     -11.9312      1.00000
     73     -11.7371      1.00000
     74     -11.6694      1.00000
     75     -11.6301      1.00000
     76     -11.4909      1.00000
     77     -11.2909      1.00000
     78     -10.9171      1.00000
     79     -10.7889      1.00000
     80     -10.4870      1.00000
     81     -10.3627      1.00000
     82     -10.2155      1.00000
     83     -10.1364      1.00000
     84      -9.8802      1.00000
     85      -9.6975      1.00000
     86      -9.5411      1.00000
     87      -9.4203      1.00000
     88      -9.4001      1.00000
     89      -9.2957      1.00000
     90      -9.2219      1.00000
     91      -8.8895      1.00000
     92      -8.2714      1.00000
     93      -8.1979      1.00000
     94      -8.1001      1.00000
     95      -7.9848      1.00000
     96      -7.8502      1.00000
     97      -7.6100      1.00000
     98      -7.5788      1.00000
     99      -7.4430      1.00000
    100      -7.3130      1.00000
    101      -7.3034      1.00000
    102      -7.2236      1.00000
    103      -7.1795      1.00000
    104      -7.1198      1.00000
    105      -7.0583      1.00000
    106      -6.9450      1.00000
    107      -6.8482      1.00000
    108      -6.7244      1.00000
    109      -6.4750      1.00000
    110      -6.2695      1.00000
    111      -6.1311      1.00000
    112      -6.0424      1.00000
    113      -5.9223      1.00000
    114      -5.7718      1.00000
    115      -5.5756      1.00000
    116      -5.4313      1.00000
    117      -5.3640      1.00000
    118      -5.3236      1.00000
    119      -5.2812      1.00000
    120      -5.1704      1.00000
    121      -5.0872      1.00000
    122      -4.9504      1.00000
    123      -4.7685      1.00000
    124      -4.6834      1.00000
    125      -4.6474      1.00000
    126      -4.4760      1.00000
    127      -4.3767      1.00000
    128      -4.2467      1.00000
    129      -4.1541      1.00000
    130      -4.0820      1.00000
    131      -3.8811      1.00000
    132      -3.8306      1.00000
    133      -3.7023      1.00000
    134      -3.5660      1.00000
    135      -1.8380      1.00000
    136      -1.5246      0.00000
    137      -1.3232      0.00000
    138      -0.9938      0.00000
    139      -0.8061      0.00000
    140      -0.7029      0.00000
    141      -0.6032      0.00000
    142      -0.3213      0.00000
    143      -0.1952      0.00000
    144       0.0680      0.00000
    145       0.1371      0.00000
    146       0.4668      0.00000
    147       0.6440      0.00000
    148       0.9944      0.00000
    149       1.5210      0.00000
    150       1.5899      0.00000
    151       1.7574      0.00000
    152       1.8528      0.00000
    153       1.9834      0.00000
    154       2.0374      0.00000
    155       2.1998      0.00000
    156       2.2418      0.00000
    157       2.2884      0.00000
    158       2.3602      0.00000
    159       2.3850      0.00000
    160       2.4521      0.00000
    161       2.5384      0.00000
    162       2.7373      0.00000
    163       2.8121      0.00000
    164       2.9497      0.00000
    165       2.9680      0.00000
    166       2.9897      0.00000
    167       3.0346      0.00000
    168       3.1654      0.00000

 k-point     2 :       0.3333   -0.0000    0.0000
  band No.  band energies     occupation 
      1     -27.2023      1.00000
      2     -27.1364      1.00000
      3     -26.8453      1.00000
      4     -26.8012      1.00000
      5     -26.7930      1.00000
      6     -26.7702      1.00000
      7     -26.7574      1.00000
      8     -26.7164      1.00000
      9     -26.6890      1.00000
     10     -25.7279      1.00000
     11     -25.6136      1.00000
     12     -25.4868      1.00000
     13     -25.1037      1.00000
     14     -24.6042      1.00000
     15     -24.5385      1.00000
     16     -24.4321      1.00000
     17     -24.3814      1.00000
     18     -23.9479      1.00000
     19     -23.5599      1.00000
     20     -23.2905      1.00000
     21     -23.1960      1.00000
     22     -22.5051      1.00000
     23     -22.3415      1.00000
     24     -22.2645      1.00000
     25     -22.1481      1.00000
     26     -22.1341      1.00000
     27     -22.0507      1.00000
     28     -21.8980      1.00000
     29     -21.8886      1.00000
     30     -21.4559      1.00000
     31     -21.4094      1.00000
     32     -21.2317      1.00000
     33     -21.0538      1.00000
     34     -20.7757      1.00000
     35     -20.7124      1.00000
     36     -20.4843      1.00000
     37     -20.3539      1.00000
     38     -17.7984      1.00000
     39     -17.7861      1.00000
     40     -17.6072      1.00000
     41     -17.4910      1.00000
     42     -17.3342      1.00000
     43     -17.1796      1.00000
     44     -17.0703      1.00000
     45     -16.8643      1.00000
     46     -15.8267      1.00000
     47     -15.7450      1.00000
     48     -15.6234      1.00000
     49     -15.5445      1.00000
     50     -15.0606      1.00000
     51     -14.8802      1.00000
     52     -14.7269      1.00000
     53     -14.5157      1.00000
     54     -14.3422      1.00000
     55     -14.1631      1.00000
     56     -14.1474      1.00000
     57     -14.1124      1.00000
     58     -13.9859      1.00000
     59     -13.8530      1.00000
     60     -13.7557      1.00000
     61     -13.6762      1.00000
     62     -13.5647      1.00000
     63     -13.2163      1.00000
     64     -12.9524      1.00000
     65     -12.8224      1.00000
     66     -12.5426      1.00000
     67     -12.3215      1.00000
     68     -12.2403      1.00000
     69     -12.1283      1.00000
     70     -12.0488      1.00000
     71     -11.9923      1.00000
     72     -11.8108      1.00000
     73     -11.6866      1.00000
     74     -11.6369      1.00000
     75     -11.3444      1.00000
     76     -11.2442      1.00000
     77     -11.1429      1.00000
     78     -10.8902      1.00000
     79     -10.6590      1.00000
     80     -10.5650      1.00000
     81     -10.3562      1.00000
     82     -10.2440      1.00000
     83     -10.1894      1.00000
     84      -9.9737      1.00000
     85      -9.7382      1.00000
     86      -9.6466      1.00000
     87      -9.5269      1.00000
     88      -9.4149      1.00000
     89      -9.3469      1.00000
     90      -9.2684      1.00000
     91      -8.6359      1.00000
     92      -8.2731      1.00000
     93      -8.2067      1.00000
     94      -8.1025      1.00000
     95      -7.9900      1.00000
     96      -7.9054      1.00000
     97      -7.6190      1.00000
     98      -7.5359      1.00000
     99      -7.4438      1.00000
    100      -7.3854      1.00000
    101      -7.3374      1.00000
    102      -7.2419      1.00000
    103      -7.1852      1.00000
    104      -7.0975      1.00000
    105      -7.0298      1.00000
    106      -6.9913      1.00000
    107      -6.8680      1.00000
    108      -6.6349      1.00000
    109      -6.4369      1.00000
    110      -6.2388      1.00000
    111      -6.1340      1.00000
    112      -6.0306      1.00000
    113      -5.9599      1.00000
    114      -5.8219      1.00000
    115      -5.6777      1.00000
    116      -5.4638      1.00000
    117      -5.3470      1.00000
    118      -5.2920      1.00000
    119      -5.2003      1.00000
    120      -5.1663      1.00000
    121      -4.9997      1.00000
    122      -4.9597      1.00000
    123      -4.7981      1.00000
    124      -4.7027      1.00000
    125      -4.5785      1.00000
    126      -4.5179      1.00000
    127      -4.3892      1.00000
    128      -4.2027      1.00000
    129      -4.1346      1.00000
    130      -4.0396      1.00000
    131      -3.9172      1.00000
    132      -3.8509      1.00000
    133      -3.7322      1.00000
    134      -3.6619      1.00000
    135      -1.7445      1.00000
    136      -1.5104      0.00000
    137      -1.1911      0.00000
    138      -1.0195      0.00000
    139      -0.7724      0.00000
    140      -0.6300      0.00000
    141      -0.5669      0.00000
    142      -0.4740      0.00000
    143      -0.3170      0.00000
    144       0.0692      0.00000
    145       0.1033      0.00000
    146       0.3917      0.00000
    147       0.4914      0.00000
    148       1.1240      0.00000
    149       1.4083      0.00000
    150       1.5822      0.00000
    151       1.7720      0.00000
    152       1.8322      0.00000
    153       1.9687      0.00000
    154       2.0963      0.00000
    155       2.1823      0.00000
    156       2.3380      0.00000
    157       2.3638      0.00000
    158       2.3861      0.00000
    159       2.5032      0.00000
    160       2.5745      0.00000
    161       2.6361      0.00000
    162       2.7389      0.00000
    163       2.8053      0.00000
    164       2.8687      0.00000
    165       2.9060      0.00000
    166       2.9825      0.00000
    167       3.0507      0.00000
    168       3.1746      0.00000

 k-point     3 :       0.0000    0.3333    0.0000
  band No.  band energies     occupation 
      1     -27.2112      1.00000
      2     -27.1200      1.00000
      3     -26.8694      1.00000
      4     -26.7986      1.00000
      5     -26.7940      1.00000
      6     -26.7644      1.00000
      7     -26.7470      1.00000
[...]
   -.145E+02 0.321E+02 0.129E+03   0.129E+02 -.322E+02 -.129E+03   0.273E+01 0.321E+00 0.561E+00   0.159E-01 0.118E-02 0.520E-02
   0.703E+02 -.573E+02 -.886E+02   -.733E+02 0.588E+02 0.891E+02   0.291E+01 -.156E+01 -.251E+00   0.399E-02 -.121E-01 0.388E-02
   -.142E+02 0.544E+02 0.204E+03   0.146E+02 -.572E+02 -.206E+03   -.431E+00 0.311E+01 0.177E+01   -.101E-01 0.113E-01 0.945E-02
   -.655E+02 -.186E+02 0.979E+02   0.685E+02 0.200E+02 -.992E+02   -.292E+01 -.145E+01 0.111E+01   -.107E-01 0.759E-03 0.653E-02
   0.412E+02 -.286E+02 -.347E+02   -.415E+02 0.270E+02 0.344E+02   0.543E+00 0.245E+01 0.840E+00   0.363E-02 0.770E-02 0.130E-02
   0.263E+02 -.159E+02 -.501E+02   -.244E+02 0.169E+02 0.498E+02   -.278E+01 -.181E+01 0.415E+00   -.337E-02 -.670E-02 0.451E-02
   -.843E+01 -.811E+00 -.610E+02   0.620E+01 0.165E+01 0.609E+02   0.310E+01 -.157E+01 0.280E+00   0.174E-02 -.101E-02 0.133E-02
   -.249E+02 0.184E+02 -.735E+02   0.235E+02 -.166E+02 0.748E+02   0.107E+01 -.181E+01 -.115E+01   0.532E-03 -.134E-02 -.124E-02
   -.352E+01 0.221E+02 0.485E+02   0.349E+01 -.256E+02 -.481E+02   0.726E-01 0.323E+01 -.643E+00   0.338E-02 -.230E-02 0.729E-02
   0.329E+02 0.168E+02 -.662E+02   -.315E+02 -.149E+02 0.674E+02   -.122E+01 -.220E+01 -.808E+00   0.887E-02 0.157E-02 0.140E-02
   -.397E+01 -.173E+02 -.149E+02   0.417E+01 0.147E+02 0.151E+02   -.115E+00 0.339E+01 -.644E+00   -.498E-02 -.944E-03 0.446E-03
   0.395E+02 0.297E+02 0.197E+03   -.375E+02 -.287E+02 -.196E+03   -.288E+01 -.138E+01 -.769E+00   -.367E-02 0.145E-02 0.435E-02
   -.136E+02 0.231E+02 0.889E+02   0.116E+02 -.224E+02 -.885E+02   0.304E+01 -.131E+01 -.516E+00   -.154E-01 0.606E-02 0.335E-02
   0.680E+02 -.174E+02 0.673E+02   -.710E+02 0.188E+02 -.680E+02   0.295E+01 -.152E+01 0.573E+00   0.117E-01 -.530E-02 0.668E-02
   0.267E+01 0.774E+02 0.219E+03   -.247E+01 -.802E+02 -.221E+03   -.121E-01 0.300E+01 0.173E+01   0.128E-01 0.694E-02 0.493E-02
   -.671E+02 -.605E+02 -.101E+03   0.702E+02 0.620E+02 0.101E+03   -.289E+01 -.153E+01 -.450E+00   -.376E-02 -.156E-01 0.433E-02
   -.344E+02 -.278E+02 -.145E+03   0.343E+02 0.264E+02 0.144E+03   -.277E+00 0.244E+01 0.924E+00   -.489E-02 0.560E-03 -.249E-02
   0.119E+02 -.235E+01 -.112E+03   -.971E+01 0.315E+01 0.112E+03   -.316E+01 -.149E+01 0.527E+00   -.679E-02 -.566E-02 0.849E-03
   -.291E+02 -.114E+02 -.912E+02   0.273E+02 0.125E+02 0.907E+02   0.279E+01 -.191E+01 0.895E+00   0.712E-02 -.114E-01 0.498E-02
   0.745E+02 -.723E+02 0.141E+03   -.771E+02 0.747E+02 -.142E+03   0.294E+01 -.206E+01 0.164E+00   0.110E-01 0.792E-02 0.509E-02
   -.110E+02 0.448E+02 -.192E+03   0.110E+02 -.482E+02 0.194E+03   -.474E-01 0.346E+01 -.148E+01   -.345E-02 0.111E-01 -.683E-02
   -.866E+02 -.264E+02 -.617E+02   0.896E+02 0.276E+02 0.629E+02   -.321E+01 -.965E+00 -.114E+01   -.187E-01 -.105E-02 -.947E-03
   -.147E+02 0.377E+02 0.173E+03   0.151E+02 -.387E+02 -.176E+03   -.345E+00 0.113E+01 0.270E+01   0.138E-01 0.324E-02 0.943E-02
   -.204E+03 -.349E+02 0.231E+03   0.237E+03 0.528E+02 -.245E+03   -.309E+02 -.165E+02 0.124E+02   -.344E-02 0.804E-02 0.835E-02
   0.165E+03 -.160E+03 -.245E+03   -.198E+03 0.177E+03 0.257E+03   0.305E+02 -.162E+02 -.109E+02   -.254E-02 -.704E-02 0.670E-02
   0.527E+01 0.180E+03 0.407E+03   -.253E+01 -.211E+03 -.431E+03   -.240E+01 0.288E+02 0.223E+02   -.168E-01 0.745E-02 0.324E-02
   -.372E+02 0.146E+03 0.430E+03   0.349E+02 -.175E+03 -.458E+03   0.228E+01 0.270E+02 0.250E+02   -.160E-02 0.691E-02 0.763E-02
   0.204E+03 -.104E+03 -.116E+03   -.235E+03 0.126E+03 0.116E+03   0.296E+02 -.197E+02 -.779E-01   -.125E-01 -.323E-02 0.453E-02
   -.154E+03 -.843E+02 0.261E+03   0.186E+03 0.945E+02 -.283E+03   -.300E+02 -.952E+01 0.195E+02   -.608E-02 -.210E-03 0.386E-02
   -.467E+01 -.191E+01 -.249E+02   0.492E+01 0.179E+01 0.261E+02   -.189E+00 0.452E-01 -.103E+01   -.173E-02 0.169E-02 0.310E-02
   0.162E+02 -.230E+02 -.998E+02   -.164E+02 0.238E+02 0.104E+03   0.226E+00 -.743E+00 -.400E+01   0.211E-02 0.374E-03 0.413E-02
   -.408E+01 -.638E+02 -.313E+03   0.273E+02 0.783E+02 0.338E+03   -.217E+02 -.134E+02 -.232E+02   0.168E-01 0.313E-02 0.467E-02
   0.107E+02 0.691E+02 -.786E+02   -.317E+02 -.649E+02 0.898E+02   0.191E+02 -.416E+01 -.105E+02   -.276E-02 0.129E-01 0.109E-01
   -.168E+02 0.121E+03 0.128E+03   0.199E+02 -.157E+03 -.139E+03   -.274E+01 0.337E+02 0.987E+01   0.363E-02 -.145E-01 0.915E-02
   -.497E+00 0.118E+03 0.142E+03   -.172E+01 -.154E+03 -.154E+03   0.189E+01 0.335E+02 0.996E+01   0.772E-02 -.127E-01 0.820E-02
   0.450E+02 -.625E+02 -.343E+03   -.729E+02 0.776E+02 0.362E+03   0.261E+02 -.139E+02 -.176E+02   -.128E-01 -.834E-02 -.322E-02
   -.394E+01 0.789E+02 -.111E+03   0.231E+02 -.754E+02 0.126E+03   -.175E+02 -.358E+01 -.142E+02   0.251E-01 0.126E-01 0.133E-01
   0.506E+02 0.186E+02 0.774E+02   -.553E+02 -.219E+02 -.771E+02   0.407E+01 0.286E+01 -.402E+00   0.147E-01 0.112E-01 0.919E-02
   0.150E+02 0.404E+02 0.153E+03   -.170E+02 -.421E+02 -.158E+03   0.194E+01 0.161E+01 0.408E+01   -.203E-01 0.291E-02 0.327E-02
   -.201E+03 -.109E+03 -.126E+03   0.233E+03 0.130E+03 0.127E+03   -.300E+02 -.188E+02 -.860E+00   0.735E-02 -.115E-01 0.902E-02
   0.158E+03 -.718E+02 0.203E+03   -.191E+03 0.816E+02 -.221E+03   0.311E+02 -.918E+01 0.167E+02   0.233E-02 -.125E-01 0.752E-02
   0.101E+02 0.169E+03 0.445E+03   -.523E+01 -.199E+03 -.470E+03   -.467E+01 0.279E+02 0.230E+02   0.193E-01 -.432E-02 -.909E-03
   0.286E+01 0.247E+03 0.370E+03   -.465E+01 -.284E+03 -.382E+03   0.135E+01 0.339E+02 0.108E+02   0.743E-02 -.126E-01 -.335E-02
   0.206E+03 -.363E+02 0.140E+03   -.240E+03 0.555E+02 -.147E+03   0.315E+02 -.177E+02 0.601E+01   0.113E-01 0.962E-03 0.845E-02
   -.150E+03 -.165E+03 -.301E+03   0.181E+03 0.182E+03 0.316E+03   -.291E+02 -.160E+02 -.140E+02   0.516E-02 -.181E-01 0.662E-02
   0.817E+00 -.336E+02 -.131E+02   -.706E+00 0.349E+02 0.106E+02   -.142E+00 -.115E+01 0.222E+01   0.171E-02 -.150E-01 0.636E-02
   -.156E+02 -.262E+02 -.194E+03   0.153E+02 0.284E+02 0.200E+03   0.141E+00 -.200E+01 -.536E+01   -.235E-02 -.255E-02 0.893E-03
   -.235E+03 -.690E+02 -.953E+02   0.268E+03 0.886E+02 0.964E+02   -.305E+02 -.183E+02 -.951E+00   -.120E-01 0.156E-02 -.242E-02
   0.186E+03 -.155E+03 0.314E+03   -.220E+03 0.172E+03 -.322E+03   0.309E+02 -.161E+02 0.673E+01   -.927E-02 0.154E-01 0.190E-02
   -.327E+00 0.156E+03 -.396E+03   0.524E+01 -.187E+03 0.421E+03   -.446E+01 0.283E+02 -.227E+02   -.921E-04 0.518E-02 -.184E-02
   -.361E+02 0.120E+03 -.445E+03   0.345E+02 -.149E+03 0.474E+03   0.143E+01 0.266E+02 -.261E+02   -.112E-01 0.381E-02 -.476E-02
   0.197E+03 -.134E+03 0.243E+03   -.223E+03 0.158E+03 -.257E+03   0.241E+02 -.226E+02 0.123E+02   0.257E-02 0.150E-01 0.194E-02
   -.176E+03 -.770E+02 -.191E+03   0.211E+03 0.864E+02 0.207E+03   -.320E+02 -.915E+01 -.141E+02   -.183E-01 0.594E-02 0.515E-02
   -.475E+02 0.216E+02 0.457E+02   0.508E+02 -.242E+02 -.483E+02   -.284E+01 0.218E+01 0.215E+01   -.122E-01 0.278E-02 0.282E-02
   0.477E+02 -.118E+03 -.102E+04   -.490E+02 0.136E+03 0.105E+04   0.124E+01 -.174E+02 -.213E+02   0.476E-01 -.955E-02 -.592E-01
 -----------------------------------------------------------------------------------------------
   0.293E+01 -.397E+01 0.980E+00   0.320E-12 -.114E-12 -.909E-12   -.298E+01 0.399E+01 -.113E+01   0.463E-01 -.106E-01 0.161E+00
 
 
 POSITION                                       TOTAL-FORCE (eV/Angst)
 -----------------------------------------------------------------------------------
     -0.01436      2.37791      6.14108        -0.020366      1.174129     -0.385275
      1.17178      4.42330      6.23748        -1.258157      0.166960      0.013686
     -1.22389      4.37958      6.15294         1.197258      0.153268      0.134976
      5.52065      0.63483      7.28199        -0.142109     -0.077916      0.254666
      3.34853      4.42210      5.94037        -0.044327      0.244237     -0.251143
      1.13846      0.57161      6.46101         0.095138     -0.040469     -0.150045
     -3.44967      7.97525      6.96818         0.229162      0.929384      0.559039
     -2.13555      9.94102      7.21730        -0.887048     -0.815888      0.140537
     -4.49554     10.03267      7.17301         0.920983     -0.755512      0.204825
      2.30961      6.07363      7.22741        -0.281352     -0.098533      0.173270
      0.03783      9.85693      7.04117         0.053692     -0.313755     -0.308887
     -2.44721      6.07050      6.92167         0.214369     -0.230556      0.408379
      6.70710      2.39006      6.80694         0.085986      0.891171     -0.444332
      7.77973      4.23225      5.75831        -1.047852     -0.452628     -0.243737
      5.49151      4.31545      6.27065         1.075620     -0.669001     -0.133552
     12.13837      0.41513      6.63408        -0.146678     -0.101621     -0.143591
      9.93343      4.16745      5.67187         0.209190      0.147282     -0.317578
      7.84083      0.62227      7.37326         0.234010     -0.016064      0.254670
      3.42391      7.87245      7.64998        -0.393418      1.150355      0.549828
      4.53460      9.92940      7.52947        -1.064374     -0.721623      0.539758
      2.16890      9.90865      7.50711         1.037948     -0.852873      0.386413
      8.73003      6.14734      6.05534         0.292780      0.386125     -0.104083
      6.69137      9.94919      7.69917         0.003048     -0.057595      0.393271
      4.57136      6.11356      7.05399        -0.184614      0.206941      0.139157
     -0.01378      3.73573      6.12041         0.105049      0.095580     -0.172345
      1.11971      1.77711      6.06171         2.352814      1.355571     -1.134059
      4.45686     -0.04129      7.51907        -2.280000      1.335452      1.440176
      4.45899      3.86359      5.65036         0.328888     -2.185120     -2.165907
      2.18409      3.98711      5.61244        -0.100646     -1.790750     -2.391302
      5.54565      1.89168      7.10138        -2.298353      1.939967      0.346782
     -4.45706     11.06605      6.43185         2.315392      0.676028     -1.940529
      0.01615      0.02053      6.95292         0.060019     -0.070296      0.149678
     -3.33291      9.29791      7.20374         0.078409      0.029677      0.406697
     -2.50679      7.22013      7.45615         1.396706      1.142024      2.345696
      1.17125      5.45336      7.07833        -1.881610     -0.016887      0.765635
      1.16275      9.23542      7.05202         0.358817     -2.621506     -1.138333
     -1.08433      9.25019      6.90298        -0.330478     -2.604511     -1.138859
      2.32577      7.18433      7.84561        -1.775181      1.154382      2.067496
     -1.33012      5.40413      6.98567         1.723178     -0.073590      1.277286
      9.83991      5.38730      6.27823        -0.560214     -0.396370     -0.143495
      6.67524      3.58456      6.18217        -0.155454     -0.088123     -0.504874
      7.85010      1.87425      7.13142         2.332199      1.893068      0.209147
      4.43994     10.92125      6.73703        -2.418558      0.606468     -1.795014
     -2.16725      3.90624      5.45476         0.274432     -1.891408     -2.387210
      8.84292      3.55482      5.46521        -0.431068     -2.813632     -1.281908
     12.12621      1.62600      6.26588        -2.430063      1.527272     -0.600625
      8.85419     -0.06360      7.76853         2.063803      1.371111      1.658714
      6.68348     -0.04884      7.17565        -0.027057      0.187420     -0.284561
      3.35120      9.22191      7.69247        -0.127455      0.120928      0.561575
      4.55314      7.34832      7.37949         2.576144      1.367292      0.065384
      7.69180      5.53620      5.69875        -2.718975      0.895361     -1.346090
     -5.45746      9.57400      7.90095         0.455670     -2.129930      2.114978
      5.57451      9.49515      8.15112        -0.135304     -1.711241      2.506847
     -4.44394      7.60312      6.25759        -2.030626      1.749699     -1.339521
      5.60682      5.39353      6.96702         2.745361      0.291003      1.391017
      3.38565      5.54127      6.72712         0.436850     -0.429466     -0.442882
     -0.12858      6.60400      8.03224        -0.081577      0.838707      1.230155
 -----------------------------------------------------------------------------------
    total drift:                               -0.007354      0.002869      0.009930


--------------------------------------------------------------------------------------------------------



  FREE ENERGIE OF THE ION-ELECTRON SYSTEM (eV)
  ---------------------------------------------------
  free  energy   TOTEN  =      -474.85073987 eV

  energy  without entropy=     -474.85073987  energy(sigma->0) =     -474.85073987
 


--------------------------------------------------------------------------------------------------------


    POTLOK:  cpu time    0.1061: real time    0.1067


--------------------------------------------------------------------------------------------------------


 stress matrix after NEB project (eV)
    155.13622     -2.94828      4.31026
     -2.94828    137.56044      7.56043
      4.31026      7.56043     25.20888
  FORCES: max atom, RMS     3.163298    2.020509
  FORCE total and by dimension   15.254511    2.813632
  Stress total and by dimension  209.271284  155.136220
     LOOP+:  cpu time  139.1599: real time  141.6319
    4ORBIT:  cpu time    0.0000: real time    0.0000
 


 total charge     
 
# of ion       s       p       d       tot
------------------------------------------
    1        0.886   1.867   0.000   2.753
    2        0.872   1.850   0.000   2.722
    3        0.875   1.857   0.000   2.732
    4        0.899   1.878   0.000   2.777
    5        0.888   1.874   0.000   2.762
    6        0.903   1.889   0.000   2.793
    7        0.887   1.860   0.000   2.747
    8        0.885   1.854   0.000   2.739
    9        0.891   1.856   0.000   2.747
   10        0.904   1.912   0.000   2.816
   11        0.900   1.882   0.000   2.782
   12        0.910   1.923   0.000   2.832
   13        0.884   1.854   0.000   2.738
   14        0.880   1.857   0.000   2.737
   15        0.878   1.859   0.000   2.736
   16        0.905   1.895   0.000   2.799
   17        0.891   1.884   0.000   2.775
   18        0.896   1.875   0.000   2.771
   19        0.885   1.857   0.000   2.742
   20        0.888   1.853   0.000   2.740
   21        0.881   1.846   0.000   2.727
   22        0.896   1.879   0.000   2.775
   23        0.897   1.865   0.000   2.762
   24        0.901   1.897   0.000   2.797
   25        1.230   2.846   0.000   4.076
   26        1.287   2.772   0.000   4.060
   27        1.284   2.769   0.000   4.052
   28        1.286   2.738   0.000   4.025
   29        1.286   2.761   0.000   4.046
   30        1.283   2.764   0.000   4.047
   31        1.293   2.765   0.000   4.058
   32        1.255   2.882   0.000   4.137
   33        1.240   2.862   0.000   4.103
   34        1.281   2.778   0.000   4.060
   35        1.259   2.784   0.000   4.042
   36        1.280   2.762   0.000   4.042
   37        1.279   2.761   0.000   4.041
   38        1.278   2.769   0.000   4.046
   39        1.260   2.790   0.000   4.050
   40        1.254   2.900   0.000   4.154
   41        1.237   2.846   0.000   4.082
   42        1.281   2.753   0.000   4.034
   43        1.291   2.772   0.000   4.063
   44        1.285   2.762   0.000   4.047
   45        1.285   2.743   0.000   4.028
   46        1.287   2.778   0.000   4.065
   47        1.283   2.760   0.000   4.043
   48        1.252   2.886   0.000   4.138
   49        1.235   2.829   0.000   4.064
   50        1.287   2.774   0.000   4.060
   51        1.283   2.762   0.000   4.045
   52        1.284   2.746   0.000   4.030
   53        1.285   2.750   0.000   4.035
   54        1.281   2.756   0.000   4.037
   55        1.292   2.758   0.000   4.050
   56        1.253   2.893   0.000   4.146
   57        1.330   0.817  10.081  12.228
--------------------------------------------------
tot         63.450 135.006  10.081 208.538
 


 magnetization (x)
 
# of ion       s       p       d       tot
------------------------------------------
    1       -0.000  -0.000   0.000  -0.000
    2        0.000   0.000   0.000   0.000
    3       -0.000  -0.000   0.000  -0.000
    4       -0.000  -0.000   0.000  -0.000
    5        0.000   0.000   0.000   0.000
    6       -0.000  -0.000   0.000  -0.000
    7       -0.000  -0.000   0.000  -0.000
    8       -0.000  -0.000   0.000  -0.000
    9       -0.000  -0.000   0.000  -0.000
   10       -0.000  -0.000   0.000  -0.000
   11        0.000   0.000   0.000   0.000
   12        0.000   0.000   0.000   0.000
   13       -0.000  -0.000   0.000  -0.000
   14       -0.000  -0.000   0.000  -0.000
   15        0.000   0.000   0.000   0.000
   16        0.000   0.000   0.000   0.000
   17       -0.000  -0.000   0.000  -0.000
   18       -0.000  -0.000   0.000  -0.000
   19        0.000   0.000   0.000   0.000
   20       -0.000   0.000   0.000   0.000
   21        0.000   0.000   0.000   0.000
   22       -0.000  -0.000   0.000  -0.000
   23       -0.000  -0.000   0.000  -0.000
   24        0.000   0.000   0.000   0.000
   25        0.000   0.000   0.000   0.000
   26        0.000   0.000   0.000   0.000
   27        0.000  -0.000   0.000  -0.000
   28       -0.000  -0.000   0.000  -0.000
   29       -0.000  -0.000   0.000  -0.000
   30        0.000  -0.000   0.000  -0.000
   31        0.000   0.000   0.000   0.000
   32        0.000  -0.000   0.000  -0.000
   33        0.000   0.000   0.000   0.000
   34       -0.000  -0.000   0.000  -0.000
   35       -0.000   0.000   0.000   0.000
   36        0.000  -0.000   0.000  -0.000
   37        0.000  -0.000   0.000  -0.000
   38        0.000   0.000   0.000   0.000
   39        0.000  -0.000   0.000  -0.000
   40       -0.000  -0.000   0.000  -0.000
   41        0.000   0.000   0.000   0.000
   42        0.000   0.000   0.000   0.000
   43        0.000   0.000   0.000   0.000
   44        0.000   0.000   0.000   0.000
   45        0.000   0.000   0.000   0.000
   46        0.000  -0.000   0.000   0.000
   47       -0.000   0.000   0.000   0.000
   48       -0.000  -0.000   0.000  -0.000
   49       -0.000  -0.000   0.000  -0.000
   50        0.000  -0.000   0.000  -0.000
   51       -0.000  -0.000   0.000  -0.000
   52       -0.000  -0.000   0.000  -0.000
   53        0.000   0.000   0.000   0.000
   54        0.000   0.000   0.000   0.000
   55        0.000   0.000   0.000   0.000
   56        0.000   0.000   0.000   0.000
   57        0.000   0.000   0.000   0.000
--------------------------------------------------
tot         -0.000  -0.000   0.000  -0.000
 
 BZINTS: Fermi energy: -1.699425;270.000000 electrons
         Band energy:***********;  BLOECHL correction:  0.000000

 total amount of memory used by VASP MPI-rank0    79006. kBytes
=======================================================================

   base      :      30000. kBytes
   nonl-proj :      11452. kBytes
   fftplans  :       3323. kBytes
   grid      :       8675. kBytes
   one-center:        155. kBytes
   wavefun   :      25401. kBytes
 
  
  
 General timing and accounting informations for this job:
 ========================================================
  
                  Total CPU time used (sec):      151.303
                            User time (sec):      145.141
                          System time (sec):        6.162
                         Elapsed time (sec):      162.278
  
                   Maximum memory used (kb):      442188.
                   Average memory used (kb):           0.
  
                          Minor page faults:       844199
                          Major page faults:            0
                 Voluntary context switches:         8121
