       N       E                     dE             d eps       ncg     rms          rms(c)
DAV:   1     0.282223069436E+04    0.28222E+04   -0.11430E+05  4040   0.123E+03
DAV:   2    -0.365088784308E+02   -0.28587E+04   -0.27637E+04  4624   0.331E+02
DAV:   3    -0.502426421523E+03   -0.46592E+03   -0.46246E+03  4044   0.152E+02
DAV:   4    -0.519146047342E+03   -0.16720E+02   -0.16341E+02  4184   0.406E+01
DAV:   5    -0.519801330101E+03   -0.65528E+00   -0.64825E+00  4528   0.629E+00    0.517E+01
DAV:   6    -0.478711036866E+03    0.41090E+02   -0.55175E+01  4400   0.337E+01    0.340E+01
DAV:   7    -0.464590239855E+03    0.14121E+02   -0.75795E+01  4176   0.249E+01    0.194E+01
DAV:   8    -0.462572321127E+03    0.20179E+01   -0.16657E+01  4136   0.141E+01    0.137E+01
DAV:   9    -0.462786671260E+03   -0.21435E+00   -0.13383E+01  5376   0.146E+01    0.693E+00
DAV:  10    -0.462131052014E+03    0.65562E+00   -0.74595E+00  5104   0.105E+01    0.348E+00
DAV:  11    -0.462034706392E+03    0.96346E-01   -0.15361E+00  4808   0.429E+00    0.179E+00
DAV:  12    -0.461994804818E+03    0.39902E-01   -0.60126E-01  4400   0.241E+00    0.116E+00
DAV:  13    -0.461971975599E+03    0.22829E-01   -0.26408E-01  4152   0.153E+00    0.486E-01
DAV:  14    -0.461972116701E+03   -0.14110E-03   -0.51077E-02  3984   0.737E-01    0.320E-01
DAV:  15    -0.461971626780E+03    0.48992E-03   -0.67208E-03  4944   0.334E-01    0.218E-01
DAV:  16    -0.461971607588E+03    0.19191E-04   -0.13893E-03  4272   0.123E-01    0.119E-01
DAV:  17    -0.461971641452E+03   -0.33864E-04   -0.28559E-04  2520   0.717E-02
   1 F= -.46619761E+03 E0= -.46619761E+03  d E =0.000000E+00  mag=    -0.0000
