 vasp.5.4.4.18Apr17-6-g9f103f2a35 (build Nov  8 2022 18:58:45) complex           
 executed on             LinuxGNU date 2023.04.13  15:54:02
 running on   48 total cores
 distrk:  each k-point on   48 cores,    1 groups
 distr:  one band on NCORES_PER_BAND=  12 cores,    4 groups


--------------------------------------------------------------------------------------------------------


 INCAR:
 POTCAR:    PAW_PBE C 08Apr2002                   
 POTCAR:    PAW_PBE N 08Apr2002                   
 POTCAR:    PAW_PBE Ge_d 03Jul2007                
 POTCAR:    PAW_PBE C 08Apr2002                   
 POTCAR:    PAW_PBE O 08Apr2002                   
 POTCAR:    PAW_PBE C 08Apr2002                   
   SHA256 =  253f7b50bb8d59471dbedb8285d89021f4a42ed1a2c5d38a03a736e69125dd95 C/
   COPYR  = (c) Copyright 08Apr2002 Georg Kresse                                
   COPYR  = This file is part of the software VASP. Any use, copying, and all ot
   COPYR  = If you do not have a valid VASP license, you may not use, copy or di
   VRHFIN =C: s2p2                                                              
   LEXCH  = PE                                                                  
   EATOM  =   147.1560 eV,   10.8157 Ry                                         
                                                                                
   TITEL  = PAW_PBE C 08Apr2002                                                 
   LULTRA =        F    use ultrasoft PP ?                                      
   IUNSCR =        1    unscreen: 0-lin 1-nonlin 2-no                           
   RPACOR =    1.200    partial core radius                                     
   POMASS =   12.011; ZVAL   =    4.000    mass and valenz                      
   RCORE  =    1.500    outmost cutoff radius                                   
   RWIGS  =    1.630; RWIGS  =    0.863    wigner-seitz radius (au A)           
   ENMAX  =  400.000; ENMIN  =  300.000 eV                                      
   ICORE  =        2    local potential                                         
   LCOR   =        T    correct aug charges                                     
   LPAW   =        T    paw PP                                                  
   EAUG   =  644.873                                                            
   DEXC   =    0.000                                                            
   RMAX   =    1.529    core radius for proj-oper                               
   RAUG   =    1.300    factor for augmentation sphere                          
   RDEP   =    1.501    radius for radial grids                                 
   RDEPT  =    1.300    core radius for aug-charge                              
                                                                                
   Atomic configuration                                                         
    4 entries                                                                   
     n  l   j            E        occ.                                          
     1  0  0.50      -273.3789   2.0000                                         
     2  0  0.50       -13.7508   2.0000                                         
     2  1  0.50        -5.2854   2.0000                                         
     3  2  1.50        -5.4423   0.0000                                         
   Description                                                                  
     l       E           TYP  RCUT    TYP  RCUT                                 
     0    -13.7508458     23  1.200                                             
     0     -8.2022199     23  1.200                                             
     1     -5.2854383     23  1.500                                             
     1     34.0145650     23  1.500                                             
     2     -5.4423304      7  1.500                                             
  local pseudopotential read in
  partial core-charges read in
  partial kinetic energy density read in
  atomic valenz-charges read in
  non local Contribution for L=           0  read in
    real space projection operators read in
  non local Contribution for L=           0  read in
    real space projection operators read in
  non local Contribution for L=           1  read in
    real space projection operators read in
  non local Contribution for L=           1  read in
    real space projection operators read in
    PAW grid and wavefunctions read in

   number of l-projection  operators is LMAX  =           4
   number of lm-projection operators is LMMAX =           8

 POTCAR:    PAW_PBE N 08Apr2002                   
   SHA256 =  e053789ff3a61a86a1b75d8a110fcc91f86041011e7b0817c7c99e4e8a6349d7 N/
   COPYR  = (c) Copyright 08Apr2002 Georg Kresse                                
   COPYR  = This file is part of the software VASP. Any use, copying, and all ot
   COPYR  = If you do not have a valid VASP license, you may not use, copy or di
   VRHFIN =N: s2p3                                                              
   LEXCH  = PE                                                                  
   EATOM  =   264.5486 eV,   19.4438 Ry                                         
                                                                                
   TITEL  = PAW_PBE N 08Apr2002                                                 
   LULTRA =        F    use ultrasoft PP ?                                      
   IUNSCR =        1    unscreen: 0-lin 1-nonlin 2-no                           
   RPACOR =    1.200    partial core radius                                     
   POMASS =   14.001; ZVAL   =    5.000    mass and valenz                      
   RCORE  =    1.500    outmost cutoff radius                                   
   RWIGS  =    1.400; RWIGS  =    0.741    wigner-seitz radius (au A)           
   ENMAX  =  400.000; ENMIN  =  300.000 eV                                      
   ICORE  =        2    local potential                                         
   LCOR   =        T    correct aug charges                                     
   LPAW   =        T    paw PP                                                  
   EAUG   =  627.112                                                            
   DEXC   =    0.000                                                            
   RMAX   =    1.529    core radius for proj-oper                               
   RAUG   =    1.300    factor for augmentation sphere                          
   RDEP   =    1.514    radius for radial grids                                 
   RDEPT  =    1.338    core radius for aug-charge                              
                                                                                
   Atomic configuration                                                         
    4 entries                                                                   
     n  l   j            E        occ.                                          
     1  0  0.50      -384.7179   2.0000                                         
     2  0  0.50       -18.5828   2.0000                                         
     2  1  0.50        -7.0898   3.0000                                         
     3  2  1.50        -6.8029   0.0000                                         
   Description                                                                  
     l       E           TYP  RCUT    TYP  RCUT                                 
     0    -18.5828119     23  1.200                                             
     0    -13.5018863     23  1.200                                             
     1     -7.0897853     23  1.500                                             
     1      9.5240782     23  1.500                                             
     2     -6.8029130      7  1.500                                             
  local pseudopotential read in
  partial core-charges read in
  partial kinetic energy density read in
  atomic valenz-charges read in
  non local Contribution for L=           0  read in
    real space projection operators read in
  non local Contribution for L=           0  read in
    real space projection operators read in
  non local Contribution for L=           1  read in
    real space projection operators read in
  non local Contribution for L=           1  read in
    real space projection operators read in
    PAW grid and wavefunctions read in

   number of l-projection  operators is LMAX  =           4
   number of lm-projection operators is LMMAX =           8

 POTCAR:    PAW_PBE Ge_d 03Jul2007                
   SHA256 =  944b26c40d2d7c4f4eb1ff3a2e8dbfdd7129146276cd341854bfd5c0e57780ed Ge
   COPYR  = (c) Copyright 03Jul2007 Georg Kresse                                
   COPYR  = This file is part of the software VASP. Any use, copying, and all ot
   COPYR  = If you do not have a valid VASP license, you may not use, copy or di
   VRHFIN =Ge: 3d4s4p                                                           
   LEXCH  = PE                                                                  
   EATOM  =  2596.2402 eV,  190.8183 Ry                                         
                                                                                
   TITEL  = PAW_PBE Ge_d 03Jul2007                                              
   LULTRA =        F    use ultrasoft PP ?                                      
   IUNSCR =        1    unscreen: 0-lin 1-nonlin 2-no                           
   RPACOR =    2.000    partial core radius                                     
   POMASS =   72.610; ZVAL   =   14.000    mass and valenz                      
   RCORE  =    2.300    outmost cutoff radius                                   
   RWIGS  =    2.300; RWIGS  =    1.217    wigner-seitz radius (au A)           
   ENMAX  =  310.294; ENMIN  =  232.720 eV                                      
   ICORE  =        3    local potential                                         
   LCOR   =        T    correct aug charges                                     
   LPAW   =        T    paw PP                                                  
   EAUG   =  531.356                                                            
   DEXC   =    0.000                                                            
   RMAX   =    2.342    core radius for proj-oper                               
   RAUG   =    1.300    factor for augmentation sphere                          
   RDEP   =    2.318    radius for radial grids                                 
   RDEPT  =    1.783    core radius for aug-charge                              
                                                                                
   Atomic configuration                                                         
    9 entries                                                                   
     n  l   j            E        occ.                                          
     1  0  0.50    -10959.8463   2.0000                                         
     2  0  0.50     -1371.6056   2.0000                                         
     2  1  1.50     -1198.4791   6.0000                                         
     3  0  0.50      -168.4733   2.0000                                         
     3  1  1.50      -115.6019   6.0000                                         
     3  2  2.50       -29.3106  10.0000                                         
     4  0  0.50       -11.7309   2.0000                                         
     4  1  0.50        -3.8952   2.0000                                         
     4  3  2.50        -4.0817   0.0000                                         
   Description                                                                  
     l       E           TYP  RCUT    TYP  RCUT                                 
     2    -29.3105938     23  2.200                                             
     2    -13.6058260     23  2.200                                             
     0    -11.7309493     23  2.300                                             
     0     -7.4578696     23  2.300                                             
     1     -3.8952261     23  2.300                                             
     1      6.1178114     23  2.300                                             
     3     -1.3605826     23  2.300                                             
  local pseudopotential read in
  partial core-charges read in
  partial kinetic energy density read in
  atomic valenz-charges read in
  non local Contribution for L=           2  read in
    real space projection operators read in
  non local Contribution for L=           2  read in
    real space projection operators read in
  non local Contribution for L=           0  read in
    real space projection operators read in
  non local Contribution for L=           0  read in
    real space projection operators read in
  non local Contribution for L=           1  read in
    real space projection operators read in
  non local Contribution for L=           1  read in
    real space projection operators read in
    PAW grid and wavefunctions read in

   number of l-projection  operators is LMAX  =           6
   number of lm-projection operators is LMMAX =          18

 POTCAR:    PAW_PBE C 08Apr2002                   
   SHA256 =  253f7b50bb8d59471dbedb8285d89021f4a42ed1a2c5d38a03a736e69125dd95 C/
   COPYR  = (c) Copyright 08Apr2002 Georg Kresse                                
   COPYR  = This file is part of the software VASP. Any use, copying, and all ot
   COPYR  = If you do not have a valid VASP license, you may not use, copy or di
   VRHFIN =C: s2p2                                                              
   LEXCH  = PE                                                                  
   EATOM  =   147.1560 eV,   10.8157 Ry                                         
                                                                                
   TITEL  = PAW_PBE C 08Apr2002                                                 
   LULTRA =        F    use ultrasoft PP ?                                      
   IUNSCR =        1    unscreen: 0-lin 1-nonlin 2-no                           
   RPACOR =    1.200    partial core radius                                     
   POMASS =   12.011; ZVAL   =    4.000    mass and valenz                      
   RCORE  =    1.500    outmost cutoff radius                                   
   RWIGS  =    1.630; RWIGS  =    0.863    wigner-seitz radius (au A)           
   ENMAX  =  400.000; ENMIN  =  300.000 eV                                      
   ICORE  =        2    local potential                                         
   LCOR   =        T    correct aug charges                                     
   LPAW   =        T    paw PP                                                  
   EAUG   =  644.873                                                            
   DEXC   =    0.000                                                            
   RMAX   =    1.529    core radius for proj-oper                               
   RAUG   =    1.300    factor for augmentation sphere                          
   RDEP   =    1.501    radius for radial grids                                 
   RDEPT  =    1.300    core radius for aug-charge                              
                                                                                
   Atomic configuration                                                         
    4 entries                                                                   
     n  l   j            E        occ.                                          
     1  0  0.50      -273.3789   2.0000                                         
     2  0  0.50       -13.7508   2.0000                                         
     2  1  0.50        -5.2854   2.0000                                         
     3  2  1.50        -5.4423   0.0000                                         
   Description                                                                  
     l       E           TYP  RCUT    TYP  RCUT                                 
     0    -13.7508458     23  1.200                                             
     0     -8.2022199     23  1.200                                             
     1     -5.2854383     23  1.500                                             
     1     34.0145650     23  1.500                                             
     2     -5.4423304      7  1.500                                             
  local pseudopotential read in
  partial core-charges read in
  partial kinetic energy density read in
  atomic valenz-charges read in
  non local Contribution for L=           0  read in
    real space projection operators read in
  non local Contribution for L=           0  read in
    real space projection operators read in
  non local Contribution for L=           1  read in
    real space projection operators read in
  non local Contribution for L=           1  read in
    real space projection operators read in
    PAW grid and wavefunctions read in

   number of l-projection  operators is LMAX  =           4
   number of lm-projection operators is LMMAX =           8

 POTCAR:    PAW_PBE O 08Apr2002                   
   SHA256 =  818f92134a0a090dccd8ba1447fa70422a3b330e708bb4f08108d8ae51209ddf O/
   COPYR  = (c) Copyright 08Apr2002 Georg Kresse                                
   COPYR  = This file is part of the software VASP. Any use, copying, and all ot
   COPYR  = If you do not have a valid VASP license, you may not use, copy or di
   VRHFIN =O: s2p4                                                              
   LEXCH  = PE                                                                  
   EATOM  =   432.3788 eV,   31.7789 Ry                                         
                                                                                
   TITEL  = PAW_PBE O 08Apr2002                                                 
   LULTRA =        F    use ultrasoft PP ?                                      
   IUNSCR =        1    unscreen: 0-lin 1-nonlin 2-no                           
   RPACOR =    1.200    partial core radius                                     
   POMASS =   16.000; ZVAL   =    6.000    mass and valenz                      
   RCORE  =    1.520    outmost cutoff radius                                   
   RWIGS  =    1.550; RWIGS  =    0.820    wigner-seitz radius (au A)           
   ENMAX  =  400.000; ENMIN  =  300.000 eV                                      
   ICORE  =        2    local potential                                         
   LCOR   =        T    correct aug charges                                     
   LPAW   =        T    paw PP                                                  
   EAUG   =  605.392                                                            
   DEXC   =    0.000                                                            
   RMAX   =    1.553    core radius for proj-oper                               
   RAUG   =    1.300    factor for augmentation sphere                          
   RDEP   =    1.550    radius for radial grids                                 
   RDEPT  =    1.329    core radius for aug-charge                              
                                                                                
   Atomic configuration                                                         
    4 entries                                                                   
     n  l   j            E        occ.                                          
     1  0  0.50      -514.6923   2.0000                                         
     2  0  0.50       -23.9615   2.0000                                         
     2  1  0.50        -9.0305   4.0000                                         
     3  2  1.50        -9.5241   0.0000                                         
   Description                                                                  
     l       E           TYP  RCUT    TYP  RCUT                                 
     0    -23.9615318     23  1.200                                             
     0     -9.5240782     23  1.200                                             
     1     -9.0304911     23  1.520                                             
     1      8.1634956     23  1.520                                             
     2     -9.5240782      7  1.500                                             
  local pseudopotential read in
  partial core-charges read in
  partial kinetic energy density read in
  kinetic energy density of atom read in
  atomic valenz-charges read in
  non local Contribution for L=           0  read in
    real space projection operators read in
  non local Contribution for L=           0  read in
    real space projection operators read in
  non local Contribution for L=           1  read in
    real space projection operators read in
  non local Contribution for L=           1  read in
    real space projection operators read in
    PAW grid and wavefunctions read in

   number of l-projection  operators is LMAX  =           4
   number of lm-projection operators is LMMAX =           8


 ----------------------------------------------------------------------------- 
|                                                                             |
|  ADVICE TO THIS USER RUNNING 'VASP/VAMP'   (HEAR YOUR MASTER'S VOICE ...):  |
|                                                                             |
|      You have a (more or less) 'large supercell' and for larger cells       |
|      it might be more efficient to use real space projection opertators     |
|      So try LREAL= Auto  in the INCAR   file.                               |
|      Mind:          For very  accurate calculation you might also keep the  |
|      reciprocal projection scheme          (i.e. LREAL=.FALSE.)             |
|                                                                             |
 ----------------------------------------------------------------------------- 

  PAW_PBE C 08Apr2002                   :
 energy of atom  1       EATOM= -147.1560
 kinetic energy error for atom=    0.0132 (will be added to EATOM!!)
  PAW_PBE N 08Apr2002                   :
 energy of atom  2       EATOM= -264.5486
 kinetic energy error for atom=    0.0298 (will be added to EATOM!!)
  PAW_PBE Ge_d 03Jul2007                :
 energy of atom  3       EATOM=-2596.2402
 kinetic energy error for atom=    0.0090 (will be added to EATOM!!)
  PAW_PBE C 08Apr2002                   :
 energy of atom  4       EATOM= -147.1560
 kinetic energy error for atom=    0.0132 (will be added to EATOM!!)
  PAW_PBE O 08Apr2002                   :
 energy of atom  5       EATOM= -432.3788
 kinetic energy error for atom=    0.0458 (will be added to EATOM!!)


 POSCAR: POSCAR-c3n4                             
  positions in cartesian coordinates
  No initial velocities read in
 exchange correlation table for  LEXCH =        8
   RHO(1)=    0.500       N(1)  =     2000
   RHO(2)=  100.500       N(2)  =     4000



--------------------------------------------------------------------------------------------------------


 ion  position               nearest neighbor table
   1  0.106  0.214  0.436-  26 1.23  46 1.23  25 1.30
   2  0.288  0.399  0.443-  29 1.21  35 1.27  25 1.32
   3  0.104  0.392  0.437-  44 1.21  39 1.27  25 1.31
   4  0.447  0.064  0.516-  30 1.22  27 1.23  48 1.30
   5  0.453  0.401  0.422-  28 1.22  29 1.23  56 1.31
   6  0.112  0.053  0.459-  26 1.22  31 1.23  32 1.29   9 2.07
   7  0.096  0.712  0.494-  54 1.22  34 1.25  33 1.29  12 2.06
   8  0.284  0.890  0.511-  27 1.23  37 1.24  33 1.30
   9  0.109  0.895  0.508-  31 1.22  52 1.24  33 1.32   6 2.07
  10  0.448  0.548  0.512-  38 1.22  56 1.25  35 1.25  19 2.07
  11  0.445  0.885  0.499-  37 1.23  36 1.23  48 1.27
  12  0.087  0.542  0.491-  34 1.22  40 1.24  39 1.25   7 2.06
  13  0.616  0.223  0.483-  42 1.24  30 1.24  41 1.29
  14  0.780  0.390  0.410-  45 1.24  51 1.25  41 1.29  17 2.07  22 2.07
  15  0.610  0.394  0.445-  28 1.23  55 1.23  41 1.34
  16  0.940  0.052  0.471-  46 1.21  43 1.23  32 1.29  20 2.07
  17  0.941  0.387  0.404-  45 1.21  44 1.23  40 1.31  14 2.07
  18  0.623  0.066  0.522-  42 1.22  47 1.23  48 1.30
  19  0.613  0.711  0.541-  50 1.22  38 1.26  49 1.30  10 2.07
  20  0.790  0.897  0.533-  43 1.22  53 1.23  49 1.33  16 2.07
  21  0.609  0.892  0.531-  47 1.23  36 1.24  49 1.32
  22  0.938  0.563  0.430-  51 1.20  54 1.24  40 1.31  14 2.07
  23  0.954  0.902  0.545-  52 1.23  53 1.23  32 1.29
  24  0.621  0.555  0.500-  55 1.21  50 1.22  56 1.30
  25  0.167  0.335  0.435-   1 1.30   3 1.31   2 1.32
  26  0.165  0.161  0.431-   6 1.22   1 1.23
  27  0.336  0.002  0.532-   8 1.23   4 1.23
  28  0.512  0.352  0.402-   5 1.22  15 1.23
  29  0.345  0.361  0.400-   2 1.21   5 1.23
  30  0.506  0.177  0.503-   4 1.22  13 1.24
  31  0.159  0.988  0.457-   9 1.22   6 1.23
  32  0.002  0.002  0.493-  16 1.29  23 1.29   6 1.29
  33  0.165  0.831  0.510-   7 1.29   8 1.30   9 1.32
  34  0.134  0.645  0.528-  12 1.22   7 1.25
  35  0.334  0.491  0.501-  10 1.25   2 1.27  57 1.90
  36  0.503  0.831  0.500-  11 1.23  21 1.24
  37  0.333  0.829  0.489-  11 1.23   8 1.24
  38  0.499  0.648  0.555-  10 1.22  19 1.26
  39  0.142  0.484  0.495-  12 1.25   3 1.27  57 1.91
  40  0.988  0.496  0.446-  12 1.24  22 1.31  17 1.31
  41  0.667  0.330  0.439-  13 1.29  14 1.29  15 1.34
  42  0.680  0.178  0.505-  18 1.22  13 1.24
  43  0.827  0.986  0.478-  20 1.22  16 1.23
  44  0.011  0.348  0.389-   3 1.21  17 1.23
  45  0.830  0.330  0.389-  17 1.21  14 1.24
  46  0.993  0.161  0.445-  16 1.21   1 1.23
  47  0.669  0.005  0.549-  21 1.23  18 1.23
  48  0.505  0.004  0.508-  11 1.27  18 1.30   4 1.30
  49  0.668  0.832  0.544-  19 1.30  21 1.32  20 1.33
  50  0.675  0.666  0.522-  19 1.22  24 1.22
  51  0.832  0.507  0.406-  22 1.20  14 1.25
  52  0.016  0.853  0.559-  23 1.23   9 1.24
  53  0.849  0.860  0.576-  20 1.23  23 1.23
  54  0.004  0.677  0.444-   7 1.22  22 1.24
  55  0.668  0.491  0.494-  24 1.21  15 1.23
  56  0.506  0.502  0.477-  10 1.25  24 1.30   5 1.31
  57  0.287  0.593  0.568-  35 1.90  39 1.91
  58  0.287  0.593  0.966-  59 1.07
  59  0.232  0.530  0.023-  58 1.07


IMPORTANT INFORMATION: All symmetrisations will be switched off!
NOSYMM: (Re-)initialisation of all symmetry stuff for point group C_1.



 KPOINTS: K-Points                                

Automatic generation of k-mesh.
Space group operators:
 irot       det(A)        alpha          n_x          n_y          n_z        tau_x        tau_y        tau_z
    1     1.000000     0.000001     1.000000     0.000000     0.000000     0.000000     0.000000     0.000000
 
 Subroutine IBZKPT returns following result:
 ===========================================
 
 Found      5 irreducible k-points:
 
 Following reciprocal coordinates:
            Coordinates               Weight
  0.000000  0.000000  0.000000      1.000000
  0.333333  0.000000  0.000000      2.000000
  0.000000  0.333333  0.000000      2.000000
  0.333333  0.333333  0.000000      2.000000
 -0.333333  0.333333  0.000000      2.000000
 
 Following cartesian coordinates:
            Coordinates               Weight
  0.000000  0.000000  0.000000      1.000000
  0.024277  0.014368  0.000000      2.000000
  0.000396  0.028736  0.000000      2.000000
  0.024673  0.043104  0.000000      2.000000
 -0.023881  0.014368  0.000000      2.000000
 
 TETIRR: Found     24 inequivalent tetrahedra from       54


--------------------------------------------------------------------------------------------------------




 Dimension of arrays:
   k-points           NKPTS =      5   k-points in BZ     NKDIM =      5   number of bands    NBANDS=    172
   number of dos      NEDOS =   4000   number of ions     NIONS =     59
   non local maximal  LDIM  =      6   non local SUM 2l+1 LMDIM =     18
   total plane-waves  NPLWV = 322560
   max r-space proj   IRMAX =      1   max aug-charges    IRDMAX=   5982
   dimension x,y,z NGX =    70 NGY =   64 NGZ =   72
   dimension x,y,z NGXF=   140 NGYF=  128 NGZF=  144
   support grid    NGXF=   140 NGYF=  128 NGZF=  144
   ions per type =              24  32   1   1   1
   NGX,Y,Z   is equivalent  to a cutoff of   9.14,  8.51,  8.67 a.u.
   NGXF,Y,Z  is equivalent  to a cutoff of  18.27, 17.02, 17.35 a.u.

 SYSTEM =  unknown system                          
 POSCAR =  POSCAR-c3n4                             

 Startparameter for this run:
   NWRITE =      2    write-flag & timer
   PREC   = normal    normal or accurate (medium, high low for compatibility)
   ISTART =      0    job   : 0-new  1-cont  2-samecut
   ICHARG =      2    charge: 1-file 2-atom 10-const
   ISPIN  =      2    spin polarized calculation?
   LNONCOLLINEAR =      F non collinear calculations
   LSORBIT =      F    spin-orbit coupling
   INIWAV =      1    electr: 0-lowe 1-rand  2-diag
   LASPH  =      F    aspherical Exc in radial PAW
   METAGGA=      F    non-selfconsistent MetaGGA calc.

 Electronic Relaxation 1
   ENCUT  =  440.0 eV  32.34 Ry    5.69 a.u.  21.78 21.38 23.60*2*pi/ulx,y,z
   ENINI  =  440.0     initial cutoff
   ENAUG  =  644.9 eV  augmentation charge cutoff
   NELM   =    100;   NELMIN=  2; NELMDL= -5     # of ELM steps 
   EDIFF  = 0.1E-03   stopping-criterion for ELM
   LREAL  =      F    real-space projection
   NLSPLINE    = F    spline interpolate recip. space projectors
   LCOMPAT=      F    compatible to vasp.4.4
   GGA_COMPAT  = T    GGA compatible to vasp.4.4-vasp.4.6
   LMAXPAW     = -100 max onsite density
   LMAXMIX     =    2 max onsite mixed and CHGCAR
   VOSKOWN=      0    Vosko Wilk Nusair interpolation
   ROPT   =    0.00000   0.00000   0.00000   0.00000
   ROPT   =    0.00000
 Ionic relaxation
   EDIFFG = -.1E-01   stopping-criterion for IOM
   NSW    =      0    number of steps for IOM
   NBLOCK =      1;   KBLOCK =      1    inner block; outer block 
   IBRION =     -1    ionic relax: 0-MD 1-quasi-New 2-CG
   NFREE  =      0    steps in history (QN), initial steepest desc. (CG)
   ISIF   =      2    stress and relaxation
   IWAVPR =     10    prediction:  0-non 1-charg 2-wave 3-comb
   ISYM   =      0    0-nonsym 1-usesym 2-fastsym
   LCORR  =      T    Harris-Foulkes like correction to forces

   POTIM  = 0.5000    time-step for ionic-motion
   TEIN   =    0.0    initial temperature
   TEBEG  =    0.0;   TEEND  =   0.0 temperature during run
   SMASS  =  -3.00    Nose mass-parameter (am)
   estimated Nose-frequenzy (Omega)   =  0.10E-29 period in steps =****** mass=  -0.371E-26a.u.
   SCALEE = 1.0000    scale energy and forces
   NPACO  =    256;   APACO  = 16.0  distance and # of slots for P.C.
   PSTRESS=    0.0 pullay stress

  Mass of Ions in am
   POMASS =  12.01 14.00 72.61 12.01 16.00
  Ionic Valenz
   ZVAL   =   4.00  5.00 14.00  4.00  6.00
  Atomic Wigner-Seitz radii
   RWIGS  =  -1.00 -1.00 -1.00 -1.00 -1.00
  virtual crystal weights 
   VCA    =   1.00  1.00  1.00  1.00  1.00
   NELECT =     280.0000    total number of electrons
   NUPDOWN=      -1.0000    fix difference up-down

 DOS related values:
   EMIN   = -14.00;   EMAX   =  6.00  energy-range for DOS
   EFERMI =   0.00
   ISMEAR =    -5;   SIGMA  =   0.20  broadening in eV -4-tet -1-fermi 0-gaus

 Electronic relaxation 2 (details)
   IALGO  =     38    algorithm
   LDIAG  =      T    sub-space diagonalisation (order eigenvalues)
   LSUBROT=      F    optimize rotation matrix (better conditioning)
   TURBO    =      0    0=normal 1=particle mesh
   IRESTART =      0    0=no restart 2=restart with 2 vectors
   NREBOOT  =      0    no. of reboots
   NMIN     =      0    reboot dimension
   EREF     =   0.00    reference energy to select bands
   IMIX   =      4    mixing-type and parameters
     AMIX     =   0.25;   BMIX     =  0.00
     AMIX_MAG =   1.00;   BMIX_MAG =  0.00
     AMIN     =   0.10
     WC   =   100.;   INIMIX=   1;  MIXPRE=   1;  MAXMIX= -45

 Intra band minimization:
   WEIMIN = 0.0000     energy-eigenvalue tresh-hold
   EBREAK =  0.15E-06  absolut break condition
   DEPER  =   0.30     relativ break condition  

   TIME   =   0.40     timestep for ELM

  volume/ion in A,a.u.               =      31.79       214.53
  Fermi-wavevector in a.u.,A,eV,Ry     =   0.868449  1.641131 10.261564  0.754204
  Thomas-Fermi vector in A             =   1.987129

 Write flags
   LWAVE        =      F    write WAVECAR
   LDOWNSAMPLE  =      F    k-point downsampling of WAVECAR
   LCHARG       =      F    write CHGCAR
   LVTOT        =      F    write LOCPOT, total local potential
   LVHAR        =      F    write LOCPOT, Hartree potential only
   LELF         =      F    write electronic localiz. function (ELF)
   LORBIT       =     11    0 simple, 1 ext, 2 COOP (PROOUT), +10 PAW based schemes


 Dipole corrections
   LMONO  =      F    monopole corrections only (constant potential shift)
   LDIPOL =      F    correct potential (dipole corrections)
   IDIPOL =      0    1-x, 2-y, 3-z, 4-all directions 
   EPSILON=  1.0000000 bulk dielectric constant

 Exchange correlation treatment:
   GGA     =    --    GGA type
   LEXCH   =     8    internal setting for exchange type
   VOSKOWN=      0    Vosko Wilk Nusair interpolation
   LHFCALC =     F    Hartree Fock is set to
   LHFONE  =     F    Hartree Fock one center treatment
   AEXX    =    0.0000 exact exchange contribution

 Linear response parameters
   LEPSILON=     F    determine dielectric tensor
   LRPA    =     F    only Hartree local field effects (RPA)
   LNABLA  =     F    use nabla operator in PAW spheres
   LVEL    =     F    velocity operator in full k-point grid
   LINTERFAST=   F  fast interpolation
   KINTER  =     0    interpolate to denser k-point grid
   CSHIFT  =0.1000    complex shift for real part using Kramers Kronig
   OMEGAMAX=  -1.0    maximum frequency
   DEG_THRESHOLD= 0.2000000E-02 threshold for treating states as degnerate
   RTIME   =   -0.100 relaxation time in fs
  (WPLASMAI=    0.000 imaginary part of plasma frequency in eV, 0.658/RTIME)
   DFIELD  = 0.0000000 0.0000000 0.0000000 field for delta impulse in time

 Orbital magnetization related:
   ORBITALMAG=     F  switch on orbital magnetization
   LCHIMAG   =     F  perturbation theory with respect to B field
   DQ        =  0.001000  dq finite difference perturbation B field
   LLRAUG    =     F  two centre corrections for induced B field



--------------------------------------------------------------------------------------------------------


 Static calculation
 charge density and potential will be updated during run
 spin polarized calculation
 Variant of blocked Davidson
 Davidson routine will perform the subspace rotation
 perform sub-space diagonalisation
    after iterative eigenvector-optimisation
 modified Broyden-mixing scheme, WC =      100.0
 initial mixing is a Kerker type mixing with AMIX =  0.2500 and BMIX =      0.0001
 Hartree-type preconditioning will be used
 using additional bands           32
 reciprocal scheme for non local part
 use partial core corrections
 calculate Harris-corrections to forces   (improved forces if not selfconsistent)
 use gradient corrections 
 use of overlap-Matrix (Vanderbilt PP)
 Fermi weights with tetrahedron method with Bloechl corrections


--------------------------------------------------------------------------------------------------------


  energy-cutoff  :      440.00
  volume of cell :     1875.64
      direct lattice vectors                 reciprocal lattice vectors
    12.735950296 -0.175481236  0.000000000     0.079163445  0.046852298 -0.000000000
    -6.367975148 10.759575714  0.000000000     0.001291101  0.093704596 -0.000000000
     0.000000000  0.000000000 13.800000000    -0.000000000 -0.000000000  0.072463768

  length of vectors
    12.737159165 12.502782772 13.800000000     0.091989069  0.093713491  0.072463768



 k-points in units of 2pi/SCALE and weight: K-Points                                
   0.00000000  0.00000000  0.00000000       0.111
   0.02427679  0.01436804  0.00000000       0.222
   0.00039594  0.02873608  0.00000000       0.222
   0.02467273  0.04310411  0.00000000       0.222
  -0.02388085  0.01436804  0.00000000       0.222

 k-points in reciprocal lattice and weights: K-Points                                
   0.00000000  0.00000000  0.00000000       0.111
   0.33333333  0.00000000  0.00000000       0.222
   0.00000000  0.33333333  0.00000000       0.222
   0.33333333  0.33333333  0.00000000       0.222
  -0.33333333  0.33333333  0.00000000       0.222

 position of ions in fractional coordinates (direct lattice) 
   0.10567936  0.21351909  0.43638452
   0.28750403  0.39866334  0.44307848
   0.10379301  0.39177313  0.43720774
   0.44732828  0.06383887  0.51561413
   0.45258916  0.40124889  0.42244582
   0.11203481  0.05273921  0.45860169
   0.09638015  0.71191070  0.49382164
   0.28433946  0.89006364  0.51112159
   0.10941441  0.89537413  0.50804572
   0.44792521  0.54827090  0.51182417
   0.44544784  0.88520183  0.49889037
   0.08690842  0.54210436  0.49059155
   0.61614813  0.22292684  0.48262487
   0.78023735  0.38968276  0.40980308
   0.61037743  0.39432339  0.44538198
   0.93951642  0.05229783  0.47062057
   0.94071854  0.38652888  0.40380040
   0.62278394  0.06558106  0.52195204
   0.61322902  0.71118454  0.54116914
   0.78984871  0.89727295  0.53280047
   0.60944297  0.89248269  0.53124739
   0.93832005  0.56283419  0.43042990
   0.95436023  0.90171878  0.54458488
   0.62130548  0.55465507  0.49978063
   0.16668926  0.33545237  0.43494871
   0.16473950  0.16097029  0.43087242
   0.33626584  0.00180669  0.53207802
   0.51175722  0.35246859  0.40230650
   0.34471728  0.36074551  0.39967324
   0.50565751  0.17673507  0.50307206
   0.15873210  0.98821904  0.45657691
   0.00214731  0.00186372  0.49276218
   0.16462634  0.83083069  0.51017993
   0.13400723  0.64526801  0.52770834
   0.33371346  0.49116238  0.50147098
   0.50288345  0.83078126  0.49964378
   0.33307237  0.82932770  0.48929409
   0.49902190  0.64803204  0.55475412
   0.14173676  0.48364631  0.49503647
   0.98839512  0.49595573  0.44590834
   0.66736443  0.33015381  0.43923807
   0.67970142  0.17802103  0.50515807
   0.82720183  0.98622484  0.47776955
   0.01097216  0.34809993  0.38872280
   0.83047981  0.33016544  0.38944898
   0.99296173  0.16101876  0.44505124
   0.66886761  0.00524437  0.54940128
   0.50484899  0.00388347  0.50822952
   0.66830364  0.83227641  0.54411956
   0.67536455  0.66551462  0.52238502
   0.83211404  0.50666912  0.40566699
   0.01584380  0.85299492  0.55859758
   0.84924332  0.85956436  0.57597004
   0.00424175  0.67726383  0.44447513
   0.66753141  0.49127771  0.49374111
   0.50565566  0.50179634  0.47708161
   0.28676550  0.59288202  0.56771515
   0.28676550  0.59288202  0.96638181
   0.23209909  0.52992702  0.02273763

 position of ions in cartesian coordinates  (Angst):
  -0.01375713  2.27883002  6.02210632
   1.12295876  4.23899681  6.11448299
  -1.17289900  4.19709894  6.03346675
   5.29062642  0.60838140  7.11547500
   3.20901001  4.23784694  5.82975238
   1.09102780  0.54779155  6.32870326
  -3.30593687  7.64294419  6.81473858
  -2.04656994  9.52681087  7.05347790
  -4.30822379  9.61464558  7.01103097
   2.21337779  5.82055980  7.06317358
   0.03625833  9.44622839  6.88468710
  -2.34524585  5.81756216  6.77016341
   6.42763938  2.29047579  6.66022323
   7.45557393  4.05590418  5.65528255
   5.26269500  4.13564262  6.14627128
  11.63260320  0.39783493  6.49456382
   9.51953830  3.99380833  5.57244547
   7.51412674  0.59633743  7.20293817
   3.28124889  7.54443375  7.46813416
   4.34566204  9.51567265  7.35264648
   2.07852776  9.49578923  7.33121394
   8.36628337  5.89119956  5.93993269
   6.41256161  9.53463920  7.51527132
   4.38088604  5.85882580  6.89697271
  -0.01320622  3.58007436  6.00229223
   1.07305933  1.70306329  5.94603944
   4.27116002 -0.03956915  7.34267669
   4.27320335  3.70260866  5.55182969
   2.09308367  3.82097723  5.51549068
   5.31458433  1.81286101  6.94239446
  -4.27135022 10.60496309  6.30076132
   0.01547993  0.01967602  6.80011805
  -3.19403622  8.91049685  7.04048300
  -2.40234123  6.91929423  7.28237511
   1.12244827  5.22613833  6.92029958
   1.11430424  8.85060721  6.89508415
  -1.03914505  8.86476622  6.75225840
   2.22886620  6.88498083  7.65560681
  -1.27469536  5.17895690  6.83150324
   9.42991738  5.16282846  6.15353511
   6.39710896  3.43520501  6.06148531
   7.52301005  1.79615589  6.97118142
   4.25494617 10.46620242  6.59321982
  -2.07695082  3.74348209  5.36437470
   8.47446424  3.40670642  5.37439586
  11.62094773  1.55824738  6.14170711
   8.48526870 -0.06094656  7.58173767
   6.40500183 -0.04680704  7.01356743
   3.21156651  8.83766628  7.50884990
   4.36342874  7.04214115  7.20891331
   7.37130664  5.30552438  5.59820452
  -5.23006465  9.17508316  7.70864656
   5.34223622  9.09952159  7.94838660
  -4.25877657  7.28632714  6.13375686
   5.37320255  5.16880049  6.81362734
   3.24457870  5.31038268  6.58372624
  -0.12322684  6.32883707  7.83446904
  -0.12322684  6.32883707 13.33606904
  -0.41855967  5.66106087  0.31377924



--------------------------------------------------------------------------------------------------------


 k-point  1 :   0.0000 0.0000 0.0000  plane waves:   39327
 k-point  2 :   0.3333 0.0000 0.0000  plane waves:   39311
 k-point  3 :   0.0000 0.3333 0.0000  plane waves:   39306
 k-point  4 :   0.3333 0.3333 0.0000  plane waves:   39345
 k-point  5 :  -0.3333 0.3333 0.0000  plane waves:   39327

 maximum and minimum number of plane-waves per node :      3303     3255

 maximum number of plane-waves:     39345
 maximum index in each direction: 
   IXMAX=   22   IYMAX=   21   IZMAX=   23
   IXMIN=  -22   IYMIN=  -21   IZMIN=  -23


 parallel 3D FFT for wavefunctions:
    minimum data exchange during FFTs selected (reduces bandwidth)
 parallel 3D FFT for charge:
    minimum data exchange during FFTs selected (reduces bandwidth)


 total amount of memory used by VASP MPI-rank0    78678. kBytes
=======================================================================

   base      :      30000. kBytes
   nonl-proj :      14867. kBytes
   fftplans  :       2745. kBytes
   grid      :       8042. kBytes
   one-center:        155. kBytes
   wavefun   :      22869. kBytes

     INWAV:  cpu time    0.0000: real time    0.0000
 Broyden mixing: mesh for mixing (old mesh)
   NGX = 43   NGY = 43   NGZ = 47
  (NGX  =140   NGY  =128   NGZ  =144)
  gives a total of  86903 points

 initial charge density was supplied:
 charge density of overlapping atoms calculated
 number of electron     280.0000000 magnetization       2.0000000
 keeping initial charge density in first step


--------------------------------------------------------------------------------------------------------


 Maximum index for augmentation-charges          204 (set IRDMAX)


--------------------------------------------------------------------------------------------------------


 First call to EWALD:  gamma=   0.144
 Maximum number of real-space cells 3x 3x 3
 Maximum number of reciprocal cells 3x 3x 3

    FEWALD:  cpu time    0.0020: real time    0.0020


--------------------------------------- Iteration      1(   1)  ---------------------------------------


    POTLOK:  cpu time    0.0779: real time    0.0958
    SETDIJ:  cpu time    0.0087: real time    0.0088
     EDDAV:  cpu time    8.0090: real time    8.0575
 BZINTS: Fermi energy: 10.753088;280.000000 electrons
         Band energy:***********;  BLOECHL correction: -0.019165
       DOS:  cpu time    0.2451: real time    0.2451
    --------------------------------------------
      LOOP:  cpu time    8.3407: real time    8.4072

 eigenvalue-minimisations  :  4040
 total energy-change (2. order) : 0.2822231E+04  (-0.1142972E+05)
 number of electron     280.0000000 magnetization       2.0000000
 augmentation part      280.0000000 magnetization       2.0000000

 Free energy of the ion-electron system (eV)
  ---------------------------------------------------
  alpha Z        PSCENC =       198.66291157
  Ewald energy   TEWEN  =     27984.82777086
  -Hartree energ DENC   =    -39559.80708026
  -exchange      EXHF   =         0.00000000
  -V(xc)+E(xc)   XCENC  =      1102.39778219
  PAW double counting   =     11453.83848114   -11942.90478952
  entropy T*S    EENTRO =         0.00000000
  eigenvalues    EBANDS =     -1586.52053381
  atomic energy  EATOM  =     15171.73615219
  Solvation  Ediel_sol  =         0.00000000
  ---------------------------------------------------
  free energy    TOTEN  =      2822.23069436 eV

  energy without entropy =     2822.23069436  energy(sigma->0) =     2822.23069436


--------------------------------------------------------------------------------------------------------




--------------------------------------- Iteration      1(   2)  ---------------------------------------


     EDDAV:  cpu time    9.0454: real time    9.0731
 BZINTS: Fermi energy:  0.174169;280.000000 electrons
         Band energy:***********;  BLOECHL correction:  0.000000
       DOS:  cpu time    0.0128: real time    0.0128
    --------------------------------------------
      LOOP:  cpu time    9.0582: real time    9.0859

 eigenvalue-minimisations  :  4624
 total energy-change (2. order) :-0.2858740E+04  (-0.2763692E+04)
 number of electron     280.0000000 magnetization       2.0000000
 augmentation part      280.0000000 magnetization       2.0000000

 Free energy of the ion-electron system (eV)
  ---------------------------------------------------
  alpha Z        PSCENC =       198.66291157
  Ewald energy   TEWEN  =     27984.82777086
  -Hartree energ DENC   =    -39559.80708026
  -exchange      EXHF   =         0.00000000
  -V(xc)+E(xc)   XCENC  =      1102.39778219
  PAW double counting   =     11453.83848114   -11942.90478952
  entropy T*S    EENTRO =         0.00000000
  eigenvalues    EBANDS =     -4445.26010660
  atomic energy  EATOM  =     15171.73615219
  Solvation  Ediel_sol  =         0.00000000
  ---------------------------------------------------
  free energy    TOTEN  =       -36.50887843 eV

  energy without entropy =      -36.50887843  energy(sigma->0) =      -36.50887843


--------------------------------------------------------------------------------------------------------




--------------------------------------- Iteration      1(   3)  ---------------------------------------


     EDDAV:  cpu time    8.1115: real time    8.1338
 BZINTS: Fermi energy: -3.459834;280.000000 electrons
         Band energy:***********;  BLOECHL correction: -0.004943
       DOS:  cpu time    0.0214: real time    0.0216
    --------------------------------------------
      LOOP:  cpu time    8.1329: real time    8.1554

 eigenvalue-minimisations  :  4044
 total energy-change (2. order) :-0.4659175E+03  (-0.4624639E+03)
 number of electron     280.0000000 magnetization       2.0000000
 augmentation part      280.0000000 magnetization       2.0000000

 Free energy of the ion-electron system (eV)
  ---------------------------------------------------
  alpha Z        PSCENC =       198.66291157
  Ewald energy   TEWEN  =     27984.82777086
  -Hartree energ DENC   =    -39559.80708026
  -exchange      EXHF   =         0.00000000
  -V(xc)+E(xc)   XCENC  =      1102.39778219
  PAW double counting   =     11453.83848114   -11942.90478952
  entropy T*S    EENTRO =         0.00000000
  eigenvalues    EBANDS =     -4911.17764969
  atomic energy  EATOM  =     15171.73615219
  Solvation  Ediel_sol  =         0.00000000
  ---------------------------------------------------
  free energy    TOTEN  =      -502.42642152 eV

  energy without entropy =     -502.42642152  energy(sigma->0) =     -502.42642152


--------------------------------------------------------------------------------------------------------




--------------------------------------- Iteration      1(   4)  ---------------------------------------


     EDDAV:  cpu time    7.9198: real time    7.9796
 BZINTS: Fermi energy: -3.841210;280.000000 electrons
         Band energy:***********;  BLOECHL correction:  0.000000
       DOS:  cpu time    0.0131: real time    0.0131
    --------------------------------------------
      LOOP:  cpu time    7.9329: real time    7.9927

 eigenvalue-minimisations  :  4184
 total energy-change (2. order) :-0.1671963E+02  (-0.1634056E+02)
 number of electron     280.0000000 magnetization       2.0000000
 augmentation part      280.0000000 magnetization       2.0000000

 Free energy of the ion-electron system (eV)
  ---------------------------------------------------
  alpha Z        PSCENC =       198.66291157
  Ewald energy   TEWEN  =     27984.82777086
  -Hartree energ DENC   =    -39559.80708026
  -exchange      EXHF   =         0.00000000
  -V(xc)+E(xc)   XCENC  =      1102.39778219
  PAW double counting   =     11453.83848114   -11942.90478952
  entropy T*S    EENTRO =         0.00000000
  eigenvalues    EBANDS =     -4927.89727551
  atomic energy  EATOM  =     15171.73615219
  Solvation  Ediel_sol  =         0.00000000
  ---------------------------------------------------
  free energy    TOTEN  =      -519.14604734 eV

  energy without entropy =     -519.14604734  energy(sigma->0) =     -519.14604734


--------------------------------------------------------------------------------------------------------




--------------------------------------- Iteration      1(   5)  ---------------------------------------


     EDDAV:  cpu time    8.3295: real time    8.3982
 BZINTS: Fermi energy: -3.871218;280.000000 electrons
         Band energy:***********;  BLOECHL correction:  0.000000
       DOS:  cpu time    0.0132: real time    0.0132
    CHARGE:  cpu time    0.1427: real time    0.1443
    MIXING:  cpu time    0.0021: real time    0.0023
    --------------------------------------------
      LOOP:  cpu time    8.4875: real time    8.5580

 eigenvalue-minimisations  :  4528
 total energy-change (2. order) :-0.6552828E+00  (-0.6482540E+00)
 number of electron     279.9999981 magnetization       0.0000001
 augmentation part       22.3016824 magnetization       0.0265784

 Broyden mixing:
  rms(total) = 0.51718E+01    rms(broyden)= 0.51691E+01
  rms(prec ) = 0.57440E+01
  weight for this iteration     100.00

 Free energy of the ion-electron system (eV)
  ---------------------------------------------------
  alpha Z        PSCENC =       198.66291157
  Ewald energy   TEWEN  =     27984.82777086
  -Hartree energ DENC   =    -39559.80708026
  -exchange      EXHF   =         0.00000000
  -V(xc)+E(xc)   XCENC  =      1102.39778219
  PAW double counting   =     11453.83848114   -11942.90478952
  entropy T*S    EENTRO =         0.00000000
  eigenvalues    EBANDS =     -4928.55255827
  atomic energy  EATOM  =     15171.73615219
  Solvation  Ediel_sol  =         0.00000000
  ---------------------------------------------------
  free energy    TOTEN  =      -519.80133010 eV

  energy without entropy =     -519.80133010  energy(sigma->0) =     -519.80133010


--------------------------------------------------------------------------------------------------------




--------------------------------------- Iteration      1(   6)  ---------------------------------------


    POTLOK:  cpu time    0.0810: real time    0.0821
    SETDIJ:  cpu time    0.0083: real time    0.0083
     EDDAV:  cpu time    8.2482: real time    8.3185
 BZINTS: Fermi energy: -2.859715;280.000000 electrons
         Band energy:***********;  BLOECHL correction:  0.000000
       DOS:  cpu time    0.0130: real time    0.0137
    CHARGE:  cpu time    0.1400: real time    0.1400
    MIXING:  cpu time    0.0018: real time    0.0048
    --------------------------------------------
      LOOP:  cpu time    8.4923: real time    8.5675

 eigenvalue-minimisations  :  4400
 total energy-change (2. order) : 0.4109029E+02  (-0.5517495E+01)
 number of electron     279.9999980 magnetization      -0.0000001
 augmentation part       21.2171687 magnetization       0.0103730

 Broyden mixing:
  rms(total) = 0.34002E+01    rms(broyden)= 0.33999E+01
  rms(prec ) = 0.36767E+01
  weight for this iteration     100.00

 eigenvalues of (default mixing * dielectric matrix)
  average eigenvalue GAMMA=   1.7072
  1.7072

 Free energy of the ion-electron system (eV)
  ---------------------------------------------------
  alpha Z        PSCENC =       198.66291157
  Ewald energy   TEWEN  =     27984.82777086
  -Hartree energ DENC   =    -40022.40926668
  -exchange      EXHF   =         0.00000000
  -V(xc)+E(xc)   XCENC  =      1121.38142524
  PAW double counting   =     16455.20836143   -16948.84416376
  entropy T*S    EENTRO =         0.00000000
  eigenvalues    EBANDS =     -4439.27422771
  atomic energy  EATOM  =     15171.73615219
  Solvation  Ediel_sol  =         0.00000000
  ---------------------------------------------------
  free energy    TOTEN  =      -478.71103687 eV

  energy without entropy =     -478.71103687  energy(sigma->0) =     -478.71103687


--------------------------------------------------------------------------------------------------------




--------------------------------------- Iteration      1(   7)  ---------------------------------------


    POTLOK:  cpu time    0.0739: real time    0.0802
    SETDIJ:  cpu time    0.0072: real time    0.0082
     EDDAV:  cpu time    7.7552: real time    7.8050
 BZINTS: Fermi energy: -1.725681;280.000000 electrons
         Band energy:***********;  BLOECHL correction:  0.000000
       DOS:  cpu time    0.0128: real time    0.0128
    CHARGE:  cpu time    0.1451: real time    0.1461
    MIXING:  cpu time    0.0014: real time    0.0022
    --------------------------------------------
      LOOP:  cpu time    7.9957: real time    8.0545

 eigenvalue-minimisations  :  4176
 total energy-change (2. order) : 0.1412080E+02  (-0.7579502E+01)
 number of electron     279.9999981 magnetization      -0.0000000
 augmentation part       20.4045656 magnetization       0.0006836

 Broyden mixing:
  rms(total) = 0.19362E+01    rms(broyden)= 0.19357E+01
  rms(prec ) = 0.20668E+01
  weight for this iteration     100.00

 eigenvalues of (default mixing * dielectric matrix)
  average eigenvalue GAMMA=   1.7257
  0.9909  2.4604

 Free energy of the ion-electron system (eV)
  ---------------------------------------------------
  alpha Z        PSCENC =       198.66291157
  Ewald energy   TEWEN  =     27984.82777086
  -Hartree energ DENC   =    -40551.29569992
  -exchange      EXHF   =         0.00000000
  -V(xc)+E(xc)   XCENC  =      1142.02860499
  PAW double counting   =     25747.92169022   -26249.08755030
  entropy T*S    EENTRO =         0.00000000
  eigenvalues    EBANDS =     -3909.38411945
  atomic energy  EATOM  =     15171.73615219
  Solvation  Ediel_sol  =         0.00000000
  ---------------------------------------------------
  free energy    TOTEN  =      -464.59023985 eV

  energy without entropy =     -464.59023985  energy(sigma->0) =     -464.59023985


--------------------------------------------------------------------------------------------------------




--------------------------------------- Iteration      1(   8)  ---------------------------------------


    POTLOK:  cpu time    0.0719: real time    0.0808
    SETDIJ:  cpu time    0.0082: real time    0.0082
     EDDAV:  cpu time    7.7928: real time    7.8507
 BZINTS: Fermi energy: -1.120530;280.000000 electrons
         Band energy:***********;  BLOECHL correction:  0.000000
       DOS:  cpu time    0.0123: real time    0.0123
    CHARGE:  cpu time    0.1392: real time    0.1403
    MIXING:  cpu time    0.0014: real time    0.0014
    --------------------------------------------
      LOOP:  cpu time    8.0257: real time    8.0936

 eigenvalue-minimisations  :  4136
 total energy-change (2. order) : 0.2017919E+01  (-0.1665696E+01)
 number of electron     279.9999979 magnetization       0.0000000
 augmentation part       20.1810482 magnetization       0.0002812

 Broyden mixing:
  rms(total) = 0.13735E+01    rms(broyden)= 0.13733E+01
  rms(prec ) = 0.14314E+01
  weight for this iteration     100.00

 eigenvalues of (default mixing * dielectric matrix)
  average eigenvalue GAMMA=   1.7947
  3.2482  1.3695  0.7666

 Free energy of the ion-electron system (eV)
  ---------------------------------------------------
  alpha Z        PSCENC =       198.66291157
  Ewald energy   TEWEN  =     27984.82777086
  -Hartree energ DENC   =    -40672.39047283
  -exchange      EXHF   =         0.00000000
  -V(xc)+E(xc)   XCENC  =      1147.04297647
  PAW double counting   =     30822.77547746   -31327.23015464
  entropy T*S    EENTRO =         0.00000000
  eigenvalues    EBANDS =     -3787.99698221
  atomic energy  EATOM  =     15171.73615219
  Solvation  Ediel_sol  =         0.00000000
  ---------------------------------------------------
  free energy    TOTEN  =      -462.57232113 eV

  energy without entropy =     -462.57232113  energy(sigma->0) =     -462.57232113


--------------------------------------------------------------------------------------------------------




--------------------------------------- Iteration      1(   9)  ---------------------------------------


    POTLOK:  cpu time    0.0761: real time    0.0796
    SETDIJ:  cpu time    0.0083: real time    0.0083
     EDDAV:  cpu time    9.6258: real time    9.7063
 BZINTS: Fermi energy: -1.035509;280.000000 electrons
         Band energy:***********;  BLOECHL correction:  0.000000
       DOS:  cpu time    0.0122: real time    0.0122
    CHARGE:  cpu time    0.1700: real time    0.1707
    MIXING:  cpu time    0.0015: real time    0.0015
    --------------------------------------------
      LOOP:  cpu time    9.8939: real time    9.9786

 eigenvalue-minimisations  :  5376
 total energy-change (2. order) :-0.2143501E+00  (-0.1338297E+01)
 number of electron     279.9999978 magnetization       0.0000000
 augmentation part       20.2742636 magnetization       0.0003653

 Broyden mixing:
  rms(total) = 0.69350E+00    rms(broyden)= 0.69318E+00
  rms(prec ) = 0.86223E+00
  weight for this iteration     100.00

 eigenvalues of (default mixing * dielectric matrix)
  average eigenvalue GAMMA=   1.7344
  3.7339  1.5749  0.8143  0.8143

 Free energy of the ion-electron system (eV)
  ---------------------------------------------------
  alpha Z        PSCENC =       198.66291157
  Ewald energy   TEWEN  =     27984.82777086
  -Hartree energ DENC   =    -40704.94968144
  -exchange      EXHF   =         0.00000000
  -V(xc)+E(xc)   XCENC  =      1148.57966021
  PAW double counting   =     37177.70883372   -37687.26389047
  entropy T*S    EENTRO =         0.00000000
  eigenvalues    EBANDS =     -3752.08842790
  atomic energy  EATOM  =     15171.73615219
  Solvation  Ediel_sol  =         0.00000000
  ---------------------------------------------------
  free energy    TOTEN  =      -462.78667126 eV

  energy without entropy =     -462.78667126  energy(sigma->0) =     -462.78667126


--------------------------------------------------------------------------------------------------------




--------------------------------------- Iteration      1(  10)  ---------------------------------------


    POTLOK:  cpu time    0.0692: real time    0.0782
    SETDIJ:  cpu time    0.0082: real time    0.0082
     EDDAV:  cpu time    9.3615: real time    9.4473
 BZINTS: Fermi energy: -0.775444;280.000000 electrons
         Band energy:***********;  BLOECHL correction:  0.000000
       DOS:  cpu time    0.0122: real time    0.0122
    CHARGE:  cpu time    0.1691: real time    0.1691
    MIXING:  cpu time    0.0015: real time    0.0015
    --------------------------------------------
      LOOP:  cpu time    9.6218: real time    9.7165

 eigenvalue-minimisations  :  5104
 total energy-change (2. order) : 0.6556192E+00  (-0.7459474E+00)
 number of electron     279.9999979 magnetization      -0.0000000
 augmentation part       20.2596183 magnetization       0.0000535

 Broyden mixing:
  rms(total) = 0.34806E+00    rms(broyden)= 0.34755E+00
  rms(prec ) = 0.40164E+00
  weight for this iteration     100.00

 eigenvalues of (default mixing * dielectric matrix)
  average eigenvalue GAMMA=   1.6247
  3.9673  1.8248  1.0538  0.6389  0.6389

 Free energy of the ion-electron system (eV)
  ---------------------------------------------------
  alpha Z        PSCENC =       198.66291157
  Ewald energy   TEWEN  =     27984.82777086
  -Hartree energ DENC   =    -40705.00070648
  -exchange      EXHF   =         0.00000000
  -V(xc)+E(xc)   XCENC  =      1149.07999774
  PAW double counting   =     39650.96418653   -40160.27592230
  entropy T*S    EENTRO =         0.00000000
  eigenvalues    EBANDS =     -3752.12544213
  atomic energy  EATOM  =     15171.73615219
  Solvation  Ediel_sol  =         0.00000000
  ---------------------------------------------------
  free energy    TOTEN  =      -462.13105201 eV

  energy without entropy =     -462.13105201  energy(sigma->0) =     -462.13105201


--------------------------------------------------------------------------------------------------------




--------------------------------------- Iteration      1(  11)  ---------------------------------------


    POTLOK:  cpu time    0.0699: real time    0.0758
    SETDIJ:  cpu time    0.0082: real time    0.0082
     EDDAV:  cpu time    8.8063: real time    8.8784
 BZINTS: Fermi energy: -0.890473;280.000000 electrons
         Band energy:***********;  BLOECHL correction:  0.000000
       DOS:  cpu time    0.0128: real time    0.0128
    CHARGE:  cpu time    0.1532: real time    0.1542
    MIXING:  cpu time    0.0018: real time    0.0018
    --------------------------------------------
      LOOP:  cpu time    9.0522: real time    9.1313

 eigenvalue-minimisations  :  4808
 total energy-change (2. order) : 0.9634562E-01  (-0.1536063E+00)
 number of electron     279.9999978 magnetization      -0.0000000
 augmentation part       20.2589615 magnetization       0.0000443

 Broyden mixing:
  rms(total) = 0.17902E+00    rms(broyden)= 0.17890E+00
  rms(prec ) = 0.21269E+00
  weight for this iteration     100.00

 eigenvalues of (default mixing * dielectric matrix)
  average eigenvalue GAMMA=   1.5534
  3.9311  1.9119  1.2841  0.9613  0.6159  0.6159

 Free energy of the ion-electron system (eV)
  ---------------------------------------------------
  alpha Z        PSCENC =       198.66291157
  Ewald energy   TEWEN  =     27984.82777086
  -Hartree energ DENC   =    -40676.92168034
  -exchange      EXHF   =         0.00000000
  -V(xc)+E(xc)   XCENC  =      1148.35914577
  PAW double counting   =     40930.77841245   -41439.48942441
  entropy T*S    EENTRO =         0.00000000
  eigenvalues    EBANDS =     -3779.98799448
  atomic energy  EATOM  =     15171.73615219
  Solvation  Ediel_sol  =         0.00000000
  ---------------------------------------------------
  free energy    TOTEN  =      -462.03470639 eV

  energy without entropy =     -462.03470639  energy(sigma->0) =     -462.03470639


--------------------------------------------------------------------------------------------------------




--------------------------------------- Iteration      1(  12)  ---------------------------------------


    POTLOK:  cpu time    0.0805: real time    0.0885
    SETDIJ:  cpu time    0.0085: real time    0.0085
     EDDAV:  cpu time    8.3519: real time    8.4139
 BZINTS: Fermi energy: -0.950488;280.000000 electrons
         Band energy:***********;  BLOECHL correction:  0.000000
       DOS:  cpu time    0.0122: real time    0.0122
    CHARGE:  cpu time    0.1426: real time    0.1438
    MIXING:  cpu time    0.0017: real time    0.0017
    --------------------------------------------
      LOOP:  cpu time    8.5975: real time    8.6687

 eigenvalue-minimisations  :  4400
 total energy-change (2. order) : 0.3990157E-01  (-0.6012615E-01)
 number of electron     279.9999979 magnetization      -0.0000000
 augmentation part       20.2602307 magnetization       0.0000604

 Broyden mixing:
  rms(total) = 0.11636E+00    rms(broyden)= 0.11625E+00
  rms(prec ) = 0.14611E+00
  weight for this iteration     100.00

 eigenvalues of (default mixing * dielectric matrix)
  average eigenvalue GAMMA=   1.5500
  3.8956  2.3394  1.5412  0.9387  0.9387  0.5983  0.5983

 Free energy of the ion-electron system (eV)
  ---------------------------------------------------
  alpha Z        PSCENC =       198.66291157
  Ewald energy   TEWEN  =     27984.82777086
  -Hartree energ DENC   =    -40657.36801054
  -exchange      EXHF   =         0.00000000
  -V(xc)+E(xc)   XCENC  =      1147.74684064
  PAW double counting   =     41141.71474639   -41649.84583637
  entropy T*S    EENTRO =         0.00000000
  eigenvalues    EBANDS =     -3799.46937955
  atomic energy  EATOM  =     15171.73615219
  Solvation  Ediel_sol  =         0.00000000
  ---------------------------------------------------
  free energy    TOTEN  =      -461.99480482 eV

  energy without entropy =     -461.99480482  energy(sigma->0) =     -461.99480482


--------------------------------------------------------------------------------------------------------




--------------------------------------- Iteration      1(  13)  ---------------------------------------


    POTLOK:  cpu time    0.0742: real time    0.0808
    SETDIJ:  cpu time    0.0082: real time    0.0082
     EDDAV:  cpu time    7.8415: real time    7.8897
 BZINTS: Fermi energy: -0.990498;280.000000 electrons
         Band energy:***********;  BLOECHL correction:  0.000000
       DOS:  cpu time    0.0123: real time    0.0123
    CHARGE:  cpu time    0.1385: real time    0.1385
    MIXING:  cpu time    0.0018: real time    0.0018
    --------------------------------------------
      LOOP:  cpu time    8.0763: real time    8.1312

 eigenvalue-minimisations  :  4152
 total energy-change (2. order) : 0.2282922E-01  (-0.2640820E-01)
 number of electron     279.9999979 magnetization       0.0000000
 augmentation part       20.2690517 magnetization       0.0000196

 Broyden mixing:
  rms(total) = 0.48574E-01    rms(broyden)= 0.48462E-01
  rms(prec ) = 0.56997E-01
  weight for this iteration     100.00

 eigenvalues of (default mixing * dielectric matrix)
  average eigenvalue GAMMA=   1.5233
  3.8934  2.5510  1.6695  1.0101  0.9306  0.9306  0.6004  0.6004

 Free energy of the ion-electron system (eV)
  ---------------------------------------------------
  alpha Z        PSCENC =       198.66291157
  Ewald energy   TEWEN  =     27984.82777086
  -Hartree energ DENC   =    -40643.64253155
  -exchange      EXHF   =         0.00000000
  -V(xc)+E(xc)   XCENC  =      1147.28319065
  PAW double counting   =     41303.64017205   -41811.63041472
  entropy T*S    EENTRO =         0.00000000
  eigenvalues    EBANDS =     -3812.84922664
  atomic energy  EATOM  =     15171.73615219
  Solvation  Ediel_sol  =         0.00000000
  ---------------------------------------------------
  free energy    TOTEN  =      -461.97197560 eV

  energy without entropy =     -461.97197560  energy(sigma->0) =     -461.97197560


--------------------------------------------------------------------------------------------------------




--------------------------------------- Iteration      1(  14)  ---------------------------------------


    POTLOK:  cpu time    0.0717: real time    0.0783
    SETDIJ:  cpu time    0.0082: real time    0.0082
     EDDAV:  cpu time    7.8842: real time    7.8997
 BZINTS: Fermi energy: -0.999250;280.000000 electrons
         Band energy:***********;  BLOECHL correction:  0.000000
       DOS:  cpu time    0.0119: real time    0.0119
    CHARGE:  cpu time    0.1394: real time    0.1394
    MIXING:  cpu time    0.0020: real time    0.0020
    --------------------------------------------
      LOOP:  cpu time    8.1174: real time    8.1395

 eigenvalue-minimisations  :  3984
 total energy-change (2. order) :-0.1411029E-03  (-0.5107732E-02)
 number of electron     279.9999979 magnetization       0.0000000
 augmentation part       20.2704385 magnetization       0.0000013

 Broyden mixing:
  rms(total) = 0.32026E-01    rms(broyden)= 0.32010E-01
  rms(prec ) = 0.35155E-01
  weight for this iteration     100.00

 eigenvalues of (default mixing * dielectric matrix)
  average eigenvalue GAMMA=   1.4637
  3.8573  2.5568  1.6109  1.0749  1.0749  0.8957  0.8957  0.6034  0.6034

 Free energy of the ion-electron system (eV)
  ---------------------------------------------------
  alpha Z        PSCENC =       198.66291157
  Ewald energy   TEWEN  =     27984.82777086
  -Hartree energ DENC   =    -40641.69002469
  -exchange      EXHF   =         0.00000000
  -V(xc)+E(xc)   XCENC  =      1147.20601064
  PAW double counting   =     41374.75351001   -41882.66416334
  entropy T*S    EENTRO =         0.00000000
  eigenvalues    EBANDS =     -3814.80428394
  atomic energy  EATOM  =     15171.73615219
  Solvation  Ediel_sol  =         0.00000000
  ---------------------------------------------------
  free energy    TOTEN  =      -461.97211670 eV

  energy without entropy =     -461.97211670  energy(sigma->0) =     -461.97211670


--------------------------------------------------------------------------------------------------------




--------------------------------------- Iteration      1(  15)  ---------------------------------------


    POTLOK:  cpu time    0.0819: real time    0.0824
    SETDIJ:  cpu time    0.0082: real time    0.0082
     EDDAV:  cpu time    9.6305: real time    9.6502
 BZINTS: Fermi energy: -0.995499;280.000000 electrons
         Band energy:***********;  BLOECHL correction:  0.000000
       DOS:  cpu time    0.0128: real time    0.0128
    CHARGE:  cpu time    0.1394: real time    0.1394
    MIXING:  cpu time    0.0020: real time    0.0020
    --------------------------------------------
      LOOP:  cpu time    9.8749: real time    9.8950

 eigenvalue-minimisations  :  4944
 total energy-change (2. order) : 0.4899219E-03  (-0.6720841E-03)
 number of electron     279.9999979 magnetization      -0.0000000
 augmentation part       20.2709680 magnetization       0.0000091

 Broyden mixing:
  rms(total) = 0.21760E-01    rms(broyden)= 0.21757E-01
  rms(prec ) = 0.22361E-01
  weight for this iteration     100.00

 eigenvalues of (default mixing * dielectric matrix)
  average eigenvalue GAMMA=   1.5165
  3.7573  2.4964  2.1738  1.4532  1.4532  0.9542  0.8355  0.8355  0.6030  0.6030

 Free energy of the ion-electron system (eV)
  ---------------------------------------------------
  alpha Z        PSCENC =       198.66291157
  Ewald energy   TEWEN  =     27984.82777086
  -Hartree energ DENC   =    -40642.76794486
  -exchange      EXHF   =         0.00000000
  -V(xc)+E(xc)   XCENC  =      1147.22298700
  PAW double counting   =     41372.40523385   -41880.39326871
  entropy T*S    EENTRO =         0.00000000
  eigenvalues    EBANDS =     -3813.66546869
  atomic energy  EATOM  =     15171.73615219
  Solvation  Ediel_sol  =         0.00000000
  ---------------------------------------------------
  free energy    TOTEN  =      -461.97162678 eV

  energy without entropy =     -461.97162678  energy(sigma->0) =     -461.97162678


--------------------------------------------------------------------------------------------------------




--------------------------------------- Iteration      1(  16)  ---------------------------------------


    POTLOK:  cpu time    0.0690: real time    0.0800
    SETDIJ:  cpu time    0.0083: real time    0.0083
     EDDAV:  cpu time    8.6195: real time    8.6360
 BZINTS: Fermi energy: -0.990498;280.000000 electrons
         Band energy:***********;  BLOECHL correction:  0.000000
       DOS:  cpu time    0.0121: real time    0.0121
    CHARGE:  cpu time    0.1414: real time    0.1428
    MIXING:  cpu time    0.0022: real time    0.0022
    --------------------------------------------
      LOOP:  cpu time    8.8525: real time    8.8815

 eigenvalue-minimisations  :  4272
 total energy-change (2. order) : 0.1919115E-04  (-0.1389263E-03)
 number of electron     279.9999979 magnetization       0.0000000
 augmentation part       20.2703174 magnetization       0.0000022

 Broyden mixing:
  rms(total) = 0.11878E-01    rms(broyden)= 0.11876E-01
  rms(prec ) = 0.12145E-01
  weight for this iteration     100.00

 eigenvalues of (default mixing * dielectric matrix)
  average eigenvalue GAMMA=   1.5873
  3.6391  3.6391  2.3771  1.4189  1.4189  1.1800  0.8667  0.8667  0.8455  0.6044
  0.6044

 Free energy of the ion-electron system (eV)
  ---------------------------------------------------
  alpha Z        PSCENC =       198.66291157
  Ewald energy   TEWEN  =     27984.82777086
  -Hartree energ DENC   =    -40644.11517412
  -exchange      EXHF   =         0.00000000
  -V(xc)+E(xc)   XCENC  =      1147.25350828
  PAW double counting   =     41365.89202481   -41873.89984953
  entropy T*S    EENTRO =         0.00000000
  eigenvalues    EBANDS =     -3812.32895165
  atomic energy  EATOM  =     15171.73615219
  Solvation  Ediel_sol  =         0.00000000
  ---------------------------------------------------
  free energy    TOTEN  =      -461.97160759 eV

  energy without entropy =     -461.97160759  energy(sigma->0) =     -461.97160759


--------------------------------------------------------------------------------------------------------




--------------------------------------- Iteration      1(  17)  ---------------------------------------


    POTLOK:  cpu time    0.0732: real time    0.0794
    SETDIJ:  cpu time    0.0083: real time    0.0083
     EDDAV:  cpu time    5.6595: real time    5.6699
 BZINTS: Fermi energy: -0.989247;280.000000 electrons
         Band energy:***********;  BLOECHL correction:  0.000000
       DOS:  cpu time    0.0121: real time    0.0121
    --------------------------------------------
      LOOP:  cpu time    5.7531: real time    5.7698

 eigenvalue-minimisations  :  2520
 total energy-change (2. order) :-0.3386357E-04  (-0.2855947E-04)
 number of electron     279.9999979 magnetization       0.0000000
 augmentation part       20.2703174 magnetization       0.0000022

 Free energy of the ion-electron system (eV)
  ---------------------------------------------------
  alpha Z        PSCENC =       198.66291157
  Ewald energy   TEWEN  =     27984.82777086
  -Hartree energ DENC   =    -40644.40041914
  -exchange      EXHF   =         0.00000000
  -V(xc)+E(xc)   XCENC  =      1147.25819839
  PAW double counting   =     41379.58406996   -41887.58526698
  entropy T*S    EENTRO =         0.00000000
  eigenvalues    EBANDS =     -3812.05505830
  atomic energy  EATOM  =     15171.73615219
  Solvation  Ediel_sol  =         0.00000000
  ---------------------------------------------------
  free energy    TOTEN  =      -461.97164145 eV

  energy without entropy =     -461.97164145  energy(sigma->0) =     -461.97164145


--------------------------------------------------------------------------------------------------------




 average (electrostatic) potential at core
  the test charge radii are     0.6991  0.7089  0.9911  0.6991  0.7215
  (the norm of the test charge is              1.0000)
       1 -59.4238       2 -59.8343       3 -59.8341       4 -59.5399       5 -59.5197
       6 -59.5624       7 -59.6298       8 -59.4353       9 -59.3430      10 -60.3438
      11 -59.7113      12 -60.3297      13 -59.4348      14 -59.4390      15 -59.1709
      16 -59.5822      17 -59.5526      18 -59.5076      19 -59.7410      20 -59.4138
      21 -59.4372      22 -59.6545      23 -59.5794      24 -59.6252      25 -73.6461
      26 -71.1939      27 -71.1838      28 -71.4264      29 -71.5330      30 -71.2908
      31 -71.2304      32 -74.3475      33 -73.2033      34 -71.7679      35 -72.9734
      36 -71.3720      37 -71.3824      38 -71.8333      39 -72.9171      40 -74.4853
      41 -73.3880      42 -71.3840      43 -71.2679      44 -71.5777      45 -71.6082
      46 -71.2359      47 -71.2358      48 -74.2157      49 -73.4091      50 -71.5628
      51 -71.4588      52 -71.1989      53 -71.1447      54 -71.5026      55 -71.4442
      56 -74.5265      57 -80.5594      58 -58.9661      59 -81.4500



 E-fermi :  -0.9892     XC(G=0):  -3.6445     alpha+bet : -2.9838


 spin component 1

 k-point     1 :       0.0000    0.0000    0.0000
  band No.  band energies     occupation 
      1     -28.0154      1.00000
      2     -27.9262      1.00000
      3     -27.8884      1.00000
      4     -27.6201      1.00000
      5     -27.5255      1.00000
      6     -26.4262      1.00000
      7     -26.2727      1.00000
      8     -26.2107      1.00000
      9     -26.0260      1.00000
     10     -25.9217      1.00000
     11     -25.8773      1.00000
     12     -25.8077      1.00000
     13     -25.7744      1.00000
     14     -25.1787      1.00000
     15     -25.1528      1.00000
     16     -25.1051      1.00000
     17     -25.0123      1.00000
     18     -24.9578      1.00000
     19     -24.8187      1.00000
     20     -23.9307      1.00000
     21     -23.6922      1.00000
     22     -23.6679      1.00000
     23     -22.7582      1.00000
     24     -22.6949      1.00000
     25     -22.3607      1.00000
     26     -22.2224      1.00000
     27     -22.1806      1.00000
     28     -22.1448      1.00000
     29     -22.0576      1.00000
     30     -21.9848      1.00000
     31     -21.8321      1.00000
     32     -21.7875      1.00000
     33     -21.6626      1.00000
     34     -21.1057      1.00000
     35     -21.0369      1.00000
     36     -20.8940      1.00000
     37     -20.7309      1.00000
     38     -20.3659      1.00000
     39     -18.0914      1.00000
     40     -18.0216      1.00000
     41     -17.8699      1.00000
     42     -17.6554      1.00000
     43     -17.5046      1.00000
     44     -17.4544      1.00000
     45     -16.9882      1.00000
     46     -16.7512      1.00000
     47     -16.0097      1.00000
     48     -15.8313      1.00000
     49     -15.8221      1.00000
     50     -15.6121      1.00000
     51     -15.5134      1.00000
     52     -15.3793      1.00000
     53     -14.9559      1.00000
     54     -14.8279      1.00000
     55     -14.4671      1.00000
     56     -14.3690      1.00000
     57     -14.3307      1.00000
     58     -14.1589      1.00000
     59     -14.0931      1.00000
     60     -13.9773      1.00000
     61     -13.8741      1.00000
     62     -13.7852      1.00000
     63     -13.6768      1.00000
     64     -12.9960      1.00000
     65     -12.9284      1.00000
     66     -12.7269      1.00000
     67     -12.5605      1.00000
     68     -12.5108      1.00000
     69     -12.4178      1.00000
     70     -12.2729      1.00000
     71     -12.2064      1.00000
     72     -12.0721      1.00000
     73     -11.9597      1.00000
     74     -11.7558      1.00000
     75     -11.6959      1.00000
     76     -11.5191      1.00000
     77     -11.5109      1.00000
     78     -11.4399      1.00000
     79     -11.2421      1.00000
     80     -10.9249      1.00000
     81     -10.7626      1.00000
     82     -10.6011      1.00000
     83     -10.3060      1.00000
     84     -10.1915      1.00000
     85     -10.0366      1.00000
     86      -9.9792      1.00000
     87      -9.9768      1.00000
     88      -9.8741      1.00000
     89      -9.7169      1.00000
     90      -9.6581      1.00000
     91      -9.5550      1.00000
     92      -9.3917      1.00000
     93      -9.2967      1.00000
     94      -9.1493      1.00000
     95      -8.8644      1.00000
     96      -8.2341      1.00000
[...]
   -.192E+02 0.611E+02 0.217E+03   0.195E+02 -.640E+02 -.220E+03   -.404E+00 0.353E+01 0.204E+01   -.172E-01 0.235E-01 0.205E-01
   -.715E+02 -.189E+02 0.105E+03   0.747E+02 0.203E+02 -.106E+03   -.324E+01 -.163E+01 0.127E+01   -.922E-03 0.980E-02 0.347E-02
   0.482E+02 -.316E+02 -.375E+02   -.483E+02 0.311E+02 0.379E+02   0.635E+00 0.248E+01 0.862E+00   0.649E-02 0.138E-01 0.307E-02
   0.288E+02 -.211E+02 -.537E+02   -.279E+02 0.212E+02 0.536E+02   -.284E+01 -.191E+01 0.463E+00   0.873E-03 -.813E-02 0.739E-02
   -.649E+01 -.274E+01 -.659E+02   0.539E+01 0.261E+01 0.660E+02   0.320E+01 -.161E+01 0.313E+00   0.451E-02 -.304E-04 0.183E-02
   -.310E+02 0.199E+02 -.789E+02   0.292E+02 -.183E+02 0.805E+02   0.114E+01 -.192E+01 -.125E+01   0.748E-02 -.149E-01 -.100E-01
   -.404E+01 0.205E+02 0.525E+02   0.405E+01 -.245E+02 -.524E+02   0.824E-01 0.354E+01 -.649E+00   0.538E-02 -.154E-01 0.123E-01
   0.394E+02 0.180E+02 -.726E+02   -.375E+02 -.163E+02 0.743E+02   -.127E+01 -.233E+01 -.847E+00   0.225E-01 0.165E-01 0.947E-02
   -.385E+01 -.177E+02 -.174E+02   0.416E+01 0.162E+02 0.171E+02   -.149E+00 0.352E+01 -.687E+00   -.205E-01 0.152E-02 0.938E-03
   0.439E+02 0.324E+02 0.211E+03   -.432E+02 -.321E+02 -.210E+03   -.302E+01 -.136E+01 -.904E+00   -.243E-01 0.617E-02 0.796E-02
   -.145E+02 0.247E+02 0.945E+02   0.137E+02 -.250E+02 -.944E+02   0.320E+01 -.131E+01 -.509E+00   -.416E-01 0.164E-01 0.547E-02
   0.739E+02 -.173E+02 0.719E+02   -.773E+02 0.187E+02 -.729E+02   0.327E+01 -.172E+01 0.666E+00   0.706E-02 -.845E-02 0.677E-02
   0.738E+01 0.866E+02 0.232E+03   -.678E+01 -.896E+02 -.234E+03   -.711E-01 0.338E+01 0.193E+01   0.140E-01 0.812E-02 0.338E-02
   -.728E+02 -.673E+02 -.108E+03   0.763E+02 0.689E+02 0.109E+03   -.322E+01 -.169E+01 -.511E+00   -.586E-02 -.246E-01 0.573E-02
   -.412E+02 -.300E+02 -.154E+03   0.406E+02 0.300E+02 0.155E+03   -.344E+00 0.249E+01 0.929E+00   -.558E-02 -.134E-01 -.628E-02
   0.102E+02 -.387E+01 -.120E+03   -.934E+01 0.373E+01 0.120E+03   -.328E+01 -.152E+01 0.561E+00   -.939E-02 -.148E-01 0.171E-02
   -.319E+02 -.158E+02 -.972E+02   0.313E+02 0.159E+02 0.970E+02   0.283E+01 -.202E+01 0.988E+00   0.542E-02 -.244E-01 0.610E-02
   0.851E+02 -.785E+02 0.150E+03   -.876E+02 0.816E+02 -.151E+03   0.326E+01 -.233E+01 0.256E+00   0.358E-02 0.205E-01 0.819E-02
   -.118E+02 0.490E+02 -.208E+03   0.119E+02 -.528E+02 0.210E+03   -.594E-01 0.380E+01 -.164E+01   -.788E-02 0.193E-02 -.165E-02
   -.969E+02 -.285E+02 -.670E+02   0.100E+03 0.300E+02 0.685E+02   -.359E+01 -.115E+01 -.128E+01   -.373E-01 -.157E-01 -.697E-02
   -.167E+02 0.461E+02 0.181E+03   0.172E+02 -.470E+02 -.184E+03   -.347E+00 0.129E+01 0.290E+01   0.615E-01 0.211E-01 0.144E-01
   -.223E+03 -.339E+02 0.247E+03   0.260E+03 0.537E+02 -.262E+03   -.313E+02 -.165E+02 0.126E+02   0.803E-02 0.268E-01 0.676E-02
   0.180E+03 -.176E+03 -.264E+03   -.216E+03 0.196E+03 0.278E+03   0.308E+02 -.164E+02 -.108E+02   -.302E-03 -.125E-01 0.438E-02
   0.270E+01 0.197E+03 0.437E+03   0.352E+00 -.231E+03 -.465E+03   -.216E+01 0.290E+02 0.223E+02   -.330E-01 0.415E-01 0.296E-01
   -.449E+02 0.163E+03 0.459E+03   0.427E+02 -.195E+03 -.490E+03   0.205E+01 0.274E+02 0.252E+02   0.101E-01 0.376E-01 0.367E-01
   0.221E+03 -.113E+03 -.125E+03   -.256E+03 0.137E+03 0.126E+03   0.298E+02 -.195E+02 -.451E-01   -.216E-01 0.601E-02 0.586E-03
   -.166E+03 -.913E+02 0.282E+03   0.202E+03 0.103E+03 -.306E+03   -.303E+02 -.984E+01 0.196E+02   -.330E-03 0.162E-02 0.534E-02
   -.508E+01 -.519E+00 -.274E+02   0.540E+01 0.316E+00 0.288E+02   -.195E+00 0.917E-01 -.105E+01   -.183E-02 -.115E-02 0.441E-02
   0.205E+02 -.275E+02 -.108E+03   -.206E+02 0.284E+02 0.113E+03   0.236E+00 -.761E+00 -.399E+01   0.767E-02 -.442E-03 0.637E-02
   -.284E-02 -.707E+02 -.336E+03   0.257E+02 0.871E+02 0.366E+03   -.222E+02 -.137E+02 -.235E+02   0.290E-01 0.147E-01 0.820E-02
   0.789E+01 0.765E+02 -.852E+02   -.315E+02 -.722E+02 0.977E+02   0.191E+02 -.416E+01 -.105E+02   0.139E-01 0.918E-02 0.364E-02
   -.201E+02 0.127E+03 0.138E+03   0.235E+02 -.167E+03 -.151E+03   -.254E+01 0.339E+02 0.981E+01   0.204E-02 -.322E-01 0.154E-01
   0.551E+00 0.123E+03 0.154E+03   -.302E+01 -.163E+03 -.166E+03   0.172E+01 0.337E+02 0.989E+01   0.143E-01 -.189E-01 0.178E-01
   0.437E+02 -.690E+02 -.367E+03   -.747E+02 0.860E+02 0.389E+03   0.266E+02 -.142E+02 -.178E+02   -.148E-01 -.290E-01 -.137E-01
   -.147E+01 0.873E+02 -.121E+03   0.230E+02 -.838E+02 0.138E+03   -.175E+02 -.358E+01 -.142E+02   0.547E-01 0.287E-01 0.246E-01
   0.597E+02 0.209E+02 0.793E+02   -.651E+02 -.247E+02 -.792E+02   0.397E+01 0.282E+01 -.373E+00   0.168E-01 0.276E-01 0.134E-01
   0.169E+02 0.445E+02 0.164E+03   -.192E+02 -.464E+02 -.170E+03   0.197E+01 0.160E+01 0.401E+01   -.659E-01 0.188E-01 0.677E-02
   -.217E+03 -.119E+03 -.137E+03   0.252E+03 0.142E+03 0.138E+03   -.301E+02 -.186E+02 -.927E+00   -.458E-02 -.176E-01 0.122E-01
   0.171E+03 -.772E+02 0.219E+03   -.208E+03 0.883E+02 -.240E+03   0.313E+02 -.952E+01 0.166E+02   0.150E-03 -.251E-01 0.117E-01
   0.150E+02 0.189E+03 0.472E+03   -.989E+01 -.222E+03 -.501E+03   -.449E+01 0.283E+02 0.230E+02   0.423E-01 -.515E-02 -.451E-02
   0.713E+01 0.270E+03 0.395E+03   -.921E+01 -.311E+03 -.409E+03   0.107E+01 0.339E+02 0.108E+02   -.214E-02 -.140E-01 -.635E-02
   0.224E+03 -.352E+02 0.149E+03   -.261E+03 0.565E+02 -.156E+03   0.318E+02 -.176E+02 0.621E+01   0.231E-01 -.200E-02 0.859E-02
   -.164E+03 -.180E+03 -.324E+03   0.198E+03 0.200E+03 0.342E+03   -.294E+02 -.162E+02 -.138E+02   0.250E-02 -.340E-01 0.656E-02
   0.864E+00 -.396E+02 -.138E+02   -.745E+00 0.411E+02 0.110E+02   -.149E+00 -.112E+01 0.215E+01   -.239E-02 -.252E-01 0.971E-02
   -.200E+02 -.304E+02 -.209E+03   0.196E+02 0.328E+02 0.215E+03   0.162E+00 -.204E+01 -.536E+01   -.515E-02 -.201E-01 -.136E-05
   -.258E+03 -.755E+02 -.102E+03   0.295E+03 0.972E+02 0.104E+03   -.307E+02 -.183E+02 -.113E+01   -.318E-01 -.209E-01 -.538E-02
   0.205E+03 -.168E+03 0.336E+03   -.242E+03 0.187E+03 -.346E+03   0.308E+02 -.164E+02 0.661E+01   -.307E-01 0.219E-01 0.705E-02
   0.122E+01 0.169E+03 -.427E+03   0.418E+01 -.203E+03 0.455E+03   -.431E+01 0.286E+02 -.228E+02   0.260E-04 0.427E-02 -.109E-02
   -.403E+02 0.131E+03 -.480E+03   0.387E+02 -.162E+03 0.512E+03   0.128E+01 0.270E+02 -.262E+02   -.183E-01 -.404E-02 -.566E-02
   0.217E+03 -.147E+03 0.261E+03   -.247E+03 0.174E+03 -.276E+03   0.243E+02 -.225E+02 0.122E+02   0.659E-02 0.240E-01 0.937E-02
   -.192E+03 -.833E+02 -.208E+03   0.231E+03 0.937E+02 0.225E+03   -.321E+02 -.950E+01 -.141E+02   -.583E-01 -.427E-02 -.939E-02
   -.559E+02 0.241E+02 0.478E+02   0.597E+02 -.271E+02 -.509E+02   -.272E+01 0.216E+01 0.211E+01   -.173E-01 -.103E-01 -.316E-02
   0.504E+02 -.131E+03 -.108E+04   -.521E+02 0.151E+03 0.111E+04   0.137E+01 -.187E+02 -.239E+02   0.123E+00 0.516E-03 -.717E-01
   -.724E+02 -.165E+03 0.156E+03   0.834E+02 0.190E+03 -.185E+03   -.777E+01 -.176E+02 0.204E+02   0.255E-02 -.674E-03 -.545E-02
   0.603E+02 0.136E+03 -.834E+02   -.815E+02 -.184E+03 0.139E+03   0.180E+02 0.407E+02 -.473E+02   0.675E-02 0.408E-02 -.110E-01
 -----------------------------------------------------------------------------------------------
   -.725E+01 -.270E+02 0.302E+02   0.000E+00 -.853E-13 -.108E-11   0.714E+01 0.270E+02 -.304E+02   0.113E+00 0.405E-02 0.230E+00


 POSITION                                       TOTAL-FORCE (eV/Angst)
 -----------------------------------------------------------------------------------
     -0.01376      2.27883      6.02211        -0.021750      2.604003     -0.885252
      1.12296      4.23900      6.11448        -2.892304      0.289791      0.000130
     -1.17290      4.19710      6.03347         2.805482      0.298152      0.300390
      5.29063      0.60838      7.11547        -0.108352     -0.288664      0.541730
      3.20901      4.23785      5.82975        -0.192206      0.658242     -0.458848
      1.09103      0.54779      6.32870         0.038149     -0.215992     -0.241977
     -3.30594      7.64294      6.81474         0.535201      2.055608      1.264151
     -2.04657      9.52681      7.05348        -1.966880     -1.811448      0.305335
     -4.30822      9.61465      7.01103         2.105356     -1.740282      0.498468
      2.21338      5.82056      7.06317        -0.666681     -0.376485      0.324130
      0.03626      9.44623      6.88469         0.091349     -0.467263     -0.618202
     -2.34525      5.81756      6.77016         0.558859     -0.639685      0.914415
      6.42764      2.29048      6.66022         0.141099      2.025618     -1.052358
      7.45557      4.05590      5.65528        -2.290938     -0.989690     -0.532418
      5.26270      4.13564      6.14627         2.360093     -1.609548     -0.368986
     11.63260      0.39783      6.49456        -0.137436     -0.358013     -0.255157
      9.51954      3.99381      5.57245         0.551391      0.447166     -0.658998
      7.51413      0.59634      7.20294         0.288327     -0.120380      0.495929
      3.28125      7.54443      7.46813        -0.925556      2.482970      1.238502
      4.34566      9.51567      7.35265        -2.412900     -1.674310      1.239355
      2.07853      9.49579      7.33121         2.251539     -1.893390      0.861382
      8.36628      5.89120      5.93993         0.810584      0.800406     -0.190715
      6.41256      9.53464      7.51527         0.002318     -0.007310      0.773248
      4.38089      5.85883      6.89697        -0.554063      0.272004      0.264434
     -0.01321      3.58007      6.00229         0.224937      0.395900     -0.466669
      1.07306      1.70306      5.94604         5.714413      3.360554     -2.758521
      4.27116     -0.03957      7.34268        -5.594376      3.211729      3.497651
      4.27320      3.70261      5.55183         0.875045     -5.346066     -5.290175
      2.09308      3.82098      5.51549        -0.239030     -4.393696     -5.795057
      5.31458      1.81286      6.94239        -5.625935      4.700804      0.852317
     -4.27135     10.60496      6.30076         5.631906      1.672231     -4.735320
      0.01548      0.01968      6.80012         0.122392     -0.112665      0.321161
     -3.19404      8.91050      7.04048         0.183964      0.119596      1.014994
     -2.40234      6.91929      7.28238         3.529911      2.719243      5.699106
      1.12245      5.22614      6.92030        -4.446210      0.186009      2.004548
      1.11430      8.85061      6.89508         0.895844     -6.419803     -2.752269
     -1.03915      8.86477      6.75226        -0.758432     -6.394656     -2.765659
      2.22887      6.88498      7.65561        -4.389237      2.822121      4.964465
     -1.27470      5.17896      6.83150         4.040772      0.017053      3.172511
      9.42992      5.16283      6.15354        -1.381738     -0.913003     -0.277949
      6.39711      3.43521      6.06149        -0.433702     -0.276317     -1.186308
      7.52301      1.79616      6.97118         5.760001      4.526277      0.545060
      4.25495     10.46620      6.59322        -5.880457      1.497330     -4.388615
     -2.07695      3.74348      5.36437         0.639879     -4.639596     -5.791569
      8.47446      3.40671      5.37440        -1.014032     -6.931721     -3.154485
     11.62095      1.55825      6.14171        -5.919003      3.757271     -1.440940
      8.48527     -0.06095      7.58174         5.097510      3.281295      4.063295
      6.40500     -0.04681      7.01357        -0.033427      0.412132     -0.673280
      3.21157      8.83767      7.50885        -0.276892      0.356687      1.390887
      4.36343      7.04214      7.20891         6.229701      3.437758      0.156536
      7.37131      5.30552      5.59820        -6.610963      2.325028     -3.237960
     -5.23006      9.17508      7.70865         1.106168     -5.202401      5.169432
      5.34224      9.09952      7.94839        -0.356365     -4.190659      6.117624
     -4.25878      7.28633      6.13376        -4.958960      4.305043     -3.269321
      5.37320      5.16880      6.81363         6.629401      0.902236      3.480492
      3.24458      5.31038      6.58373         1.061498     -0.906230     -1.014280
     -0.12323      6.32884      7.83447        -0.195275      1.975737      2.798669
     -0.12323      6.32884     13.33607         3.209475      7.251122     -8.449696
     -0.41856      5.66106      0.31378        -3.209466     -7.247842      8.440635
 -----------------------------------------------------------------------------------
    total drift:                                0.002356     -0.003241      0.028998


--------------------------------------------------------------------------------------------------------



  FREE ENERGIE OF THE ION-ELECTRON SYSTEM (eV)
  ---------------------------------------------------
  free  energy   TOTEN  =      -466.19761269 eV

  energy  without entropy=     -466.19761269  energy(sigma->0) =     -466.19761269



--------------------------------------------------------------------------------------------------------


    POTLOK:  cpu time    0.1165: real time    0.1168


--------------------------------------------------------------------------------------------------------


     LOOP+:  cpu time  152.2099: real time  153.1699
    4ORBIT:  cpu time    0.0000: real time    0.0000



 total charge     

# of ion       s       p       d       tot
------------------------------------------
    1        0.936   2.027   0.000   2.963
    2        0.920   2.007   0.000   2.926
    3        0.923   2.016   0.000   2.939
    4        0.949   2.042   0.000   2.991
    5        0.937   2.035   0.000   2.972
    6        0.954   2.054   0.000   3.008
    7        0.936   2.020   0.000   2.957
    8        0.934   2.013   0.000   2.947
    9        0.941   2.016   0.000   2.957
   10        0.957   2.080   0.000   3.037
   11        0.951   2.046   0.000   2.997
   12        0.963   2.092   0.000   3.055
   13        0.933   2.013   0.000   2.947
   14        0.929   2.016   0.000   2.944
   15        0.926   2.016   0.000   2.942
   16        0.956   2.060   0.000   3.016
   17        0.940   2.047   0.000   2.987
   18        0.945   2.039   0.000   2.984
   19        0.934   2.016   0.000   2.951
   20        0.937   2.012   0.000   2.949
   21        0.930   2.004   0.000   2.934
   22        0.946   2.042   0.000   2.988
   23        0.946   2.028   0.000   2.974
   24        0.952   2.061   0.000   3.013
   25        1.264   2.982   0.000   4.245
   26        1.313   2.895   0.000   4.208
   27        1.309   2.890   0.000   4.199
   28        1.310   2.858   0.000   4.168
   29        1.311   2.882   0.000   4.194
   30        1.307   2.885   0.000   4.193
   31        1.319   2.886   0.000   4.205
   32        1.289   3.022   0.000   4.311
   33        1.276   2.999   0.000   4.275
   34        1.307   2.900   0.000   4.207
   35        1.285   2.909   0.000   4.194
   36        1.305   2.882   0.000   4.187
   37        1.304   2.882   0.000   4.185
   38        1.303   2.890   0.000   4.193
   39        1.287   2.915   0.000   4.202
   40        1.290   3.039   0.000   4.328
   41        1.272   2.981   0.000   4.253
   42        1.305   2.874   0.000   4.178
   43        1.317   2.893   0.000   4.210
   44        1.311   2.883   0.000   4.194
   45        1.310   2.861   0.000   4.171
   46        1.313   2.901   0.000   4.214
   47        1.308   2.880   0.000   4.189
   48        1.286   3.025   0.000   4.311
   49        1.269   2.964   0.000   4.233
   50        1.313   2.894   0.000   4.208
   51        1.309   2.882   0.000   4.191
   52        1.307   2.867   0.000   4.175
   53        1.309   2.871   0.000   4.180
   54        1.305   2.877   0.000   4.182
   55        1.318   2.878   0.000   4.196
   56        1.288   3.031   0.000   4.318
   57        1.318   0.929  10.127  12.375
   58        1.068   1.606   0.000   2.674
   59        1.663   3.662   0.000   5.325
--------------------------------------------------
tot         68.245 148.279  10.127 226.651



 magnetization (x)

# of ion       s       p       d       tot
------------------------------------------
    1       -0.000   0.000   0.000  -0.000
    2       -0.000  -0.000   0.000  -0.000
    3       -0.000   0.000   0.000   0.000
    4       -0.000   0.000   0.000   0.000
    5       -0.000  -0.000   0.000  -0.000
    6       -0.000   0.000   0.000  -0.000
    7       -0.000  -0.000   0.000  -0.000
    8        0.000   0.000   0.000   0.000
    9       -0.000   0.000   0.000  -0.000
   10       -0.000  -0.000   0.000  -0.000
   11       -0.000  -0.000   0.000  -0.000
   12       -0.000  -0.000   0.000  -0.000
   13       -0.000   0.000   0.000   0.000
   14        0.000   0.000   0.000   0.000
   15       -0.000  -0.000   0.000  -0.000
   16       -0.000  -0.000   0.000  -0.000
   17       -0.000   0.000   0.000   0.000
   18       -0.000   0.000   0.000   0.000
   19       -0.000  -0.000   0.000  -0.000
   20       -0.000  -0.000   0.000  -0.000
   21       -0.000  -0.000   0.000  -0.000
   22       -0.000   0.000   0.000   0.000
   23       -0.000   0.000   0.000  -0.000
   24       -0.000  -0.000   0.000  -0.000
   25       -0.000   0.000   0.000   0.000
   26       -0.000   0.000   0.000   0.000
   27       -0.000  -0.000   0.000  -0.000
   28        0.000  -0.000   0.000  -0.000
   29        0.000   0.000   0.000   0.000
   30        0.000   0.000   0.000   0.000
   31       -0.000   0.000   0.000  -0.000
   32       -0.000   0.000   0.000   0.000
   33        0.000   0.000   0.000   0.000
   34       -0.000   0.000   0.000   0.000
   35        0.000   0.000   0.000   0.000
   36       -0.000   0.000   0.000   0.000
   37        0.000   0.000   0.000   0.000
   38       -0.000   0.000   0.000   0.000
   39        0.000   0.000   0.000   0.000
   40        0.000   0.000   0.000   0.000
   41        0.000   0.000   0.000   0.000
   42        0.000  -0.000   0.000  -0.000
   43       -0.000  -0.000   0.000  -0.000
   44       -0.000   0.000   0.000   0.000
   45        0.000   0.000   0.000   0.000
   46        0.000   0.000   0.000   0.000
   47       -0.000  -0.000   0.000  -0.000
   48        0.000   0.000   0.000   0.000
   49        0.000   0.000   0.000   0.000
   50       -0.000   0.000   0.000   0.000
   51       -0.000   0.000   0.000  -0.000
   52       -0.000  -0.000   0.000  -0.000
   53       -0.000  -0.000   0.000  -0.000
   54        0.000   0.000   0.000   0.000
   55       -0.000   0.000   0.000   0.000
   56       -0.000  -0.000   0.000  -0.000
   57       -0.000  -0.000   0.000  -0.000
   58        0.000   0.000   0.000   0.000
   59        0.000  -0.000   0.000  -0.000
--------------------------------------------------
tot         -0.000   0.000   0.000  -0.000

 BZINTS: Fermi energy: -0.989247;280.000000 electrons
         Band energy:***********;  BLOECHL correction:  0.000000

 total amount of memory used by VASP MPI-rank0    78678. kBytes
=======================================================================

   base      :      30000. kBytes
   nonl-proj :      14867. kBytes
   fftplans  :       2745. kBytes
   grid      :       8042. kBytes
   one-center:        155. kBytes
   wavefun   :      22869. kBytes

  
  
 General timing and accounting informations for this job:
 ========================================================
  
                  Total CPU time used (sec):      164.904
                            User time (sec):      163.175
                          System time (sec):        1.729
                         Elapsed time (sec):      166.216
  
                   Maximum memory used (kb):      158120.
                   Average memory used (kb):           0.
  
                          Minor page faults:        44260
                          Major page faults:            3
                 Voluntary context switches:         1681
