 running on   48 total cores
 distrk:  each k-point on   48 cores,    1 groups
 distr:  one band on   12 cores,    4 groups
 using from now: INCAR     
 vasp.5.4.4.18Apr17-6-g9f103f2a35 (build Sep 02 2021 13:24:58) complex          
  
 POSCAR found type information on POSCAR  C  N  C  Cr
 POSCAR found :  4 types and      71 ions
 scaLAPACK will be used
 LDA part: xc-table for Pade appr. of Perdew
 POSCAR, INCAR and KPOINTS ok, starting setup
 FFT: planning ...
 WAVECAR not read
 entering main loop
       N       E                     dE             d eps       ncg     rms          rms(c)
DAV:   1     0.273544971914E+04    0.27354E+04   -0.11740E+05  3256   0.127E+03
DAV:   2    -0.172885538281E+03   -0.29083E+04   -0.27789E+04  4296   0.295E+02
DAV:   3    -0.684223071586E+03   -0.51134E+03   -0.50843E+03  3552   0.129E+02
DAV:   4    -0.703660645849E+03   -0.19438E+02   -0.19290E+02  3544   0.312E+01
DAV:   5    -0.704285410612E+03   -0.62476E+00   -0.62282E+00  4072   0.479E+00    0.465E+01
RMM:   6    -0.731473060043E+03   -0.27188E+02   -0.52622E+02  4069   0.392E+01    0.837E+01
RMM:   7    -0.662222446471E+03    0.69251E+02   -0.56760E+01  3058   0.136E+01    0.319E+01
RMM:   8    -0.662295152753E+03   -0.72706E-01   -0.21945E+01  3138   0.703E+00    0.284E+01
RMM:   9    -0.647121083639E+03    0.15174E+02   -0.19905E+01  2965   0.838E+00    0.117E+01
RMM:  10    -0.647639023791E+03   -0.51794E+00   -0.31198E+00  2993   0.312E+00    0.145E+01
RMM:  11    -0.646495032828E+03    0.11440E+01   -0.41476E-01  3120   0.104E+00    0.762E+00
RMM:  12    -0.646398989628E+03    0.96043E-01   -0.15904E-01  2944   0.922E-01    0.698E+00
RMM:  13    -0.646477703751E+03   -0.78714E-01   -0.25163E-02  2997   0.329E-01    0.728E+00
RMM:  14    -0.646232727334E+03    0.24498E+00   -0.35611E-02  2961   0.415E-01    0.536E+00
RMM:  15    -0.646351410365E+03   -0.11868E+00   -0.26086E-02  2976   0.256E-01    0.721E+00
RMM:  16    -0.646296374033E+03    0.55036E-01   -0.37389E-02  2960   0.589E-01    0.659E+00
RMM:  17    -0.646232819288E+03    0.63555E-01   -0.23852E-02  2966   0.244E-01    0.293E+00
RMM:  18    -0.646272518160E+03   -0.39699E-01   -0.30567E-02  2958   0.369E-01    0.229E+00
RMM:  19    -0.646269523407E+03    0.29948E-02   -0.11672E-02  2962   0.241E-01    0.234E+00
RMM:  20    -0.646266078448E+03    0.34450E-02   -0.79578E-03  2983   0.157E-01    0.729E-01
RMM:  21    -0.646287305889E+03   -0.21227E-01   -0.34022E-03  2989   0.130E-01    0.267E+00
RMM:  22    -0.646323753128E+03   -0.36447E-01   -0.93646E-03  2984   0.175E-01    0.398E+00
RMM:  23    -0.646338487051E+03   -0.14734E-01   -0.66119E-03  2966   0.155E-01    0.477E+00
RMM:  24    -0.646296341384E+03    0.42146E-01   -0.54455E-03  3000   0.146E-01    0.399E+00
RMM:  25    -0.646293998905E+03    0.23425E-02   -0.26943E-03  2976   0.723E-02    0.387E+00
RMM:  26    -0.646295896987E+03   -0.18981E-02   -0.39956E-04  2270   0.293E-02    0.383E+00
RMM:  27    -0.646295072008E+03    0.82498E-03   -0.80744E-04  2627   0.387E-02    0.371E+00
RMM:  28    -0.646287734066E+03    0.73379E-02   -0.27599E-03  2989   0.725E-02    0.351E+00
RMM:  29    -0.646280448597E+03    0.72855E-02   -0.23254E-03  3036   0.620E-02    0.306E+00
RMM:  30    -0.646296988764E+03   -0.16540E-01   -0.20767E-03  2935   0.727E-02    0.305E+00
RMM:  31    -0.646279872234E+03    0.17117E-01   -0.32918E-03  2981   0.870E-02    0.215E+00
RMM:  32    -0.646282427863E+03   -0.25556E-02   -0.15346E-03  2953   0.701E-02    0.114E+00
RMM:  33    -0.646289366886E+03   -0.69390E-02   -0.23959E-03  2949   0.999E-02    0.785E-01
RMM:  34    -0.646294368482E+03   -0.50016E-02   -0.83772E-03  3004   0.137E-01    0.137E+00
RMM:  35    -0.646303680977E+03   -0.93125E-02   -0.29695E-03  3026   0.114E-01    0.289E+00
RMM:  36    -0.646307533154E+03   -0.38522E-02   -0.13355E-03  2962   0.113E-01    0.428E+00
RMM:  37    -0.646306355997E+03    0.11772E-02   -0.94954E-04  2913   0.101E-01    0.521E+00
RMM:  38    -0.646302749593E+03    0.36064E-02   -0.52367E-04  2835   0.715E-02    0.567E+00
RMM:  39    -0.646299769651E+03    0.29799E-02   -0.21321E-04  2376   0.421E-02    0.585E+00
RMM:  40    -0.646298828526E+03    0.94112E-03   -0.61046E-05  1948   0.216E-02    0.593E+00
RMM:  41    -0.646292814380E+03    0.60141E-02   -0.46006E-05  1959   0.153E-02    0.584E+00
RMM:  42    -0.646268804022E+03    0.24010E-01   -0.64008E-04  2826   0.411E-02    0.512E+00
RMM:  43    -0.646253709896E+03    0.15094E-01   -0.19185E-03  2970   0.665E-02    0.258E+00
RMM:  44    -0.646284716565E+03   -0.31007E-01   -0.19601E-03  2937   0.150E-01    0.555E-01
RMM:  45    -0.646302776418E+03   -0.18060E-01   -0.30443E-03  3005   0.185E-01    0.177E+00
RMM:  46    -0.646306110995E+03   -0.33346E-02   -0.11321E-03  2952   0.112E-01    0.282E+00
RMM:  47    -0.646305991930E+03    0.11906E-03   -0.67132E-04  2881   0.845E-02    0.353E+00
RMM:  48    -0.646304569613E+03    0.14223E-02   -0.35350E-04  2674   0.579E-02    0.392E+00
RMM:  49    -0.646303238512E+03    0.13311E-02   -0.12629E-04  2184   0.363E-02    0.411E+00
RMM:  50    -0.646302458410E+03    0.78010E-03   -0.43757E-05  1896   0.207E-02
   1 F= -.65269735E+03 E0= -.65266916E+03  d E =-.652697E+03  mag=     0.0472
 Constraining cell:  1  0  0  |  1  1  0  |  0  0  0
 curvature:   0.00 expect dE= 0.000E+00 dE for cont linesearch  0.000E+00
 trial: gam= 0.00000 g(F)=  0.194E+00 g(S)=  0.804E-03 ort = 0.000E+00 (trialstep = 0.100E+01)
 search vector abs. value=  0.195E+00
 bond charge predicted
       N       E                     dE             d eps       ncg     rms          rms(c)
DAV:   1    -0.646338637630E+03   -0.35399E-01   -0.15411E+01  3232   0.112E+01    0.505E+00
RMM:   2    -0.647149118927E+03   -0.81048E+00   -0.16139E+00  2997   0.258E+00    0.118E+01
RMM:   3    -0.646618971618E+03    0.53015E+00   -0.12346E+00  3140   0.167E+00    0.534E+00
RMM:   4    -0.646253193225E+03    0.36578E+00   -0.13582E-01  3179   0.673E-01    0.255E+00
RMM:   5    -0.646157761737E+03    0.95431E-01   -0.12768E-01  3053   0.507E-01    0.171E+00
RMM:   6    -0.646247925877E+03   -0.90164E-01   -0.76950E-02  3139   0.365E-01    0.134E+00
RMM:   7    -0.646442171393E+03   -0.19425E+00   -0.10550E-01  3032   0.436E-01    0.675E-01
RMM:   8    -0.646591018224E+03   -0.14885E+00   -0.57743E-02  3022   0.263E-01    0.526E-01
RMM:   9    -0.646751719527E+03   -0.16070E+00   -0.57391E-02  2949   0.235E-01    0.445E-01
RMM:  10    -0.646807288292E+03   -0.55569E-01   -0.38415E-02  3031   0.204E-01    0.381E-01
RMM:  11    -0.646837470237E+03   -0.30182E-01   -0.75563E-03  3050   0.101E-01    0.322E-01
RMM:  12    -0.646820891243E+03    0.16579E-01   -0.17756E-03  2608   0.409E-02    0.492E-01
RMM:  13    -0.646869129188E+03   -0.48238E-01   -0.82926E-03  2944   0.105E-01    0.284E-01
RMM:  14    -0.646901279742E+03   -0.32151E-01   -0.64740E-03  2923   0.690E-02    0.107E-01
RMM:  15    -0.646904035163E+03   -0.27554E-02   -0.96706E-04  2418   0.288E-02    0.825E-02
RMM:  16    -0.646906569500E+03   -0.25343E-02   -0.30529E-04  2241   0.188E-02    0.430E-02
RMM:  17    -0.646907362457E+03   -0.79296E-03   -0.17718E-04  2238   0.145E-02    0.161E-02
RMM:  18    -0.646907599566E+03   -0.23711E-03   -0.50647E-05  2015   0.725E-03    0.878E-03
RMM:  19    -0.646907885099E+03   -0.28553E-03   -0.43982E-05  1927   0.610E-03    0.415E-03
RMM:  20    -0.646908035113E+03   -0.15001E-03   -0.22533E-05  1324   0.395E-03    0.272E-03
RMM:  21    -0.646908092720E+03   -0.57607E-04   -0.81066E-06  1119   0.280E-03    0.216E-03
RMM:  22    -0.646908175044E+03   -0.82324E-04   -0.93821E-06  1151   0.296E-03    0.162E-03
RMM:  23    -0.646908210772E+03   -0.35728E-04   -0.55301E-06  1146   0.248E-03    0.776E-04
RMM:  24    -0.646908221481E+03   -0.10709E-04   -0.17679E-06   864   0.181E-03    0.760E-04
RMM:  25    -0.646908228479E+03   -0.69981E-05   -0.74837E-07   823   0.169E-03
   2 F= -.65330617E+03 E0= -.65328786E+03  d E =-.608824E+00  mag=    -1.4544
 Constraining cell:  1  0  0  |  1  1  0  |  0  0  0
 trial-energy change:   -0.608824  1 .order   -0.025561   -0.194765    0.143642
 step:   0.9612(harm=  0.5755)  dis= 0.02732  next Energy=  -653.308922 (dE=-0.612E+00)
 bond charge predicted
       N       E                     dE             d eps       ncg     rms          rms(c)
DAV:   1    -0.646913678538E+03   -0.54571E-02   -0.23269E-02  3400   0.431E-01    0.510E-02
RMM:   2    -0.646913763139E+03   -0.84601E-04   -0.11652E-03  3003   0.782E-02    0.983E-02
RMM:   3    -0.646913669743E+03    0.93396E-04   -0.14785E-04  2330   0.230E-02    0.270E-02
RMM:   4    -0.646913629957E+03    0.39786E-04   -0.28872E-05  1945   0.115E-02    0.176E-02
RMM:   5    -0.646913608699E+03    0.21258E-04   -0.16015E-05  1803   0.889E-03    0.617E-03
RMM:   6    -0.646913634390E+03   -0.25691E-04   -0.28111E-06  1706   0.461E-03    0.301E-03
RMM:   7    -0.646913668679E+03   -0.34288E-04   -0.14275E-06  1444   0.267E-03    0.130E-03
RMM:   8    -0.646913691375E+03   -0.22696E-04   -0.60523E-07   892   0.183E-03    0.670E-04
RMM:   9    -0.646913706115E+03   -0.14740E-04   -0.46247E-07   765   0.163E-03    0.344E-04
RMM:  10    -0.646913713251E+03   -0.71365E-05   -0.31562E-07   670   0.154E-03
   3 F= -.65331156E+03 E0= -.65329305E+03  d E =-.614212E+00  mag=    -1.4617
 Constraining cell:  1  0  0  |  1  1  0  |  0  0  0
 curvature:  -0.05 expect dE=-0.114E-01 dE for cont linesearch -0.463E-02
 ZBRENT: interpolating
 opt :   0.5695  next Energy=  -653.337798 (dE=-0.640E+00)
 bond charge predicted
       N       E                     dE             d eps       ncg     rms          rms(c)
DAV:   1    -0.646945355938E+03   -0.31650E-01   -0.23807E+00  3168   0.435E+00    0.539E-01
RMM:   2    -0.646958904835E+03   -0.13549E-01   -0.12799E-01  2992   0.816E-01    0.112E+00
RMM:   3    -0.646947100573E+03    0.11804E-01   -0.15746E-02  3298   0.239E-01    0.280E-01
RMM:   4    -0.646944917435E+03    0.21831E-02   -0.28333E-03  3125   0.101E-01    0.181E-01
RMM:   5    -0.646944302238E+03    0.61520E-03   -0.13356E-03  2945   0.731E-02    0.671E-02
RMM:   6    -0.646945421939E+03   -0.11197E-02   -0.19044E-04  2521   0.275E-02    0.281E-02
RMM:   7    -0.646946706700E+03   -0.12848E-02   -0.77199E-05  2180   0.129E-02    0.139E-02
RMM:   8    -0.646947522798E+03   -0.81610E-03   -0.41848E-05  2000   0.846E-03    0.570E-03
RMM:   9    -0.646947916442E+03   -0.39364E-03   -0.17465E-05  1803   0.489E-03    0.351E-03
RMM:  10    -0.646948104582E+03   -0.18814E-03   -0.79767E-06  1359   0.326E-03    0.196E-03
RMM:  11    -0.646948173787E+03   -0.69204E-04   -0.50653E-06  1236   0.271E-03    0.104E-03
RMM:  12    -0.646948178428E+03   -0.46409E-05   -0.17158E-06  1095   0.212E-03
   4 F= -.65334495E+03 E0= -.65332506E+03  d E =-.647602E+00  mag=    -1.5428
 Constraining cell:  1  0  0  |  1  1  0  |  0  0  0
 curvature:  -0.28 expect dE=-0.192E-01 dE for cont linesearch -0.195E-02
 ZBRENT: interpolating
 opt :   0.4459  next Energy=  -653.347559 (dE=-0.650E+00)
 bond charge predicted
       N       E                     dE             d eps       ncg     rms          rms(c)
DAV:   1    -0.646950894018E+03   -0.27202E-02   -0.23733E-01  3264   0.137E+00    0.171E-01
RMM:   2    -0.646952063432E+03   -0.11694E-02   -0.12479E-02  2996   0.256E-01    0.347E-01
RMM:   3    -0.646950931339E+03    0.11321E-02   -0.15243E-03  3274   0.742E-02    0.884E-02
RMM:   4    -0.646950629482E+03    0.30186E-03   -0.28577E-04  3022   0.321E-02    0.576E-02
RMM:   5    -0.646950525029E+03    0.10445E-03   -0.13659E-04  2764   0.236E-02    0.211E-02
RMM:   6    -0.646950714026E+03   -0.18900E-03   -0.18520E-05  1867   0.940E-03    0.904E-03
RMM:   7    -0.646950927757E+03   -0.21373E-03   -0.91094E-06  1782   0.524E-03    0.438E-03
RMM:   8    -0.646951061381E+03   -0.13362E-03   -0.53372E-06  1503   0.335E-03    0.198E-03
RMM:   9    -0.646951147764E+03   -0.86383E-04   -0.34283E-06  1230   0.248E-03    0.109E-03
RMM:  10    -0.646951178420E+03   -0.30656E-04   -0.15561E-06  1044   0.192E-03    0.675E-04
RMM:  11    -0.646951190163E+03   -0.11744E-04   -0.10609E-06   940   0.176E-03    0.359E-04
RMM:  12    -0.646951192259E+03   -0.20955E-05   -0.27928E-07   623   0.147E-03
   5 F= -.65334758E+03 E0= -.65332753E+03  d E =-.650239E+00  mag=    -1.5703
 Constraining cell:  1  0  0  |  1  1  0  |  0  0  0
 curvature:  -0.38 expect dE=-0.177E-01 dE for cont linesearch -0.619E-04
 trial: gam= 0.26739 g(F)=  0.330E-01 g(S)=  0.135E-01 ort =-0.562E-02 (trialstep = 0.889E+00)
 search vector abs. value=  0.574E-01
 bond charge predicted
       N       E                     dE             d eps       ncg     rms          rms(c)
DAV:   1    -0.646957949286E+03   -0.67591E-02   -0.24735E+00  3232   0.486E+00    0.792E-01
RMM:   2    -0.646983229596E+03   -0.25280E-01   -0.15725E-01  3029   0.830E-01    0.145E+00
RMM:   3    -0.646961268148E+03    0.21961E-01   -0.34178E-02  3136   0.324E-01    0.398E-01
RMM:   4    -0.646959788651E+03    0.14795E-02   -0.29605E-03  3185   0.107E-01    0.196E-01
RMM:   5    -0.646959338865E+03    0.44979E-03   -0.11710E-03  2956   0.746E-02    0.626E-02
RMM:   6    -0.646959458487E+03   -0.11962E-03   -0.11372E-04  2805   0.229E-02    0.294E-02
RMM:   7    -0.646959559844E+03   -0.10136E-03   -0.36005E-05  1964   0.108E-02    0.179E-02
RMM:   8    -0.646959623059E+03   -0.63215E-04   -0.76448E-06  1787   0.615E-03    0.107E-02
RMM:   9    -0.646959694286E+03   -0.71226E-04   -0.58964E-06  1778   0.496E-03    0.327E-03
RMM:  10    -0.646959707228E+03   -0.12942E-04   -0.13797E-06  1469   0.285E-03    0.186E-03
RMM:  11    -0.646959721263E+03   -0.14035E-04   -0.63983E-07  1015   0.193E-03    0.118E-03
RMM:  12    -0.646959738491E+03   -0.17228E-04   -0.17664E-06  1235   0.219E-03    0.962E-04
RMM:  13    -0.646959743622E+03   -0.51308E-05   -0.20170E-07   647   0.153E-03
   6 F= -.65336134E+03 E0= -.65334118E+03  d E =-.137581E-01  mag=    -1.5527
 Constraining cell:  1  0  0  |  1  1  0  |  0  0  0
 trial-energy change:   -0.013758  1 .order   -0.013585   -0.039974    0.012803
 step:   0.6767(harm=  0.6735)  dis= 0.00792  next Energy=  -653.362871 (dE=-0.153E-01)
 bond charge predicted
       N       E                     dE             d eps       ncg     rms          rms(c)
DAV:   1    -0.646962356707E+03   -0.26182E-02   -0.14162E-01  3352   0.116E+00    0.189E-01
RMM:   2    -0.646963786445E+03   -0.14297E-02   -0.89576E-03  3019   0.198E-01    0.344E-01
RMM:   3    -0.646962508830E+03    0.12776E-02   -0.19229E-03  3122   0.773E-02    0.903E-02
RMM:   4    -0.646962431655E+03    0.77175E-04   -0.16913E-04  2983   0.254E-02    0.478E-02
RMM:   5    -0.646962391594E+03    0.40062E-04   -0.70524E-05  2329   0.188E-02    0.146E-02
RMM:   6    -0.646962401193E+03   -0.95987E-05   -0.64900E-06  1770   0.687E-03
   7 F= -.65336283E+03 E0= -.65334270E+03  d E =-.152502E-01  mag=    -1.5561
 Constraining cell:  1  0  0  |  1  1  0  |  0  0  0
 curvature:  -0.43 expect dE=-0.596E-02 dE for cont linesearch -0.611E-08
 trial: gam= 0.22565 g(F)=  0.127E-01 g(S)=  0.123E-02 ort =-0.286E-04 (trialstep = 0.847E+00)
 search vector abs. value=  0.168E-01
 bond charge predicted
       N       E                     dE             d eps       ncg     rms          rms(c)
DAV:   1    -0.646966126950E+03   -0.37354E-02   -0.85271E-01  3336   0.286E+00    0.244E-01
RMM:   2    -0.646968408791E+03   -0.22818E-02   -0.31505E-02  3000   0.399E-01    0.159E-01
RMM:   3    -0.646968048684E+03    0.36011E-03   -0.25041E-03  3329   0.108E-01    0.193E-01
RMM:   4    -0.646967710961E+03    0.33772E-03   -0.70776E-04  3139   0.506E-02    0.776E-02
RMM:   5    -0.646967654441E+03    0.56521E-04   -0.18571E-04  2985   0.279E-02    0.328E-02
RMM:   6    -0.646967739108E+03   -0.84667E-04   -0.27078E-05  1881   0.125E-02    0.112E-02
RMM:   7    -0.646967814486E+03   -0.75378E-04   -0.74632E-06  1781   0.650E-03    0.508E-03
RMM:   8    -0.646967860853E+03   -0.46367E-04   -0.32292E-06  1768   0.392E-03    0.314E-03
RMM:   9    -0.646967895785E+03   -0.34932E-04   -0.19129E-06  1368   0.272E-03    0.123E-03
RMM:  10    -0.646967904734E+03   -0.89487E-05   -0.56623E-07   985   0.192E-03
   8 F= -.65336815E+03 E0= -.65334767E+03  d E =-.531593E-02  mag=    -1.5686
 Constraining cell:  1  0  0  |  1  1  0  |  0  0  0
 trial-energy change:   -0.005316  1 .order   -0.005280   -0.011747    0.001187
 step:   0.7689(harm=  0.7689)  dis= 0.00527  next Energy=  -653.368169 (dE=-0.533E-02)
 bond charge predicted
       N       E                     dE             d eps       ncg     rms          rms(c)
DAV:   1    -0.646967925253E+03   -0.29468E-04   -0.71566E-03  3408   0.262E-01    0.224E-02
RMM:   2    -0.646967944032E+03   -0.18779E-04   -0.26528E-04  2980   0.366E-02    0.147E-02
RMM:   3    -0.646967944204E+03   -0.17244E-06   -0.18617E-05  1833   0.100E-02
   9 F= -.65336821E+03 E0= -.65334776E+03  d E =-.537620E-02  mag=    -1.5681
 Constraining cell:  1  0  0  |  1  1  0  |  0  0  0
 curvature:  -0.47 expect dE=-0.280E-02 dE for cont linesearch -0.404E-07
 trial: gam= 0.44702 g(F)=  0.560E-02 g(S)=  0.427E-03 ort =-0.382E-04 (trialstep = 0.831E+00)
 search vector abs. value=  0.935E-02
 bond charge predicted
       N       E                     dE             d eps       ncg     rms          rms(c)
DAV:   1    -0.646969912304E+03   -0.19683E-02   -0.41802E-01  3304   0.200E+00    0.212E-01
RMM:   2    -0.646972025015E+03   -0.21127E-02   -0.17229E-02  3032   0.289E-01    0.362E-01
RMM:   3    -0.646970644369E+03    0.13806E-02   -0.24044E-03  3225   0.935E-02    0.105E-01
RMM:   4    -0.646970521766E+03    0.12260E-03   -0.28614E-04  3103   0.339E-02    0.563E-02
RMM:   5    -0.646970473260E+03    0.48506E-04   -0.10622E-04  2926   0.219E-02    0.205E-02
RMM:   6    -0.646970482690E+03   -0.94305E-05   -0.94955E-06  1787   0.758E-03
  10 F= -.65337015E+03 E0= -.65334930E+03  d E =-.193818E-02  mag=    -1.5696
 Constraining cell:  1  0  0  |  1  1  0  |  0  0  0
 trial-energy change:   -0.001938  1 .order   -0.001967   -0.004993    0.001059
 step:   0.6857(harm=  0.6857)  dis= 0.00211  next Energy=  -653.370271 (dE=-0.206E-02)
 bond charge predicted
       N       E                     dE             d eps       ncg     rms          rms(c)
DAV:   1    -0.646970462309E+03    0.10950E-04   -0.12778E-02  3312   0.350E-01    0.363E-02
RMM:   2    -0.646970527556E+03   -0.65247E-04   -0.50008E-04  3026   0.494E-02    0.599E-02
RMM:   3    -0.646970492109E+03    0.35447E-04   -0.65657E-05  1988   0.160E-02    0.189E-02
RMM:   4    -0.646970494898E+03   -0.27885E-05   -0.91602E-06  1738   0.782E-03
  11 F= -.65337027E+03 E0= -.65334949E+03  d E =-.205962E-02  mag=    -1.5693
 Constraining cell:  1  0  0  |  1  1  0  |  0  0  0
 curvature:  -0.53 expect dE=-0.110E-02 dE for cont linesearch -0.301E-06
 trial: gam= 0.35893 g(F)=  0.193E-02 g(S)=  0.141E-03 ort =-0.726E-04 (trialstep = 0.802E+00)
 search vector abs. value=  0.322E-02
 bond charge predicted
       N       E                     dE             d eps       ncg     rms          rms(c)
DAV:   1    -0.646971118994E+03   -0.62688E-03   -0.13647E-01  3120   0.108E+00    0.884E-02
RMM:   2    -0.646971406066E+03   -0.28707E-03   -0.39338E-03  2971   0.154E-01    0.105E-01
RMM:   3    -0.646971317828E+03    0.88237E-04   -0.37928E-04  3250   0.394E-02    0.557E-02
RMM:   4    -0.646971256332E+03    0.61496E-04   -0.72310E-05  2517   0.173E-02    0.317E-02
RMM:   5    -0.646971250806E+03    0.55255E-05   -0.34004E-05  1955   0.131E-02
  12 F= -.65337121E+03 E0= -.65335066E+03  d E =-.938859E-03  mag=    -1.5640
 Constraining cell:  1  0  0  |  1  1  0  |  0  0  0
 trial-energy change:   -0.000939  1 .order   -0.001033   -0.001639   -0.000426
 step:   1.0837(harm=  1.0837)  dis= 0.00239  next Energy=  -653.371378 (dE=-0.111E-02)
 reached required accuracy - stopping structural energy minimisation
