 vasp.5.4.4.18Apr17-6-g9f103f2a35 (build Nov  8 2022 18:58:45) complex           
 executed on             LinuxGNU date 2023.04.13  15:54:03
 running on   48 total cores
 distrk:  each k-point on   48 cores,    1 groups
 distr:  one band on NCORES_PER_BAND=  12 cores,    4 groups


--------------------------------------------------------------------------------------------------------


 INCAR:
 POTCAR:    PAW_PBE C 08Apr2002                   
 POTCAR:    PAW_PBE N 08Apr2002                   
 POTCAR:    PAW_PBE Ge_d 03Jul2007                
 POTCAR:    PAW_PBE C 08Apr2002                   
 POTCAR:    PAW_PBE O 08Apr2002                   
 POTCAR:    PAW_PBE C 08Apr2002                   
   SHA256 =  253f7b50bb8d59471dbedb8285d89021f4a42ed1a2c5d38a03a736e69125dd95 C/
   COPYR  = (c) Copyright 08Apr2002 Georg Kresse                                
   COPYR  = This file is part of the software VASP. Any use, copying, and all ot
   COPYR  = If you do not have a valid VASP license, you may not use, copy or di
   VRHFIN =C: s2p2                                                              
   LEXCH  = PE                                                                  
   EATOM  =   147.1560 eV,   10.8157 Ry                                         
                                                                                
   TITEL  = PAW_PBE C 08Apr2002                                                 
   LULTRA =        F    use ultrasoft PP ?                                      
   IUNSCR =        1    unscreen: 0-lin 1-nonlin 2-no                           
   RPACOR =    1.200    partial core radius                                     
   POMASS =   12.011; ZVAL   =    4.000    mass and valenz                      
   RCORE  =    1.500    outmost cutoff radius                                   
   RWIGS  =    1.630; RWIGS  =    0.863    wigner-seitz radius (au A)           
   ENMAX  =  400.000; ENMIN  =  300.000 eV                                      
   ICORE  =        2    local potential                                         
   LCOR   =        T    correct aug charges                                     
   LPAW   =        T    paw PP                                                  
   EAUG   =  644.873                                                            
   DEXC   =    0.000                                                            
   RMAX   =    1.529    core radius for proj-oper                               
   RAUG   =    1.300    factor for augmentation sphere                          
   RDEP   =    1.501    radius for radial grids                                 
   RDEPT  =    1.300    core radius for aug-charge                              
                                                                                
   Atomic configuration                                                         
    4 entries                                                                   
     n  l   j            E        occ.                                          
     1  0  0.50      -273.3789   2.0000                                         
     2  0  0.50       -13.7508   2.0000                                         
     2  1  0.50        -5.2854   2.0000                                         
     3  2  1.50        -5.4423   0.0000                                         
   Description                                                                  
     l       E           TYP  RCUT    TYP  RCUT                                 
     0    -13.7508458     23  1.200                                             
     0     -8.2022199     23  1.200                                             
     1     -5.2854383     23  1.500                                             
     1     34.0145650     23  1.500                                             
     2     -5.4423304      7  1.500                                             
  local pseudopotential read in
  partial core-charges read in
  partial kinetic energy density read in
  atomic valenz-charges read in
  non local Contribution for L=           0  read in
    real space projection operators read in
  non local Contribution for L=           0  read in
    real space projection operators read in
  non local Contribution for L=           1  read in
    real space projection operators read in
  non local Contribution for L=           1  read in
    real space projection operators read in
    PAW grid and wavefunctions read in

   number of l-projection  operators is LMAX  =           4
   number of lm-projection operators is LMMAX =           8

 POTCAR:    PAW_PBE N 08Apr2002                   
   SHA256 =  e053789ff3a61a86a1b75d8a110fcc91f86041011e7b0817c7c99e4e8a6349d7 N/
   COPYR  = (c) Copyright 08Apr2002 Georg Kresse                                
   COPYR  = This file is part of the software VASP. Any use, copying, and all ot
   COPYR  = If you do not have a valid VASP license, you may not use, copy or di
   VRHFIN =N: s2p3                                                              
   LEXCH  = PE                                                                  
   EATOM  =   264.5486 eV,   19.4438 Ry                                         
                                                                                
   TITEL  = PAW_PBE N 08Apr2002                                                 
   LULTRA =        F    use ultrasoft PP ?                                      
   IUNSCR =        1    unscreen: 0-lin 1-nonlin 2-no                           
   RPACOR =    1.200    partial core radius                                     
   POMASS =   14.001; ZVAL   =    5.000    mass and valenz                      
   RCORE  =    1.500    outmost cutoff radius                                   
   RWIGS  =    1.400; RWIGS  =    0.741    wigner-seitz radius (au A)           
   ENMAX  =  400.000; ENMIN  =  300.000 eV                                      
   ICORE  =        2    local potential                                         
   LCOR   =        T    correct aug charges                                     
   LPAW   =        T    paw PP                                                  
   EAUG   =  627.112                                                            
   DEXC   =    0.000                                                            
   RMAX   =    1.529    core radius for proj-oper                               
   RAUG   =    1.300    factor for augmentation sphere                          
   RDEP   =    1.514    radius for radial grids                                 
   RDEPT  =    1.338    core radius for aug-charge                              
                                                                                
   Atomic configuration                                                         
    4 entries                                                                   
     n  l   j            E        occ.                                          
     1  0  0.50      -384.7179   2.0000                                         
     2  0  0.50       -18.5828   2.0000                                         
     2  1  0.50        -7.0898   3.0000                                         
     3  2  1.50        -6.8029   0.0000                                         
   Description                                                                  
     l       E           TYP  RCUT    TYP  RCUT                                 
     0    -18.5828119     23  1.200                                             
     0    -13.5018863     23  1.200                                             
     1     -7.0897853     23  1.500                                             
     1      9.5240782     23  1.500                                             
     2     -6.8029130      7  1.500                                             
  local pseudopotential read in
  partial core-charges read in
  partial kinetic energy density read in
  atomic valenz-charges read in
  non local Contribution for L=           0  read in
    real space projection operators read in
  non local Contribution for L=           0  read in
    real space projection operators read in
  non local Contribution for L=           1  read in
    real space projection operators read in
  non local Contribution for L=           1  read in
    real space projection operators read in
    PAW grid and wavefunctions read in

   number of l-projection  operators is LMAX  =           4
   number of lm-projection operators is LMMAX =           8

 POTCAR:    PAW_PBE Ge_d 03Jul2007                
   SHA256 =  944b26c40d2d7c4f4eb1ff3a2e8dbfdd7129146276cd341854bfd5c0e57780ed Ge
   COPYR  = (c) Copyright 03Jul2007 Georg Kresse                                
   COPYR  = This file is part of the software VASP. Any use, copying, and all ot
   COPYR  = If you do not have a valid VASP license, you may not use, copy or di
   VRHFIN =Ge: 3d4s4p                                                           
   LEXCH  = PE                                                                  
   EATOM  =  2596.2402 eV,  190.8183 Ry                                         
                                                                                
   TITEL  = PAW_PBE Ge_d 03Jul2007                                              
   LULTRA =        F    use ultrasoft PP ?                                      
   IUNSCR =        1    unscreen: 0-lin 1-nonlin 2-no                           
   RPACOR =    2.000    partial core radius                                     
   POMASS =   72.610; ZVAL   =   14.000    mass and valenz                      
   RCORE  =    2.300    outmost cutoff radius                                   
   RWIGS  =    2.300; RWIGS  =    1.217    wigner-seitz radius (au A)           
   ENMAX  =  310.294; ENMIN  =  232.720 eV                                      
   ICORE  =        3    local potential                                         
   LCOR   =        T    correct aug charges                                     
   LPAW   =        T    paw PP                                                  
   EAUG   =  531.356                                                            
   DEXC   =    0.000                                                            
   RMAX   =    2.342    core radius for proj-oper                               
   RAUG   =    1.300    factor for augmentation sphere                          
   RDEP   =    2.318    radius for radial grids                                 
   RDEPT  =    1.783    core radius for aug-charge                              
                                                                                
   Atomic configuration                                                         
    9 entries                                                                   
     n  l   j            E        occ.                                          
     1  0  0.50    -10959.8463   2.0000                                         
     2  0  0.50     -1371.6056   2.0000                                         
     2  1  1.50     -1198.4791   6.0000                                         
     3  0  0.50      -168.4733   2.0000                                         
     3  1  1.50      -115.6019   6.0000                                         
     3  2  2.50       -29.3106  10.0000                                         
     4  0  0.50       -11.7309   2.0000                                         
     4  1  0.50        -3.8952   2.0000                                         
     4  3  2.50        -4.0817   0.0000                                         
   Description                                                                  
     l       E           TYP  RCUT    TYP  RCUT                                 
     2    -29.3105938     23  2.200                                             
     2    -13.6058260     23  2.200                                             
     0    -11.7309493     23  2.300                                             
     0     -7.4578696     23  2.300                                             
     1     -3.8952261     23  2.300                                             
     1      6.1178114     23  2.300                                             
     3     -1.3605826     23  2.300                                             
  local pseudopotential read in
  partial core-charges read in
  partial kinetic energy density read in
  atomic valenz-charges read in
  non local Contribution for L=           2  read in
    real space projection operators read in
  non local Contribution for L=           2  read in
    real space projection operators read in
  non local Contribution for L=           0  read in
    real space projection operators read in
  non local Contribution for L=           0  read in
    real space projection operators read in
  non local Contribution for L=           1  read in
    real space projection operators read in
  non local Contribution for L=           1  read in
    real space projection operators read in
    PAW grid and wavefunctions read in

   number of l-projection  operators is LMAX  =           6
   number of lm-projection operators is LMMAX =          18

 POTCAR:    PAW_PBE C 08Apr2002                   
   SHA256 =  253f7b50bb8d59471dbedb8285d89021f4a42ed1a2c5d38a03a736e69125dd95 C/
   COPYR  = (c) Copyright 08Apr2002 Georg Kresse                                
   COPYR  = This file is part of the software VASP. Any use, copying, and all ot
   COPYR  = If you do not have a valid VASP license, you may not use, copy or di
   VRHFIN =C: s2p2                                                              
   LEXCH  = PE                                                                  
   EATOM  =   147.1560 eV,   10.8157 Ry                                         
                                                                                
   TITEL  = PAW_PBE C 08Apr2002                                                 
   LULTRA =        F    use ultrasoft PP ?                                      
   IUNSCR =        1    unscreen: 0-lin 1-nonlin 2-no                           
   RPACOR =    1.200    partial core radius                                     
   POMASS =   12.011; ZVAL   =    4.000    mass and valenz                      
   RCORE  =    1.500    outmost cutoff radius                                   
   RWIGS  =    1.630; RWIGS  =    0.863    wigner-seitz radius (au A)           
   ENMAX  =  400.000; ENMIN  =  300.000 eV                                      
   ICORE  =        2    local potential                                         
   LCOR   =        T    correct aug charges                                     
   LPAW   =        T    paw PP                                                  
   EAUG   =  644.873                                                            
   DEXC   =    0.000                                                            
   RMAX   =    1.529    core radius for proj-oper                               
   RAUG   =    1.300    factor for augmentation sphere                          
   RDEP   =    1.501    radius for radial grids                                 
   RDEPT  =    1.300    core radius for aug-charge                              
                                                                                
   Atomic configuration                                                         
    4 entries                                                                   
     n  l   j            E        occ.                                          
     1  0  0.50      -273.3789   2.0000                                         
     2  0  0.50       -13.7508   2.0000                                         
     2  1  0.50        -5.2854   2.0000                                         
     3  2  1.50        -5.4423   0.0000                                         
   Description                                                                  
     l       E           TYP  RCUT    TYP  RCUT                                 
     0    -13.7508458     23  1.200                                             
     0     -8.2022199     23  1.200                                             
     1     -5.2854383     23  1.500                                             
     1     34.0145650     23  1.500                                             
     2     -5.4423304      7  1.500                                             
  local pseudopotential read in
  partial core-charges read in
  partial kinetic energy density read in
  atomic valenz-charges read in
  non local Contribution for L=           0  read in
    real space projection operators read in
  non local Contribution for L=           0  read in
    real space projection operators read in
  non local Contribution for L=           1  read in
    real space projection operators read in
  non local Contribution for L=           1  read in
    real space projection operators read in
    PAW grid and wavefunctions read in

   number of l-projection  operators is LMAX  =           4
   number of lm-projection operators is LMMAX =           8

 POTCAR:    PAW_PBE O 08Apr2002                   
   SHA256 =  818f92134a0a090dccd8ba1447fa70422a3b330e708bb4f08108d8ae51209ddf O/
   COPYR  = (c) Copyright 08Apr2002 Georg Kresse                                
   COPYR  = This file is part of the software VASP. Any use, copying, and all ot
   COPYR  = If you do not have a valid VASP license, you may not use, copy or di
   VRHFIN =O: s2p4                                                              
   LEXCH  = PE                                                                  
   EATOM  =   432.3788 eV,   31.7789 Ry                                         
                                                                                
   TITEL  = PAW_PBE O 08Apr2002                                                 
   LULTRA =        F    use ultrasoft PP ?                                      
   IUNSCR =        1    unscreen: 0-lin 1-nonlin 2-no                           
   RPACOR =    1.200    partial core radius                                     
   POMASS =   16.000; ZVAL   =    6.000    mass and valenz                      
   RCORE  =    1.520    outmost cutoff radius                                   
   RWIGS  =    1.550; RWIGS  =    0.820    wigner-seitz radius (au A)           
   ENMAX  =  400.000; ENMIN  =  300.000 eV                                      
   ICORE  =        2    local potential                                         
   LCOR   =        T    correct aug charges                                     
   LPAW   =        T    paw PP                                                  
   EAUG   =  605.392                                                            
   DEXC   =    0.000                                                            
   RMAX   =    1.553    core radius for proj-oper                               
   RAUG   =    1.300    factor for augmentation sphere                          
   RDEP   =    1.550    radius for radial grids                                 
   RDEPT  =    1.329    core radius for aug-charge                              
                                                                                
   Atomic configuration                                                         
    4 entries                                                                   
     n  l   j            E        occ.                                          
     1  0  0.50      -514.6923   2.0000                                         
     2  0  0.50       -23.9615   2.0000                                         
     2  1  0.50        -9.0305   4.0000                                         
     3  2  1.50        -9.5241   0.0000                                         
   Description                                                                  
     l       E           TYP  RCUT    TYP  RCUT                                 
     0    -23.9615318     23  1.200                                             
     0     -9.5240782     23  1.200                                             
     1     -9.0304911     23  1.520                                             
     1      8.1634956     23  1.520                                             
     2     -9.5240782      7  1.500                                             
  local pseudopotential read in
  partial core-charges read in
  partial kinetic energy density read in
  kinetic energy density of atom read in
  atomic valenz-charges read in
  non local Contribution for L=           0  read in
    real space projection operators read in
  non local Contribution for L=           0  read in
    real space projection operators read in
  non local Contribution for L=           1  read in
    real space projection operators read in
  non local Contribution for L=           1  read in
    real space projection operators read in
    PAW grid and wavefunctions read in

   number of l-projection  operators is LMAX  =           4
   number of lm-projection operators is LMMAX =           8


 ----------------------------------------------------------------------------- 
|                                                                             |
|  ADVICE TO THIS USER RUNNING 'VASP/VAMP'   (HEAR YOUR MASTER'S VOICE ...):  |
|                                                                             |
|      You have a (more or less) 'large supercell' and for larger cells       |
|      it might be more efficient to use real space projection opertators     |
|      So try LREAL= Auto  in the INCAR   file.                               |
|      Mind:          For very  accurate calculation you might also keep the  |
|      reciprocal projection scheme          (i.e. LREAL=.FALSE.)             |
|                                                                             |
 ----------------------------------------------------------------------------- 

  PAW_PBE C 08Apr2002                   :
 energy of atom  1       EATOM= -147.1560
 kinetic energy error for atom=    0.0132 (will be added to EATOM!!)
  PAW_PBE N 08Apr2002                   :
 energy of atom  2       EATOM= -264.5486
 kinetic energy error for atom=    0.0298 (will be added to EATOM!!)
  PAW_PBE Ge_d 03Jul2007                :
 energy of atom  3       EATOM=-2596.2402
 kinetic energy error for atom=    0.0090 (will be added to EATOM!!)
  PAW_PBE C 08Apr2002                   :
 energy of atom  4       EATOM= -147.1560
 kinetic energy error for atom=    0.0132 (will be added to EATOM!!)
  PAW_PBE O 08Apr2002                   :
 energy of atom  5       EATOM= -432.3788
 kinetic energy error for atom=    0.0458 (will be added to EATOM!!)


 POSCAR: POSCAR-c3n4                             
  positions in cartesian coordinates
  No initial velocities read in
 exchange correlation table for  LEXCH =        8
   RHO(1)=    0.500       N(1)  =     2000
   RHO(2)=  100.500       N(2)  =     4000



--------------------------------------------------------------------------------------------------------


 ion  position               nearest neighbor table
   1  0.106  0.214  0.436-  26 1.61  46 1.61  25 1.70
   2  0.288  0.399  0.443-  29 1.58  35 1.66  25 1.72
   3  0.104  0.392  0.437-  44 1.58  39 1.66  25 1.71
   4  0.447  0.064  0.516-  30 1.59  27 1.60  48 1.69
   5  0.453  0.401  0.422-  28 1.60  29 1.61  56 1.71
   6  0.112  0.053  0.459-  26 1.59  31 1.60  32 1.68
   7  0.096  0.712  0.494-  54 1.60  34 1.63  33 1.69
   8  0.284  0.890  0.511-  27 1.60  37 1.62  33 1.70
   9  0.109  0.895  0.508-  31 1.59  52 1.61  33 1.72
  10  0.448  0.548  0.512-  38 1.59  56 1.63  35 1.63
  11  0.445  0.885  0.499-  37 1.60  36 1.61  48 1.66
  12  0.087  0.542  0.491-  34 1.59  40 1.61  39 1.63
  13  0.616  0.223  0.483-  42 1.62  30 1.62  41 1.69
  14  0.780  0.390  0.410-  45 1.62  51 1.64  41 1.69
  15  0.610  0.394  0.445-  28 1.61  55 1.61  41 1.74
  16  0.940  0.052  0.471-  46 1.58  43 1.60  32 1.68
  17  0.941  0.387  0.404-  45 1.58  44 1.61  40 1.71
  18  0.623  0.066  0.522-  42 1.59  47 1.61  48 1.69
  19  0.613  0.711  0.541-  50 1.59  38 1.64  49 1.69
  20  0.790  0.897  0.533-  43 1.59  53 1.61  49 1.74
  21  0.609  0.892  0.531-  47 1.60  36 1.62  49 1.72
  22  0.938  0.563  0.430-  51 1.57  54 1.62  40 1.70
  23  0.954  0.902  0.545-  52 1.61  53 1.61  32 1.68
  24  0.621  0.555  0.500-  55 1.58  50 1.60  56 1.70
  25  0.167  0.335  0.435-   1 1.70   3 1.71   2 1.72
  26  0.165  0.161  0.431-   6 1.59   1 1.61
  27  0.336  0.002  0.532-   8 1.60   4 1.60
  28  0.512  0.352  0.402-   5 1.60  15 1.61
  29  0.345  0.361  0.400-   2 1.58   5 1.61
  30  0.506  0.177  0.503-   4 1.59  13 1.62
  31  0.159  0.988  0.457-   9 1.59   6 1.60
  32  0.002  0.002  0.493-  16 1.68  23 1.68   6 1.68
  33  0.165  0.831  0.510-   7 1.69   8 1.70   9 1.72
  34  0.134  0.645  0.528-  12 1.59   7 1.63
  35  0.334  0.491  0.501-  10 1.63   2 1.66
  36  0.503  0.831  0.500-  11 1.61  21 1.62
  37  0.333  0.829  0.489-  11 1.60   8 1.62
  38  0.499  0.648  0.555-  10 1.59  19 1.64
  39  0.142  0.484  0.495-  12 1.63   3 1.66
  40  0.988  0.496  0.446-  12 1.61  22 1.70  17 1.71
  41  0.667  0.330  0.439-  13 1.69  14 1.69  15 1.74
  42  0.680  0.178  0.505-  18 1.59  13 1.62
  43  0.827  0.986  0.478-  20 1.59  16 1.60
  44  0.011  0.348  0.389-   3 1.58  17 1.61
  45  0.830  0.330  0.389-  17 1.58  14 1.62
  46  0.993  0.161  0.445-  16 1.58   1 1.61
  47  0.669  0.005  0.549-  21 1.60  18 1.61
  48  0.505  0.004  0.508-  11 1.66  18 1.69   4 1.69
  49  0.668  0.832  0.544-  19 1.69  21 1.72  20 1.74
  50  0.675  0.666  0.522-  19 1.59  24 1.60
  51  0.832  0.507  0.406-  22 1.57  14 1.64
  52  0.016  0.853  0.559-  23 1.61   9 1.61
  53  0.849  0.860  0.576-  20 1.61  23 1.61
  54  0.004  0.677  0.444-   7 1.60  22 1.62
  55  0.668  0.491  0.494-  24 1.58  15 1.61
  56  0.506  0.502  0.477-  10 1.63  24 1.70   5 1.71
  57  0.287  0.593  0.568-
  58  0.287  0.593  0.966-  59 1.39
  59  0.232  0.530  0.023-  58 1.39


IMPORTANT INFORMATION: All symmetrisations will be switched off!
NOSYMM: (Re-)initialisation of all symmetry stuff for point group C_1.



 KPOINTS: K-Points                                

Automatic generation of k-mesh.
Space group operators:
 irot       det(A)        alpha          n_x          n_y          n_z        tau_x        tau_y        tau_z
    1     1.000000     0.000000     1.000000     0.000000     0.000000     0.000000     0.000000     0.000000
 
 Subroutine IBZKPT returns following result:
 ===========================================
 
 Found      5 irreducible k-points:
 
 Following reciprocal coordinates:
            Coordinates               Weight
  0.000000  0.000000  0.000000      1.000000
  0.333333  0.000000  0.000000      2.000000
  0.000000  0.333333  0.000000      2.000000
  0.333333  0.333333  0.000000      2.000000
 -0.333333  0.333333  0.000000      2.000000
 
 Following cartesian coordinates:
            Coordinates               Weight
  0.000000  0.000000  0.000000      1.000000
  0.024277  0.014368  0.000000      2.000000
  0.000396  0.028736  0.000000      2.000000
  0.024673  0.043104  0.000000      2.000000
 -0.023881  0.014368  0.000000      2.000000
 
 TETIRR: Found     24 inequivalent tetrahedra from       54


--------------------------------------------------------------------------------------------------------




 Dimension of arrays:
   k-points           NKPTS =      5   k-points in BZ     NKDIM =      5   number of bands    NBANDS=    172
   number of dos      NEDOS =   4000   number of ions     NIONS =     59
   non local maximal  LDIM  =      6   non local SUM 2l+1 LMDIM =     18
   total plane-waves  NPLWV = 725760
   max r-space proj   IRMAX =      1   max aug-charges    IRDMAX=   6063
   dimension x,y,z NGX =    90 NGY =   84 NGZ =   96
   dimension x,y,z NGXF=   180 NGYF=  168 NGZF=  192
   support grid    NGXF=   180 NGYF=  168 NGZF=  192
   ions per type =              24  32   1   1   1
   NGX,Y,Z   is equivalent  to a cutoff of   9.01,  8.56,  8.87 a.u.
   NGXF,Y,Z  is equivalent  to a cutoff of  18.01, 17.13, 17.73 a.u.

 SYSTEM =  unknown system                          
 POSCAR =  POSCAR-c3n4                             

 Startparameter for this run:
   NWRITE =      2    write-flag & timer
   PREC   = normal    normal or accurate (medium, high low for compatibility)
   ISTART =      0    job   : 0-new  1-cont  2-samecut
   ICHARG =      2    charge: 1-file 2-atom 10-const
   ISPIN  =      2    spin polarized calculation?
   LNONCOLLINEAR =      F non collinear calculations
   LSORBIT =      F    spin-orbit coupling
   INIWAV =      1    electr: 0-lowe 1-rand  2-diag
   LASPH  =      F    aspherical Exc in radial PAW
   METAGGA=      F    non-selfconsistent MetaGGA calc.

 Electronic Relaxation 1
   ENCUT  =  440.0 eV  32.34 Ry    5.69 a.u.  28.42 27.89 30.79*2*pi/ulx,y,z
   ENINI  =  440.0     initial cutoff
   ENAUG  =  644.9 eV  augmentation charge cutoff
   NELM   =    100;   NELMIN=  2; NELMDL= -5     # of ELM steps 
   EDIFF  = 0.1E-03   stopping-criterion for ELM
   LREAL  =      F    real-space projection
   NLSPLINE    = F    spline interpolate recip. space projectors
   LCOMPAT=      F    compatible to vasp.4.4
   GGA_COMPAT  = T    GGA compatible to vasp.4.4-vasp.4.6
   LMAXPAW     = -100 max onsite density
   LMAXMIX     =    2 max onsite mixed and CHGCAR
   VOSKOWN=      0    Vosko Wilk Nusair interpolation
   ROPT   =    0.00000   0.00000   0.00000   0.00000
   ROPT   =    0.00000
 Ionic relaxation
   EDIFFG = -.1E-01   stopping-criterion for IOM
   NSW    =      0    number of steps for IOM
   NBLOCK =      1;   KBLOCK =      1    inner block; outer block 
   IBRION =     -1    ionic relax: 0-MD 1-quasi-New 2-CG
   NFREE  =      0    steps in history (QN), initial steepest desc. (CG)
   ISIF   =      2    stress and relaxation
   IWAVPR =     10    prediction:  0-non 1-charg 2-wave 3-comb
   ISYM   =      0    0-nonsym 1-usesym 2-fastsym
   LCORR  =      T    Harris-Foulkes like correction to forces

   POTIM  = 0.5000    time-step for ionic-motion
   TEIN   =    0.0    initial temperature
   TEBEG  =    0.0;   TEEND  =   0.0 temperature during run
   SMASS  =  -3.00    Nose mass-parameter (am)
   estimated Nose-frequenzy (Omega)   =  0.10E-29 period in steps =****** mass=  -0.631E-26a.u.
   SCALEE = 1.0000    scale energy and forces
   NPACO  =    256;   APACO  = 16.0  distance and # of slots for P.C.
   PSTRESS=    0.0 pullay stress

  Mass of Ions in am
   POMASS =  12.01 14.00 72.61 12.01 16.00
  Ionic Valenz
   ZVAL   =   4.00  5.00 14.00  4.00  6.00
  Atomic Wigner-Seitz radii
   RWIGS  =  -1.00 -1.00 -1.00 -1.00 -1.00
  virtual crystal weights 
   VCA    =   1.00  1.00  1.00  1.00  1.00
   NELECT =     280.0000    total number of electrons
   NUPDOWN=      -1.0000    fix difference up-down

 DOS related values:
   EMIN   = -14.00;   EMAX   =  6.00  energy-range for DOS
   EFERMI =   0.00
   ISMEAR =    -5;   SIGMA  =   0.20  broadening in eV -4-tet -1-fermi 0-gaus

 Electronic relaxation 2 (details)
   IALGO  =     38    algorithm
   LDIAG  =      T    sub-space diagonalisation (order eigenvalues)
   LSUBROT=      F    optimize rotation matrix (better conditioning)
   TURBO    =      0    0=normal 1=particle mesh
   IRESTART =      0    0=no restart 2=restart with 2 vectors
   NREBOOT  =      0    no. of reboots
   NMIN     =      0    reboot dimension
   EREF     =   0.00    reference energy to select bands
   IMIX   =      4    mixing-type and parameters
     AMIX     =   0.25;   BMIX     =  0.00
     AMIX_MAG =   1.00;   BMIX_MAG =  0.00
     AMIN     =   0.10
     WC   =   100.;   INIMIX=   1;  MIXPRE=   1;  MAXMIX= -45

 Intra band minimization:
   WEIMIN = 0.0000     energy-eigenvalue tresh-hold
   EBREAK =  0.15E-06  absolut break condition
   DEPER  =   0.30     relativ break condition  

   TIME   =   0.40     timestep for ELM

  volume/ion in A,a.u.               =      70.55       476.07
  Fermi-wavevector in a.u.,A,eV,Ry     =   0.665811  1.258200  6.031519  0.443304
  Thomas-Fermi vector in A             =   1.739920

 Write flags
   LWAVE        =      F    write WAVECAR
   LDOWNSAMPLE  =      F    k-point downsampling of WAVECAR
   LCHARG       =      F    write CHGCAR
   LVTOT        =      F    write LOCPOT, total local potential
   LVHAR        =      F    write LOCPOT, Hartree potential only
   LELF         =      F    write electronic localiz. function (ELF)
   LORBIT       =     11    0 simple, 1 ext, 2 COOP (PROOUT), +10 PAW based schemes


 Dipole corrections
   LMONO  =      F    monopole corrections only (constant potential shift)
   LDIPOL =      F    correct potential (dipole corrections)
   IDIPOL =      0    1-x, 2-y, 3-z, 4-all directions 
   EPSILON=  1.0000000 bulk dielectric constant

 Exchange correlation treatment:
   GGA     =    --    GGA type
   LEXCH   =     8    internal setting for exchange type
   VOSKOWN=      0    Vosko Wilk Nusair interpolation
   LHFCALC =     F    Hartree Fock is set to
   LHFONE  =     F    Hartree Fock one center treatment
   AEXX    =    0.0000 exact exchange contribution

 Linear response parameters
   LEPSILON=     F    determine dielectric tensor
   LRPA    =     F    only Hartree local field effects (RPA)
   LNABLA  =     F    use nabla operator in PAW spheres
   LVEL    =     F    velocity operator in full k-point grid
   LINTERFAST=   F  fast interpolation
   KINTER  =     0    interpolate to denser k-point grid
   CSHIFT  =0.1000    complex shift for real part using Kramers Kronig
   OMEGAMAX=  -1.0    maximum frequency
   DEG_THRESHOLD= 0.2000000E-02 threshold for treating states as degnerate
   RTIME   =   -0.100 relaxation time in fs
  (WPLASMAI=    0.000 imaginary part of plasma frequency in eV, 0.658/RTIME)
   DFIELD  = 0.0000000 0.0000000 0.0000000 field for delta impulse in time

 Orbital magnetization related:
   ORBITALMAG=     F  switch on orbital magnetization
   LCHIMAG   =     F  perturbation theory with respect to B field
   DQ        =  0.001000  dq finite difference perturbation B field
   LLRAUG    =     F  two centre corrections for induced B field



--------------------------------------------------------------------------------------------------------


 Static calculation
 charge density and potential will be updated during run
 spin polarized calculation
 Variant of blocked Davidson
 Davidson routine will perform the subspace rotation
 perform sub-space diagonalisation
    after iterative eigenvector-optimisation
 modified Broyden-mixing scheme, WC =      100.0
 initial mixing is a Kerker type mixing with AMIX =  0.2500 and BMIX =      0.0001
 Hartree-type preconditioning will be used
 using additional bands           32
 reciprocal scheme for non local part
 use partial core corrections
 calculate Harris-corrections to forces   (improved forces if not selfconsistent)
 use gradient corrections 
 use of overlap-Matrix (Vanderbilt PP)
 Fermi weights with tetrahedron method with Bloechl corrections


--------------------------------------------------------------------------------------------------------


  energy-cutoff  :      440.00
  volume of cell :     4162.27
      direct lattice vectors                 reciprocal lattice vectors
    16.612109082 -0.228888569  0.000000000     0.060691974  0.035920095 -0.000000000
    -8.306054541 14.034229193  0.000000000     0.000989844  0.071840191 -0.000000000
     0.000000000  0.000000000 18.000000000    -0.000000000 -0.000000000  0.055555556

  length of vectors
    16.613685868 16.307977528 18.000000000     0.070524953  0.071847009  0.055555556



 k-points in units of 2pi/SCALE and weight: K-Points                                
   0.00000000  0.00000000  0.00000000       0.111
   0.02427679  0.01436804  0.00000000       0.222
   0.00039594  0.02873608  0.00000000       0.222
   0.02467273  0.04310411  0.00000000       0.222
  -0.02388085  0.01436804  0.00000000       0.222

 k-points in reciprocal lattice and weights: K-Points                                
   0.00000000  0.00000000  0.00000000       0.111
   0.33333333  0.00000000  0.00000000       0.222
   0.00000000  0.33333333  0.00000000       0.222
   0.33333333  0.33333333  0.00000000       0.222
  -0.33333333  0.33333333  0.00000000       0.222

 position of ions in fractional coordinates (direct lattice) 
   0.10567936  0.21351909  0.43638452
   0.28750403  0.39866334  0.44307848
   0.10379301  0.39177313  0.43720774
   0.44732828  0.06383887  0.51561413
   0.45258916  0.40124889  0.42244582
   0.11203481  0.05273921  0.45860169
   0.09638015  0.71191070  0.49382164
   0.28433946  0.89006364  0.51112159
   0.10941441  0.89537413  0.50804572
   0.44792521  0.54827090  0.51182417
   0.44544784  0.88520183  0.49889037
   0.08690842  0.54210436  0.49059155
   0.61614813  0.22292684  0.48262487
   0.78023735  0.38968276  0.40980308
   0.61037743  0.39432339  0.44538198
   0.93951642  0.05229783  0.47062057
   0.94071854  0.38652888  0.40380040
   0.62278394  0.06558106  0.52195204
   0.61322902  0.71118454  0.54116914
   0.78984871  0.89727295  0.53280047
   0.60944297  0.89248269  0.53124739
   0.93832005  0.56283419  0.43042990
   0.95436023  0.90171878  0.54458488
   0.62130548  0.55465507  0.49978063
   0.16668926  0.33545237  0.43494871
   0.16473950  0.16097029  0.43087242
   0.33626584  0.00180669  0.53207802
   0.51175722  0.35246859  0.40230650
   0.34471728  0.36074551  0.39967324
   0.50565751  0.17673507  0.50307206
   0.15873210  0.98821904  0.45657691
   0.00214731  0.00186372  0.49276218
   0.16462634  0.83083069  0.51017993
   0.13400723  0.64526801  0.52770834
   0.33371346  0.49116238  0.50147098
   0.50288345  0.83078126  0.49964378
   0.33307237  0.82932770  0.48929409
   0.49902190  0.64803204  0.55475412
   0.14173676  0.48364631  0.49503647
   0.98839512  0.49595573  0.44590834
   0.66736443  0.33015381  0.43923807
   0.67970142  0.17802103  0.50515807
   0.82720183  0.98622484  0.47776955
   0.01097216  0.34809993  0.38872280
   0.83047981  0.33016544  0.38944898
   0.99296173  0.16101876  0.44505124
   0.66886761  0.00524437  0.54940128
   0.50484899  0.00388347  0.50822952
   0.66830364  0.83227641  0.54411956
   0.67536455  0.66551462  0.52238502
   0.83211404  0.50666912  0.40566699
   0.01584380  0.85299492  0.55859758
   0.84924332  0.85956436  0.57597004
   0.00424175  0.67726383  0.44447513
   0.66753141  0.49127771  0.49374111
   0.50565566  0.50179634  0.47708161
   0.28676550  0.59288202  0.56771515
   0.28676550  0.59288202  0.96638181
   0.23209909  0.52992702  0.02273763

 position of ions in cartesian coordinates  (Angst):
  -0.01794409  2.97238699  7.85492129
   1.46472881  5.52912628  7.97541260
  -1.52986827  5.47447688  7.86973923
   6.90081707  0.79354096  9.28105434
   4.18566523  5.52762644  7.60402484
   1.42307974  0.71451072  8.25483034
  -4.31209157  9.96905764  8.88878945
  -2.66943905 12.42627505  9.20018857
  -5.61942233 12.54084207  9.14482301
   2.88701451  7.59203452  9.21283510
   0.04729347 12.32116747  8.98002665
  -3.05901632  7.58812455  8.83064792
   8.38387745  2.98757712  8.68724769
   9.72466165  5.29030980  7.37645551
   6.86438479  5.39431646  8.01687559
  15.17296070  0.51891513  8.47117020
  12.41678908  5.20931521  7.26840713
   9.80103488  0.77783144  9.39513675
   4.27988985  9.84056576  9.74104456
   5.66825483 12.41174693  9.59040845
   2.71112316 12.38581203  9.56245296
  10.91254352  7.68417334  7.74773829
   8.36421080 12.43648591  9.80252781
   5.71419919  7.64194670  8.99605135
  -0.01722551  4.66966221  7.82907682
   1.39964260  2.22138691  7.75570362
   5.57107829 -0.05161194  9.57740438
   5.57374351  4.82948956  7.24151698
   2.73010914  4.98388334  7.19411828
   6.93206651  2.36460132  9.05529712
  -5.57132638 13.83256056  8.21838433
   0.02019121  0.02566437  8.86971920
  -4.16613420 11.62238720  9.18323869
  -3.13348856  9.02516639  9.49875014
   1.46406296  6.81670217  9.02647771
   1.45344031 11.54427027  8.99358803
  -1.35540659 11.56273854  8.80729357
   2.90721678  8.98040977  9.98557410
  -1.66264612  6.75516118  8.91065639
  12.29989224  6.73412408  8.02635015
   8.34405516  4.48070219  7.90628519
   9.81262181  2.34281203  9.09284533
   5.54992979 13.65156838  8.59985194
  -2.70906629  4.88280273  6.99701048
  11.05364900  4.44353012  7.01008155
  15.15775790  2.03249658  8.01092232
  11.06774179 -0.07949551  9.88922305
   8.35435021 -0.06105266  9.14813143
   4.18899980 11.52739079  9.79415205
   5.69142879  9.18540150  9.40293041
   9.61474779  6.92024920  7.30200589
  -6.82182346 11.96749977 10.05475638
   6.96813420 11.86894121 10.36746079
  -5.55492596  9.50390497  8.00055243
   7.00852506  6.74191369  8.88734001
   4.23205918  6.92658610  8.58746901
  -0.16073066  8.25500487 10.21887266
  -0.16073066  8.25500487 17.39487266
  -0.54594740  7.38399244  0.40927728



--------------------------------------------------------------------------------------------------------


 k-point  1 :   0.0000 0.0000 0.0000  plane waves:   87267
 k-point  2 :   0.3333 0.0000 0.0000  plane waves:   87219
 k-point  3 :   0.0000 0.3333 0.0000  plane waves:   87239
 k-point  4 :   0.3333 0.3333 0.0000  plane waves:   87203
 k-point  5 :  -0.3333 0.3333 0.0000  plane waves:   87233

 maximum and minimum number of plane-waves per node :      7296     7250

 maximum number of plane-waves:     87267
 maximum index in each direction: 
   IXMAX=   28   IYMAX=   27   IZMAX=   30
   IXMIN=  -28   IYMIN=  -28   IZMIN=  -30


 parallel 3D FFT for wavefunctions:
    minimum data exchange during FFTs selected (reduces bandwidth)
 parallel 3D FFT for charge:
    minimum data exchange during FFTs selected (reduces bandwidth)


 total amount of memory used by VASP MPI-rank0   138718. kBytes
=======================================================================

   base      :      30000. kBytes
   nonl-proj :      33098. kBytes
   fftplans  :       6275. kBytes
   grid      :      18719. kBytes
   one-center:        155. kBytes
   wavefun   :      50471. kBytes

     INWAV:  cpu time    0.0000: real time    0.0000
 Broyden mixing: mesh for mixing (old mesh)
   NGX = 57   NGY = 55   NGZ = 61
  (NGX  =180   NGY  =168   NGZ  =192)
  gives a total of 191235 points

 initial charge density was supplied:
 charge density of overlapping atoms calculated
 number of electron     280.0000000 magnetization       2.0000000
 keeping initial charge density in first step


--------------------------------------------------------------------------------------------------------


 Maximum index for augmentation-charges          311 (set IRDMAX)


--------------------------------------------------------------------------------------------------------


 First call to EWALD:  gamma=   0.110
 Maximum number of real-space cells 3x 3x 3
 Maximum number of reciprocal cells 3x 3x 3

    FEWALD:  cpu time    0.0039: real time    0.0039


--------------------------------------- Iteration      1(   1)  ---------------------------------------


    POTLOK:  cpu time    0.2407: real time    0.2512
    SETDIJ:  cpu time    0.0105: real time    0.0106
     EDDAV:  cpu time   22.0802: real time   22.0824
 BZINTS: Fermi energy:  6.643841;280.000000 electrons
         Band energy:***********;  BLOECHL correction: -0.013892
       DOS:  cpu time    0.0554: real time    0.0554
    --------------------------------------------
      LOOP:  cpu time   22.3868: real time   22.3995

 eigenvalue-minimisations  :  3968
 total energy-change (2. order) : 0.2369074E+04  (-0.8903715E+04)
 number of electron     280.0000000 magnetization       2.0000000
 augmentation part      280.0000000 magnetization       2.0000000

 Free energy of the ion-electron system (eV)
  ---------------------------------------------------
  alpha Z        PSCENC =        89.52339426
  Ewald energy   TEWEN  =     21455.03462433
  -Hartree energ DENC   =    -33791.57244700
  -exchange      EXHF   =         0.00000000
  -V(xc)+E(xc)   XCENC  =      1006.57976034
  PAW double counting   =     11453.83848114   -11942.90478952
  entropy T*S    EENTRO =         0.00000000
  eigenvalues    EBANDS =     -1073.16095051
  atomic energy  EATOM  =     15171.73615219
  Solvation  Ediel_sol  =         0.00000000
  ---------------------------------------------------
  free energy    TOTEN  =      2369.07422522 eV

  energy without entropy =     2369.07422522  energy(sigma->0) =     2369.07422522


--------------------------------------------------------------------------------------------------------




--------------------------------------- Iteration      1(   2)  ---------------------------------------


     EDDAV:  cpu time   26.8394: real time   26.8418
 BZINTS: Fermi energy: -0.551599;280.000000 electrons
         Band energy:***********;  BLOECHL correction:  0.000000
       DOS:  cpu time    0.0186: real time    0.0186
    --------------------------------------------
      LOOP:  cpu time   26.8581: real time   26.8604

 eigenvalue-minimisations  :  5080
 total energy-change (2. order) :-0.2141775E+04  (-0.2048284E+04)
 number of electron     280.0000000 magnetization       2.0000000
 augmentation part      280.0000000 magnetization       2.0000000

 Free energy of the ion-electron system (eV)
  ---------------------------------------------------
  alpha Z        PSCENC =        89.52339426
  Ewald energy   TEWEN  =     21455.03462433
  -Hartree energ DENC   =    -33791.57244700
  -exchange      EXHF   =         0.00000000
  -V(xc)+E(xc)   XCENC  =      1006.57976034
  PAW double counting   =     11453.83848114   -11942.90478952
  entropy T*S    EENTRO =         0.00000000
  eigenvalues    EBANDS =     -3214.93547069
  atomic energy  EATOM  =     15171.73615219
  Solvation  Ediel_sol  =         0.00000000
  ---------------------------------------------------
  free energy    TOTEN  =       227.29970504 eV

  energy without entropy =      227.29970504  energy(sigma->0) =      227.29970504


--------------------------------------------------------------------------------------------------------




--------------------------------------- Iteration      1(   3)  ---------------------------------------


     EDDAV:  cpu time   23.2228: real time   23.2395
 BZINTS: Fermi energy: -3.782234;280.000000 electrons
         Band energy:***********;  BLOECHL correction: -0.011831
       DOS:  cpu time    0.0291: real time    0.0290
    --------------------------------------------
      LOOP:  cpu time   23.2518: real time   23.2686

 eigenvalue-minimisations  :  4240
 total energy-change (2. order) :-0.6155330E+03  (-0.6089637E+03)
 number of electron     280.0000000 magnetization       2.0000000
 augmentation part      280.0000000 magnetization       2.0000000

 Free energy of the ion-electron system (eV)
  ---------------------------------------------------
  alpha Z        PSCENC =        89.52339426
  Ewald energy   TEWEN  =     21455.03462433
  -Hartree energ DENC   =    -33791.57244700
  -exchange      EXHF   =         0.00000000
  -V(xc)+E(xc)   XCENC  =      1006.57976034
  PAW double counting   =     11453.83848114   -11942.90478952
  entropy T*S    EENTRO =         0.00000000
  eigenvalues    EBANDS =     -3830.46846616
  atomic energy  EATOM  =     15171.73615219
  Solvation  Ediel_sol  =         0.00000000
  ---------------------------------------------------
  free energy    TOTEN  =      -388.23329043 eV

  energy without entropy =     -388.23329043  energy(sigma->0) =     -388.23329043


--------------------------------------------------------------------------------------------------------




--------------------------------------- Iteration      1(   4)  ---------------------------------------


     EDDAV:  cpu time   23.5353: real time   23.5393
 BZINTS: Fermi energy: -4.283448;280.000000 electrons
         Band energy:***********;  BLOECHL correction: -0.002423
       DOS:  cpu time    0.0286: real time    0.0286
    --------------------------------------------
      LOOP:  cpu time   23.5638: real time   23.5679

 eigenvalue-minimisations  :  4288
 total energy-change (2. order) :-0.3708763E+02  (-0.3581740E+02)
 number of electron     280.0000000 magnetization       2.0000000
 augmentation part      280.0000000 magnetization       2.0000000

 Free energy of the ion-electron system (eV)
  ---------------------------------------------------
  alpha Z        PSCENC =        89.52339426
  Ewald energy   TEWEN  =     21455.03462433
  -Hartree energ DENC   =    -33791.57244700
  -exchange      EXHF   =         0.00000000
  -V(xc)+E(xc)   XCENC  =      1006.57976034
  PAW double counting   =     11453.83848114   -11942.90478952
  entropy T*S    EENTRO =         0.00000000
  eigenvalues    EBANDS =     -3867.55609624
  atomic energy  EATOM  =     15171.73615219
  Solvation  Ediel_sol  =         0.00000000
  ---------------------------------------------------
  free energy    TOTEN  =      -425.32092051 eV

  energy without entropy =     -425.32092051  energy(sigma->0) =     -425.32092051


--------------------------------------------------------------------------------------------------------




--------------------------------------- Iteration      1(   5)  ---------------------------------------


     EDDAV:  cpu time   26.9745: real time   26.9864
 BZINTS: Fermi energy: -4.324950;280.000000 electrons
         Band energy:***********;  BLOECHL correction: -0.001071
       DOS:  cpu time    0.0287: real time    0.0287
    CHARGE:  cpu time    0.4459: real time    0.4459
    MIXING:  cpu time    0.0072: real time    0.0072
    --------------------------------------------
      LOOP:  cpu time   27.4562: real time   27.4682

 eigenvalue-minimisations  :  5128
 total energy-change (2. order) :-0.2246538E+01  (-0.2208269E+01)
 number of electron     280.0000060 magnetization       0.0120050
 augmentation part       16.4560713 magnetization       0.0416922

 Broyden mixing:
  rms(total) = 0.31773E+01    rms(broyden)= 0.31729E+01
  rms(prec ) = 0.35123E+01
  weight for this iteration     100.00

 Free energy of the ion-electron system (eV)
  ---------------------------------------------------
  alpha Z        PSCENC =        89.52339426
  Ewald energy   TEWEN  =     21455.03462433
  -Hartree energ DENC   =    -33791.57244700
  -exchange      EXHF   =         0.00000000
  -V(xc)+E(xc)   XCENC  =      1006.57976034
  PAW double counting   =     11453.83848114   -11942.90478952
  entropy T*S    EENTRO =         0.00000000
  eigenvalues    EBANDS =     -3869.80263395
  atomic energy  EATOM  =     15171.73615219
  Solvation  Ediel_sol  =         0.00000000
  ---------------------------------------------------
  free energy    TOTEN  =      -427.56745822 eV

  energy without entropy =     -427.56745822  energy(sigma->0) =     -427.56745822


--------------------------------------------------------------------------------------------------------




--------------------------------------- Iteration      1(   6)  ---------------------------------------


    POTLOK:  cpu time    0.2188: real time    0.2254
    SETDIJ:  cpu time    0.0112: real time    0.0112
     EDDAV:  cpu time   25.0062: real time   25.0106
 BZINTS: Fermi energy: -4.661415;280.000000 electrons
         Band energy:***********;  BLOECHL correction:  0.000000
       DOS:  cpu time    0.0182: real time    0.0182
    CHARGE:  cpu time    0.4508: real time    0.4508
    MIXING:  cpu time    0.0066: real time    0.0066
    --------------------------------------------
      LOOP:  cpu time   25.7118: real time   25.7227

 eigenvalue-minimisations  :  4712
 total energy-change (2. order) : 0.1668626E+02  (-0.7793649E+01)
 number of electron     280.0000053 magnetization       0.0009314
 augmentation part       14.8221511 magnetization       0.0150028

 Broyden mixing:
  rms(total) = 0.17491E+01    rms(broyden)= 0.17478E+01
  rms(prec ) = 0.18526E+01
  weight for this iteration     100.00

 eigenvalues of (default mixing * dielectric matrix)
  average eigenvalue GAMMA=   0.9615
  0.9615

 Free energy of the ion-electron system (eV)
  ---------------------------------------------------
  alpha Z        PSCENC =        89.52339426
  Ewald energy   TEWEN  =     21455.03462433
  -Hartree energ DENC   =    -33887.06899432
  -exchange      EXHF   =         0.00000000
  -V(xc)+E(xc)   XCENC  =      1014.72763778
  PAW double counting   =     12940.53995158   -13428.47146435
  entropy T*S    EENTRO =         0.00000000
  eigenvalues    EBANDS =     -3766.90250284
  atomic energy  EATOM  =     15171.73615219
  Solvation  Ediel_sol  =         0.00000000
  ---------------------------------------------------
  free energy    TOTEN  =      -410.88120137 eV

  energy without entropy =     -410.88120137  energy(sigma->0) =     -410.88120137


--------------------------------------------------------------------------------------------------------




--------------------------------------- Iteration      1(   7)  ---------------------------------------


    POTLOK:  cpu time    0.2066: real time    0.2174
    SETDIJ:  cpu time    0.0107: real time    0.0107
     EDDAV:  cpu time   23.7262: real time   23.7292
 BZINTS: Fermi energy: -4.695174;280.000000 electrons
         Band energy:***********;  BLOECHL correction:  0.000000
       DOS:  cpu time    0.0180: real time    0.0191
    CHARGE:  cpu time    0.4257: real time    0.4258
    MIXING:  cpu time    0.0065: real time    0.0065
    --------------------------------------------
      LOOP:  cpu time   24.3937: real time   24.4087

 eigenvalue-minimisations  :  4336
 total energy-change (2. order) : 0.3026882E+00  (-0.1697296E+01)
 number of electron     280.0000051 magnetization      -0.0006273
 augmentation part       15.0347204 magnetization       0.0110196

 Broyden mixing:
  rms(total) = 0.12954E+01    rms(broyden)= 0.12950E+01
  rms(prec ) = 0.14113E+01
  weight for this iteration     100.00

 eigenvalues of (default mixing * dielectric matrix)
  average eigenvalue GAMMA=   1.1070
  0.8451  1.3688

 Free energy of the ion-electron system (eV)
  ---------------------------------------------------
  alpha Z        PSCENC =        89.52339426
  Ewald energy   TEWEN  =     21455.03462433
  -Hartree energ DENC   =    -33922.64223556
  -exchange      EXHF   =         0.00000000
  -V(xc)+E(xc)   XCENC  =      1015.81551556
  PAW double counting   =     13944.57156733   -14432.14629655
  entropy T*S    EENTRO =         0.00000000
  eigenvalues    EBANDS =     -3732.47123474
  atomic energy  EATOM  =     15171.73615219
  Solvation  Ediel_sol  =         0.00000000
  ---------------------------------------------------
  free energy    TOTEN  =      -410.57851318 eV

  energy without entropy =     -410.57851318  energy(sigma->0) =     -410.57851318


--------------------------------------------------------------------------------------------------------




--------------------------------------- Iteration      1(   8)  ---------------------------------------


    POTLOK:  cpu time    0.2091: real time    0.2184
    SETDIJ:  cpu time    0.0110: real time    0.0110
     EDDAV:  cpu time   25.9992: real time   26.0031
 BZINTS: Fermi energy: -4.855214;280.000000 electrons
         Band energy:***********;  BLOECHL correction:  0.000000
       DOS:  cpu time    0.0186: real time    0.0186
    CHARGE:  cpu time    0.4321: real time    0.4321
    MIXING:  cpu time    0.0074: real time    0.0074
    --------------------------------------------
      LOOP:  cpu time   26.6774: real time   26.6907

 eigenvalue-minimisations  :  4864
 total energy-change (2. order) :-0.4573963E+00  (-0.2765284E+01)
 number of electron     280.0000054 magnetization      -0.0005433
 augmentation part       14.8230674 magnetization       0.0062099

 Broyden mixing:
  rms(total) = 0.10104E+01    rms(broyden)= 0.10100E+01
  rms(prec ) = 0.11900E+01
  weight for this iteration     100.00

 eigenvalues of (default mixing * dielectric matrix)
  average eigenvalue GAMMA=   1.2647
  2.3783  0.9484  0.4675

 Free energy of the ion-electron system (eV)
  ---------------------------------------------------
  alpha Z        PSCENC =        89.52339426
  Ewald energy   TEWEN  =     21455.03462433
  -Hartree energ DENC   =    -33940.92599641
  -exchange      EXHF   =         0.00000000
  -V(xc)+E(xc)   XCENC  =      1017.01995178
  PAW double counting   =     14870.86718407   -15358.84619553
  entropy T*S    EENTRO =         0.00000000
  eigenvalues    EBANDS =     -3715.44502415
  atomic energy  EATOM  =     15171.73615219
  Solvation  Ediel_sol  =         0.00000000
  ---------------------------------------------------
  free energy    TOTEN  =      -411.03590947 eV

  energy without entropy =     -411.03590947  energy(sigma->0) =     -411.03590947


--------------------------------------------------------------------------------------------------------




--------------------------------------- Iteration      1(   9)  ---------------------------------------


    POTLOK:  cpu time    0.2198: real time    0.2205
    SETDIJ:  cpu time    0.0114: real time    0.0114
     EDDAV:  cpu time   26.9616: real time   26.9651
 BZINTS: Fermi energy: -4.681420;280.000000 electrons
         Band energy:***********;  BLOECHL correction:  0.000000
       DOS:  cpu time    0.0183: real time    0.0183
    CHARGE:  cpu time    0.3912: real time    0.3913
    MIXING:  cpu time    0.0071: real time    0.0071
    --------------------------------------------
      LOOP:  cpu time   27.6094: real time   27.6136

 eigenvalue-minimisations  :  5096
 total energy-change (2. order) : 0.1744850E+00  (-0.2551588E+01)
 number of electron     280.0000056 magnetization      -0.0005907
 augmentation part       15.0604714 magnetization       0.0007847

 Broyden mixing:
  rms(total) = 0.73177E+00    rms(broyden)= 0.73124E+00
  rms(prec ) = 0.91285E+00
  weight for this iteration     100.00

 eigenvalues of (default mixing * dielectric matrix)
  average eigenvalue GAMMA=   1.2742
  3.2010  0.9540  0.4709  0.4709

 Free energy of the ion-electron system (eV)
  ---------------------------------------------------
  alpha Z        PSCENC =        89.52339426
  Ewald energy   TEWEN  =     21455.03462433
  -Hartree energ DENC   =    -33963.58101127
  -exchange      EXHF   =         0.00000000
  -V(xc)+E(xc)   XCENC  =      1017.83272407
  PAW double counting   =     15999.64415063   -16490.54720422
  entropy T*S    EENTRO =         0.00000000
  eigenvalues    EBANDS =     -3690.50425450
  atomic energy  EATOM  =     15171.73615219
  Solvation  Ediel_sol  =         0.00000000
  ---------------------------------------------------
  free energy    TOTEN  =      -410.86142451 eV

  energy without entropy =     -410.86142451  energy(sigma->0) =     -410.86142451


--------------------------------------------------------------------------------------------------------




--------------------------------------- Iteration      1(  10)  ---------------------------------------


    POTLOK:  cpu time    0.2058: real time    0.2075
    SETDIJ:  cpu time    0.0111: real time    0.0112
     EDDAV:  cpu time   27.8855: real time   27.8915
 BZINTS: Fermi energy: -4.246937;280.000000 electrons
         Band energy:***********;  BLOECHL correction:  0.000000
       DOS:  cpu time    0.0174: real time    0.0174
    CHARGE:  cpu time    0.4282: real time    0.4283
    MIXING:  cpu time    0.0074: real time    0.0081
    --------------------------------------------
      LOOP:  cpu time   28.5554: real time   28.5640

 eigenvalue-minimisations  :  5328
 total energy-change (2. order) : 0.1157345E+01  (-0.8120862E+00)
 number of electron     280.0000051 magnetization      -0.0004991
 augmentation part       14.8969198 magnetization      -0.0023030

 Broyden mixing:
  rms(total) = 0.42220E+00    rms(broyden)= 0.42154E+00
  rms(prec ) = 0.55479E+00
  weight for this iteration     100.00

 eigenvalues of (default mixing * dielectric matrix)
  average eigenvalue GAMMA=   1.1567
  3.3882  0.9379  0.5367  0.5367  0.3839

 Free energy of the ion-electron system (eV)
  ---------------------------------------------------
  alpha Z        PSCENC =        89.52339426
  Ewald energy   TEWEN  =     21455.03462433
  -Hartree energ DENC   =    -33982.41577989
  -exchange      EXHF   =         0.00000000
  -V(xc)+E(xc)   XCENC  =      1019.19191757
  PAW double counting   =     17032.04654054   -17522.94552436
  entropy T*S    EENTRO =         0.00000000
  eigenvalues    EBANDS =     -3671.87540401
  atomic energy  EATOM  =     15171.73615219
  Solvation  Ediel_sol  =         0.00000000
  ---------------------------------------------------
  free energy    TOTEN  =      -409.70407937 eV

  energy without entropy =     -409.70407937  energy(sigma->0) =     -409.70407937


--------------------------------------------------------------------------------------------------------




--------------------------------------- Iteration      1(  11)  ---------------------------------------


    POTLOK:  cpu time    0.2026: real time    0.2091
    SETDIJ:  cpu time    0.0122: real time    0.0122
     EDDAV:  cpu time   25.6951: real time   25.7006
 BZINTS: Fermi energy: -4.266317;280.000000 electrons
         Band energy:***********;  BLOECHL correction:  0.000000
       DOS:  cpu time    0.0161: real time    0.0161
    CHARGE:  cpu time    0.3997: real time    0.3997
    MIXING:  cpu time    0.0081: real time    0.0081
    --------------------------------------------
      LOOP:  cpu time   26.3338: real time   26.3458

 eigenvalue-minimisations  :  4800
 total energy-change (2. order) : 0.3914024E+00  (-0.2991529E+00)
 number of electron     280.0000052 magnetization      -0.0002774
 augmentation part       14.9287778 magnetization      -0.0029539

 Broyden mixing:
  rms(total) = 0.21529E+00    rms(broyden)= 0.21514E+00
  rms(prec ) = 0.26328E+00
  weight for this iteration     100.00

 eigenvalues of (default mixing * dielectric matrix)
  average eigenvalue GAMMA=   1.1051
  3.4770  0.8277  0.8277  0.6577  0.4204  0.4204

 Free energy of the ion-electron system (eV)
  ---------------------------------------------------
  alpha Z        PSCENC =        89.52339426
  Ewald energy   TEWEN  =     21455.03462433
  -Hartree energ DENC   =    -33990.70888294
  -exchange      EXHF   =         0.00000000
  -V(xc)+E(xc)   XCENC  =      1019.65144201
  PAW double counting   =     17296.98643137   -17787.30142778
  entropy T*S    EENTRO =         0.00000000
  eigenvalues    EBANDS =     -3664.23441042
  atomic energy  EATOM  =     15171.73615219
  Solvation  Ediel_sol  =         0.00000000
  ---------------------------------------------------
  free energy    TOTEN  =      -409.31267699 eV

  energy without entropy =     -409.31267699  energy(sigma->0) =     -409.31267699


--------------------------------------------------------------------------------------------------------




--------------------------------------- Iteration      1(  12)  ---------------------------------------


    POTLOK:  cpu time    0.1975: real time    0.2082
    SETDIJ:  cpu time    0.0102: real time    0.0102
     EDDAV:  cpu time   22.8486: real time   22.8511
 BZINTS: Fermi energy: -4.259894;280.000000 electrons
         Band energy:***********;  BLOECHL correction: -0.002583
       DOS:  cpu time    0.0237: real time    0.0237
    CHARGE:  cpu time    0.4054: real time    0.4054
    MIXING:  cpu time    0.0082: real time    0.0082
    --------------------------------------------
      LOOP:  cpu time   23.4936: real time   23.5069

 eigenvalue-minimisations  :  4216
 total energy-change (2. order) : 0.3326151E-01  (-0.7872072E-01)
 number of electron     280.0000052 magnetization       0.0146359
 augmentation part       14.9189223 magnetization      -0.0054051

 Broyden mixing:
  rms(total) = 0.12981E+00    rms(broyden)= 0.12954E+00
  rms(prec ) = 0.15090E+00
  weight for this iteration     100.00

 eigenvalues of (default mixing * dielectric matrix)
  average eigenvalue GAMMA=   1.0785
  3.4846  0.9557  0.9557  0.6597  0.6597  0.4171  0.4171

 Free energy of the ion-electron system (eV)
  ---------------------------------------------------
  alpha Z        PSCENC =        89.52339426
  Ewald energy   TEWEN  =     21455.03462433
  -Hartree energ DENC   =    -33991.51327960
  -exchange      EXHF   =         0.00000000
  -V(xc)+E(xc)   XCENC  =      1019.71207522
  PAW double counting   =     17434.25982469   -17924.42868785
  entropy T*S    EENTRO =         0.00000000
  eigenvalues    EBANDS =     -3663.60351871
  atomic energy  EATOM  =     15171.73615219
  Solvation  Ediel_sol  =         0.00000000
  ---------------------------------------------------
  free energy    TOTEN  =      -409.27941548 eV

  energy without entropy =     -409.27941548  energy(sigma->0) =     -409.27941548


--------------------------------------------------------------------------------------------------------




--------------------------------------- Iteration      1(  13)  ---------------------------------------


    POTLOK:  cpu time    0.1903: real time    0.1990
    SETDIJ:  cpu time    0.0102: real time    0.0102
     EDDAV:  cpu time   24.4780: real time   24.4816
 BZINTS: Fermi energy: -4.246312;280.000000 electrons
         Band energy:***********;  BLOECHL correction:  0.000000
       DOS:  cpu time    0.0162: real time    0.0162
    CHARGE:  cpu time    0.3889: real time    0.3889
    MIXING:  cpu time    0.0085: real time    0.0085
    --------------------------------------------
      LOOP:  cpu time   25.0920: real time   25.1043

 eigenvalue-minimisations  :  4552
 total energy-change (2. order) : 0.6572427E-02  (-0.2912314E-01)
 number of electron     280.0000052 magnetization       0.0069003
 augmentation part       14.9121542 magnetization       0.0048060

 Broyden mixing:
  rms(total) = 0.10134E+00    rms(broyden)= 0.10127E+00
  rms(prec ) = 0.11677E+00
  weight for this iteration     100.00

 eigenvalues of (default mixing * dielectric matrix)
  average eigenvalue GAMMA=   1.0670
  3.4377  1.3284  0.9300  0.9300  0.5520  0.5520  0.4028  0.4028

 Free energy of the ion-electron system (eV)
  ---------------------------------------------------
  alpha Z        PSCENC =        89.52339426
  Ewald energy   TEWEN  =     21455.03462433
  -Hartree energ DENC   =    -33990.60218435
  -exchange      EXHF   =         0.00000000
  -V(xc)+E(xc)   XCENC  =      1019.64345069
  PAW double counting   =     17473.10751544   -17963.24709850
  entropy T*S    EENTRO =         0.00000000
  eigenvalues    EBANDS =     -3664.46869710
  atomic energy  EATOM  =     15171.73615219
  Solvation  Ediel_sol  =         0.00000000
  ---------------------------------------------------
  free energy    TOTEN  =      -409.27284305 eV

  energy without entropy =     -409.27284305  energy(sigma->0) =     -409.27284305


--------------------------------------------------------------------------------------------------------




--------------------------------------- Iteration      1(  14)  ---------------------------------------


    POTLOK:  cpu time    0.1891: real time    0.1963
    SETDIJ:  cpu time    0.0101: real time    0.0101
     EDDAV:  cpu time   24.8570: real time   24.8611
 BZINTS: Fermi energy: -4.260241;280.000000 electrons
         Band energy:***********;  BLOECHL correction: -0.000732
       DOS:  cpu time    0.0240: real time    0.0240
    CHARGE:  cpu time    0.3958: real time    0.3958
    MIXING:  cpu time    0.0087: real time    0.0087
    --------------------------------------------
      LOOP:  cpu time   25.4847: real time   25.4961

 eigenvalue-minimisations  :  4632
 total energy-change (2. order) : 0.1049092E-01  (-0.9287201E-02)
 number of electron     280.0000052 magnetization      -0.0022273
 augmentation part       14.9151825 magnetization      -0.0073270

 Broyden mixing:
  rms(total) = 0.61296E-01    rms(broyden)= 0.61266E-01
  rms(prec ) = 0.66624E-01
  weight for this iteration     100.00

 eigenvalues of (default mixing * dielectric matrix)
  average eigenvalue GAMMA=   1.1467
  3.4963  2.2500  0.9773  0.9773  0.7134  0.5497  0.5497  0.4031  0.4031

 Free energy of the ion-electron system (eV)
  ---------------------------------------------------
  alpha Z        PSCENC =        89.52339426
  Ewald energy   TEWEN  =     21455.03462433
  -Hartree energ DENC   =    -33989.74235327
  -exchange      EXHF   =         0.00000000
  -V(xc)+E(xc)   XCENC  =      1019.57957772
  PAW double counting   =     17492.56305437   -17982.56059101
  entropy T*S    EENTRO =         0.00000000
  eigenvalues    EBANDS =     -3665.39621072
  atomic energy  EATOM  =     15171.73615219
  Solvation  Ediel_sol  =         0.00000000
  ---------------------------------------------------
  free energy    TOTEN  =      -409.26235213 eV

  energy without entropy =     -409.26235213  energy(sigma->0) =     -409.26235213


--------------------------------------------------------------------------------------------------------




--------------------------------------- Iteration      1(  15)  ---------------------------------------


    POTLOK:  cpu time    0.1870: real time    0.2834
    SETDIJ:  cpu time    0.0102: real time    0.0102
     EDDAV:  cpu time   23.1914: real time   23.1948
 BZINTS: Fermi energy: -4.252279;280.000000 electrons
         Band energy:***********;  BLOECHL correction: -0.002073
       DOS:  cpu time    0.0236: real time    0.0236
    CHARGE:  cpu time    0.4047: real time    0.4047
    MIXING:  cpu time    0.0091: real time    0.0091
    --------------------------------------------
      LOOP:  cpu time   23.8261: real time   23.9259

 eigenvalue-minimisations  :  4328
 total energy-change (2. order) : 0.2281793E-03  (-0.3106072E-02)
 number of electron     280.0000052 magnetization       0.0126202
 augmentation part       14.9226354 magnetization      -0.0041534

 Broyden mixing:
  rms(total) = 0.32203E-01    rms(broyden)= 0.32179E-01
  rms(prec ) = 0.36399E-01
  weight for this iteration     100.00

 eigenvalues of (default mixing * dielectric matrix)
  average eigenvalue GAMMA=   1.1466
  3.6230  2.4021  1.0338  1.0338  0.9173  0.5801  0.5801  0.4792  0.4083  0.4083

 Free energy of the ion-electron system (eV)
  ---------------------------------------------------
  alpha Z        PSCENC =        89.52339426
  Ewald energy   TEWEN  =     21455.03462433
  -Hartree energ DENC   =    -33988.95883616
  -exchange      EXHF   =         0.00000000
  -V(xc)+E(xc)   XCENC  =      1019.51274564
  PAW double counting   =     17551.30201553   -18041.17379523
  entropy T*S    EENTRO =         0.00000000
  eigenvalues    EBANDS =     -3666.23842450
  atomic energy  EATOM  =     15171.73615219
  Solvation  Ediel_sol  =         0.00000000
  ---------------------------------------------------
  free energy    TOTEN  =      -409.26212395 eV

  energy without entropy =     -409.26212395  energy(sigma->0) =     -409.26212395


--------------------------------------------------------------------------------------------------------




--------------------------------------- Iteration      1(  16)  ---------------------------------------


    POTLOK:  cpu time    0.1957: real time    0.1984
    SETDIJ:  cpu time    0.0101: real time    0.0101
     EDDAV:  cpu time   23.0440: real time   23.0466
 BZINTS: Fermi energy: -4.250538;280.000000 electrons
         Band energy:***********;  BLOECHL correction: -0.001834
       DOS:  cpu time    0.0235: real time    0.0235
    CHARGE:  cpu time    0.3813: real time    0.3813
    MIXING:  cpu time    0.0093: real time    0.0093
    --------------------------------------------
      LOOP:  cpu time   23.6639: real time   23.6692

 eigenvalue-minimisations  :  4208
 total energy-change (2. order) :-0.9815342E-03  (-0.1867831E-02)
 number of electron     280.0000052 magnetization       0.0115791
 augmentation part       14.9248639 magnetization      -0.0049006

 Broyden mixing:
  rms(total) = 0.26374E-01    rms(broyden)= 0.26344E-01
  rms(prec ) = 0.28335E-01
  weight for this iteration     100.00

 eigenvalues of (default mixing * dielectric matrix)
  average eigenvalue GAMMA=   1.0431
  3.6228  2.4012  1.0338  1.0338  0.9169  0.5801  0.5801  0.4788  0.4083  0.4083
  0.0100

 Free energy of the ion-electron system (eV)
  ---------------------------------------------------
  alpha Z        PSCENC =        89.52339426
  Ewald energy   TEWEN  =     21455.03462433
  -Hartree energ DENC   =    -33988.86297527
  -exchange      EXHF   =         0.00000000
  -V(xc)+E(xc)   XCENC  =      1019.51079343
  PAW double counting   =     17586.06631424   -18075.92052648
  entropy T*S    EENTRO =         0.00000000
  eigenvalues    EBANDS =     -3666.35088218
  atomic energy  EATOM  =     15171.73615219
  Solvation  Ediel_sol  =         0.00000000
  ---------------------------------------------------
  free energy    TOTEN  =      -409.26310549 eV

  energy without entropy =     -409.26310549  energy(sigma->0) =     -409.26310549


--------------------------------------------------------------------------------------------------------




--------------------------------------- Iteration      1(  17)  ---------------------------------------


    POTLOK:  cpu time    0.1890: real time    0.1969
    SETDIJ:  cpu time    0.0104: real time    0.0104
     EDDAV:  cpu time   23.4289: real time   23.4329
 BZINTS: Fermi energy: -4.245387;280.000000 electrons
         Band energy:***********;  BLOECHL correction: -0.003012
       DOS:  cpu time    0.0242: real time    0.0242
    CHARGE:  cpu time    0.4041: real time    0.4042
    MIXING:  cpu time    0.0097: real time    0.0096
    --------------------------------------------
      LOOP:  cpu time   24.0663: real time   24.0782

 eigenvalue-minimisations  :  4368
 total energy-change (2. order) :-0.3585889E-02  (-0.1436314E-02)
 number of electron     280.0000052 magnetization       0.0068830
 augmentation part       14.9241873 magnetization      -0.0224182

 Broyden mixing:
  rms(total) = 0.36196E-01    rms(broyden)= 0.36164E-01
  rms(prec ) = 0.36858E-01
  weight for this iteration     100.00

 eigenvalues of (default mixing * dielectric matrix)
  average eigenvalue GAMMA=   1.1359
  3.7064  2.6351  0.9857  1.2108  0.9286  0.9286  0.8088  0.5626  0.5626  0.4046
  0.4046  0.4924

 Free energy of the ion-electron system (eV)
  ---------------------------------------------------
  alpha Z        PSCENC =        89.52339426
  Ewald energy   TEWEN  =     21455.03462433
  -Hartree energ DENC   =    -33988.96626667
  -exchange      EXHF   =         0.00000000
  -V(xc)+E(xc)   XCENC  =      1019.52062384
  PAW double counting   =     17588.97670288   -18078.81293083
  entropy T*S    EENTRO =         0.00000000
  eigenvalues    EBANDS =     -3666.27899137
  atomic energy  EATOM  =     15171.73615219
  Solvation  Ediel_sol  =         0.00000000
  ---------------------------------------------------
  free energy    TOTEN  =      -409.26669137 eV

  energy without entropy =     -409.26669137  energy(sigma->0) =     -409.26669137


--------------------------------------------------------------------------------------------------------




--------------------------------------- Iteration      1(  18)  ---------------------------------------


    POTLOK:  cpu time    0.1898: real time    0.1986
    SETDIJ:  cpu time    0.0101: real time    0.0101
     EDDAV:  cpu time   22.6332: real time   22.6384
 BZINTS: Fermi energy: -4.250102;280.000000 electrons
         Band energy:***********;  BLOECHL correction: -0.002468
       DOS:  cpu time    0.0232: real time    0.0232
    CHARGE:  cpu time    0.4167: real time    0.4167
    MIXING:  cpu time    0.0101: real time    0.0101
    --------------------------------------------
      LOOP:  cpu time   23.2831: real time   23.2971

 eigenvalue-minimisations  :  4168
 total energy-change (2. order) : 0.4341364E-02  (-0.1475627E-02)
 number of electron     280.0000052 magnetization       0.0080454
 augmentation part       14.9231294 magnetization      -0.0147268

 Broyden mixing:
  rms(total) = 0.25993E-01    rms(broyden)= 0.25973E-01
  rms(prec ) = 0.27490E-01
  weight for this iteration     100.00

 eigenvalues of (default mixing * dielectric matrix)
  average eigenvalue GAMMA=   1.1359
  3.7237  2.5849  1.2747  1.3689  0.9380  0.9380  0.9079  0.5640  0.5640  0.6160
  0.4042  0.4042  0.4778

 Free energy of the ion-electron system (eV)
  ---------------------------------------------------
  alpha Z        PSCENC =        89.52339426
  Ewald energy   TEWEN  =     21455.03462433
  -Hartree energ DENC   =    -33988.98937921
  -exchange      EXHF   =         0.00000000
  -V(xc)+E(xc)   XCENC  =      1019.51704136
  PAW double counting   =     17592.30116799   -18082.12482986
  entropy T*S    EENTRO =         0.00000000
  eigenvalues    EBANDS =     -3666.26052107
  atomic energy  EATOM  =     15171.73615219
  Solvation  Ediel_sol  =         0.00000000
  ---------------------------------------------------
  free energy    TOTEN  =      -409.26235001 eV

  energy without entropy =     -409.26235001  energy(sigma->0) =     -409.26235001


--------------------------------------------------------------------------------------------------------




--------------------------------------- Iteration      1(  19)  ---------------------------------------


    POTLOK:  cpu time    0.1934: real time    0.1991
    SETDIJ:  cpu time    0.0101: real time    0.0101
     EDDAV:  cpu time   24.2968: real time   24.3008
 BZINTS: Fermi energy: -4.258248;280.000000 electrons
         Band energy:***********;  BLOECHL correction: -0.001434
       DOS:  cpu time    0.0239: real time    0.0239
    CHARGE:  cpu time    0.4186: real time    0.4186
    MIXING:  cpu time    0.0106: real time    0.0106
    --------------------------------------------
      LOOP:  cpu time   24.9534: real time   24.9631

 eigenvalue-minimisations  :  4520
 total energy-change (2. order) : 0.2244364E-02  (-0.2114158E-02)
 number of electron     280.0000052 magnetization       0.0067869
 augmentation part       14.9230982 magnetization      -0.0028150

 Broyden mixing:
  rms(total) = 0.14497E-01    rms(broyden)= 0.14372E-01
  rms(prec ) = 0.16492E-01
  weight for this iteration     100.00

 eigenvalues of (default mixing * dielectric matrix)
  average eigenvalue GAMMA=   1.1652
  3.7501  2.3176  2.3176  1.2089  0.9164  0.9164  0.9050  0.9050  0.6623  0.5584
  0.5584  0.4046  0.4046  0.4879

 Free energy of the ion-electron system (eV)
  ---------------------------------------------------
  alpha Z        PSCENC =        89.52339426
  Ewald energy   TEWEN  =     21455.03462433
  -Hartree energ DENC   =    -33988.90654154
  -exchange      EXHF   =         0.00000000
  -V(xc)+E(xc)   XCENC  =      1019.51733222
  PAW double counting   =     17593.30798671   -18083.13305312
  entropy T*S    EENTRO =         0.00000000
  eigenvalues    EBANDS =     -3666.34000069
  atomic energy  EATOM  =     15171.73615219
  Solvation  Ediel_sol  =         0.00000000
  ---------------------------------------------------
  free energy    TOTEN  =      -409.26010565 eV

  energy without entropy =     -409.26010565  energy(sigma->0) =     -409.26010565


--------------------------------------------------------------------------------------------------------




--------------------------------------- Iteration      1(  20)  ---------------------------------------


    POTLOK:  cpu time    0.1964: real time    0.2021
[...]
   -.107E+02 0.371E+02 0.129E+03   0.114E+02 -.376E+02 -.129E+03   -.368E+00 0.108E+01 0.182E+01   -.499E-02 -.279E-02 0.189E-02
   -.431E+02 -.114E+02 0.625E+02   0.439E+02 0.119E+02 -.625E+02   -.176E+01 -.742E+00 0.711E+00   -.215E-02 0.283E-02 -.312E-03
   0.279E+02 -.235E+02 -.239E+02   -.284E+02 0.183E+02 0.223E+02   0.311E+00 0.302E+01 0.500E+00   0.509E-03 0.311E-02 0.679E-03
   0.218E+02 -.943E+01 -.319E+02   -.164E+02 0.125E+02 0.315E+02   -.319E+01 -.143E+01 0.956E-01   -.333E-02 -.213E-02 0.154E-02
   -.849E+01 0.158E+01 -.393E+02   0.317E+01 0.153E+01 0.388E+02   0.312E+01 -.142E+01 -.130E-01   0.278E-02 -.845E-03 -.516E-04
   -.170E+02 0.122E+02 -.461E+02   0.171E+02 -.108E+02 0.473E+02   0.112E+01 -.136E+01 -.184E+01   -.538E-02 -.814E-03 0.912E-03
   -.235E+01 0.133E+02 0.314E+02   0.238E+01 -.144E+02 -.308E+02   -.121E+00 0.245E+01 0.155E+00   0.919E-03 -.483E-02 0.226E-02
   0.221E+02 0.113E+02 -.435E+02   -.221E+02 -.959E+01 0.437E+02   -.106E+01 -.148E+01 -.155E+01   0.604E-02 -.155E-02 0.357E-02
   -.247E+01 -.154E+02 -.816E+01   0.245E+01 0.951E+01 0.100E+02   -.132E+00 0.360E+01 -.794E+00   -.790E-03 -.110E-05 0.221E-02
   0.299E+02 0.215E+02 0.123E+03   -.254E+02 -.188E+02 -.124E+03   -.226E+01 -.150E+01 0.101E+01   -.402E-03 -.185E-02 -.941E-03
   -.131E+02 0.171E+02 0.575E+02   0.805E+01 -.147E+02 -.555E+02   0.285E+01 -.781E+00 -.113E+01   -.291E-02 0.183E-02 -.264E-02
   0.445E+02 -.105E+02 0.429E+02   -.454E+02 0.110E+02 -.428E+02   0.193E+01 -.657E+00 0.448E+00   -.123E-02 0.311E-02 0.310E-04
   0.333E+01 0.518E+02 0.137E+03   -.398E+01 -.526E+02 -.138E+03   0.555E-01 0.159E+01 0.146E+01   0.605E-02 -.777E-02 0.134E-02
   -.442E+02 -.402E+02 -.641E+02   0.449E+02 0.405E+02 0.643E+02   -.179E+01 -.925E+00 -.717E+00   0.558E-02 -.404E-03 0.158E-02
   -.235E+02 -.224E+02 -.916E+02   0.239E+02 0.177E+02 0.909E+02   0.919E-01 0.235E+01 -.365E+00   -.126E-02 0.476E-02 -.174E-02
   0.105E+02 0.716E+00 -.719E+02   -.549E+01 0.219E+01 0.707E+02   -.258E+01 -.120E+01 0.286E-01   -.306E-02 -.121E-02 0.144E-02
   -.234E+02 -.645E+01 -.584E+02   0.184E+02 0.937E+01 0.570E+02   0.255E+01 -.123E+01 0.475E+00   0.444E-02 -.153E-02 0.304E-02
   0.501E+02 -.478E+02 0.887E+02   -.515E+02 0.479E+02 -.885E+02   0.157E+01 -.138E+01 0.261E+00   0.646E-03 0.201E-02 0.189E-02
   -.706E+01 0.297E+02 -.123E+03   0.697E+01 -.311E+02 0.123E+03   0.405E-01 0.209E+01 -.148E+01   -.317E-02 -.112E-03 0.863E-04
   -.576E+02 -.173E+02 -.402E+02   0.588E+02 0.176E+02 0.403E+02   -.189E+01 -.627E+00 -.528E+00   -.845E-03 -.114E-02 0.222E-02
   -.995E+01 0.275E+02 0.107E+03   0.101E+02 -.276E+02 -.108E+03   -.369E+00 -.352E+00 0.134E+01   -.861E-03 -.383E-02 -.894E-02
   -.128E+03 -.180E+02 0.145E+03   0.153E+03 0.316E+02 -.154E+03   -.278E+02 -.156E+02 0.112E+02   -.688E-02 0.629E-02 0.102E-02
   0.102E+03 -.102E+03 -.155E+03   -.127E+03 0.115E+03 0.164E+03   0.279E+02 -.146E+02 -.111E+02   -.187E-02 0.305E-02 -.318E-03
   0.178E+01 0.113E+03 0.255E+03   0.207E+00 -.136E+03 -.273E+03   -.256E+01 0.260E+02 0.210E+02   -.770E-02 0.295E-02 0.203E-02
   -.280E+02 0.934E+02 0.268E+03   0.251E+02 -.114E+03 -.288E+03   0.277E+01 0.235E+02 0.233E+02   -.415E-02 -.226E-03 0.427E-02
   0.126E+03 -.644E+02 -.743E+02   -.150E+03 0.807E+02 0.742E+02   0.273E+02 -.192E+02 -.567E+00   -.893E-02 -.372E-02 0.494E-02
   -.952E+02 -.536E+02 0.164E+03   0.119E+03 0.605E+02 -.180E+03   -.270E+02 -.799E+01 0.184E+02   -.225E-02 0.469E-02 -.250E-03
   -.311E+01 -.798E-02 -.161E+02   0.317E+01 0.186E+00 0.169E+02   -.130E+00 -.432E-01 -.104E+01   -.217E-02 0.217E-02 -.165E-03
   0.117E+02 -.165E+02 -.615E+02   -.121E+02 0.167E+02 0.663E+02   0.141E+00 -.402E+00 -.527E+01   -.150E-02 0.930E-04 0.206E-02
   0.159E+01 -.417E+02 -.197E+03   0.151E+02 0.512E+02 0.215E+03   -.189E+02 -.112E+02 -.216E+02   0.819E-02 -.633E-02 -.307E-03
   0.320E+01 0.458E+02 -.485E+02   -.185E+02 -.424E+02 0.574E+02   0.182E+02 -.354E+01 -.103E+02   -.235E-02 0.223E-02 -.740E-03
   -.110E+02 0.714E+02 0.807E+02   0.138E+02 -.984E+02 -.888E+02   -.327E+01 0.308E+02 0.972E+01   -.152E-02 -.349E-02 0.538E-02
   -.768E-01 0.691E+02 0.896E+02   -.178E+01 -.960E+02 -.978E+02   0.221E+01 0.308E+02 0.991E+01   0.683E-02 -.550E-02 0.412E-02
   0.241E+02 -.406E+02 -.215E+03   -.439E+02 0.506E+02 0.229E+03   0.225E+02 -.118E+02 -.171E+02   -.595E-02 -.275E-02 -.609E-02
   0.451E+00 0.521E+02 -.697E+02   0.135E+02 -.492E+02 0.814E+02   -.166E+02 -.291E+01 -.138E+02   0.186E-02 -.837E-03 0.125E-02
   0.348E+02 0.120E+02 0.474E+02   -.383E+02 -.145E+02 -.466E+02   0.466E+01 0.303E+01 -.468E+00   0.249E-02 -.595E-02 0.568E-02
   0.943E+01 0.255E+02 0.944E+02   -.113E+02 -.273E+02 -.997E+02   0.202E+01 0.195E+01 0.574E+01   -.760E-02 -.177E-02 -.370E-02
   -.124E+03 -.676E+02 -.810E+02   0.148E+03 0.834E+02 0.813E+02   -.278E+02 -.184E+02 -.783E+00   0.104E-01 -.700E-02 0.717E-02
   0.974E+02 -.455E+02 0.127E+03   -.122E+03 0.519E+02 -.141E+03   0.282E+02 -.735E+01 0.162E+02   0.200E-02 0.276E-02 0.276E-02
   0.105E+02 0.109E+03 0.276E+03   -.581E+01 -.130E+03 -.295E+03   -.485E+01 0.242E+02 0.222E+02   0.772E-02 -.568E-02 0.480E-02
   0.392E+01 0.155E+03 0.232E+03   -.541E+01 -.183E+03 -.241E+03   0.224E+01 0.316E+02 0.104E+02   0.244E-01 -.322E-02 -.267E-02
   0.128E+03 -.186E+02 0.875E+02   -.154E+03 0.332E+02 -.918E+02   0.287E+02 -.169E+02 0.533E+01   0.391E-02 0.791E-02 -.360E-03
   -.930E+02 -.105E+03 -.189E+03   0.116E+03 0.117E+03 0.201E+03   -.264E+02 -.144E+02 -.142E+02   0.283E-02 -.168E-03 -.790E-03
   0.549E+00 -.232E+02 -.858E+01   -.438E+00 0.242E+02 0.644E+01   -.101E+00 -.126E+01 0.254E+01   0.145E-02 -.858E-03 0.104E-02
   -.114E+02 -.179E+02 -.120E+03   0.115E+02 0.193E+02 0.127E+03   0.262E+00 -.165E+01 -.727E+01   0.288E-02 0.117E-02 0.111E-02
   -.149E+03 -.416E+02 -.609E+02   0.173E+03 0.572E+02 0.609E+02   -.281E+02 -.177E+02 -.332E+00   -.226E-02 0.175E-02 0.968E-03
   0.117E+03 -.970E+02 0.198E+03   -.143E+03 0.110E+03 -.203E+03   0.292E+02 -.139E+02 0.743E+01   0.361E-02 0.126E-01 0.996E-03
   0.127E+01 0.967E+02 -.249E+03   0.246E+01 -.119E+03 0.268E+03   -.428E+01 0.255E+02 -.213E+02   -.616E-02 -.358E-03 0.189E-03
   -.242E+02 0.744E+02 -.280E+03   0.227E+02 -.950E+02 0.301E+03   0.162E+01 0.230E+02 -.245E+02   -.730E-03 0.459E-03 -.288E-02
   0.126E+03 -.833E+02 0.152E+03   -.145E+03 0.102E+03 -.162E+03   0.221E+02 -.212E+02 0.124E+02   -.658E-03 0.177E-02 0.264E-02
   -.110E+03 -.485E+02 -.121E+03   0.136E+03 0.551E+02 0.132E+03   -.293E+02 -.738E+01 -.140E+02   -.679E-02 0.572E-02 -.355E-03
   -.328E+02 0.145E+02 0.284E+02   0.351E+02 -.160E+02 -.299E+02   -.315E+01 0.207E+01 0.231E+01   -.324E-02 -.427E-02 0.392E-02
   0.302E+02 -.820E+02 -.645E+03   -.306E+02 0.889E+02 0.653E+03   0.570E+00 -.844E+01 -.987E+01   0.329E-02 -.274E-02 -.209E-02
   -.454E+02 -.103E+03 0.990E+02   0.490E+02 0.112E+03 -.109E+03   -.705E+01 -.159E+02 0.186E+02   0.309E-03 0.235E-03 -.124E-02
   0.392E+02 0.884E+02 -.589E+02   -.479E+02 -.108E+03 0.818E+02   0.120E+02 0.272E+02 -.317E+02   0.191E-02 0.347E-02 -.506E-02
 -----------------------------------------------------------------------------------------------
   -.503E+01 -.211E+02 0.101E+02   0.220E-12 0.426E-13 -.568E-13   0.503E+01 0.211E+02 -.102E+02   0.701E-04 -.597E-02 0.297E-01


 POSITION                                       TOTAL-FORCE (eV/Angst)
 -----------------------------------------------------------------------------------
     -0.01794      2.97239      7.85492         0.002418     -2.692633      0.727680
      1.46473      5.52913      7.97541         2.844381      0.393991      0.649143
     -1.52987      5.47448      7.86974        -2.796126      0.440185      0.173338
      6.90082      0.79354      9.28105         0.998629     -0.451578     -0.545083
      4.18567      5.52763      7.60402         0.352940      0.587316      1.058384
      1.42308      0.71451      8.25483        -0.925733     -0.249647      0.692441
     -4.31209      9.96906      8.88879        -0.197093     -2.157386     -1.133826
     -2.66944     12.42628      9.20019         2.164344      1.597900     -0.339066
     -5.61942     12.54084      9.14482        -2.198734      1.694077     -0.543815
      2.88701      7.59203      9.21284         1.257838      0.100706     -0.677660
      0.04729     12.32117      8.98003        -0.092285      1.377241      0.772469
     -3.05902      7.58812      8.83065        -1.059418      0.235667     -1.347345
      8.38388      2.98758      8.68725        -0.157980     -2.243249      1.070479
      9.72466      5.29031      7.37646         2.237515      1.133695      0.359388
      6.86438      5.39432      8.01688        -2.252693      1.668116      0.938908
     15.17296      0.51892      8.47117         1.018012     -0.162867      0.562765
     12.41679      5.20932      7.26841        -0.593338      0.708814      1.050045
      9.80103      0.77783      9.39514        -1.113426     -0.591618     -0.482387
      4.27989      9.84057      9.74104         0.447199     -2.432139     -1.075487
      5.66825     12.41175      9.59041         2.445060      1.719990     -1.240834
      2.71112     12.38581      9.56245        -2.431759      1.691560     -0.927533
     10.91254      7.68417      7.74774         0.244834     -1.243857      0.479876
      8.36421     12.43649      9.80253        -0.055310      0.787412     -1.280656
      5.71420      7.64195      8.99605        -0.724377     -0.304804     -0.460811
     -0.01723      4.66966      7.82908        -0.237970     -0.486728      0.339262
      1.39964      2.22139      7.75570        -3.339583     -2.033847      1.753374
      5.57108     -0.05161      9.57740         3.274950     -1.856518     -2.167619
      5.57374      4.82949      7.24152        -0.569993      3.058034      3.152837
      2.73011      4.98388      7.19412        -0.151193      2.547141      3.368114
      6.93207      2.36460      9.05530         3.300286     -2.839297     -0.644231
     -5.57133     13.83256      8.21838        -3.367596     -1.137115      2.898815
      0.02019      0.02566      8.86972        -0.069212      0.136346     -0.215588
     -4.16613     11.62239      9.18324        -0.288344     -0.151826     -0.465492
     -3.13349      9.02517      9.49875        -2.197474     -1.677691     -3.658158
      1.46406      6.81670      9.02648         2.949122     -0.227726     -1.431296
      1.45344     11.54427      8.99359        -0.479757      3.805374      1.635187
     -1.35541     11.56274      8.80729         0.358763      3.811646      1.655534
      2.90722      8.98041      9.98557         2.634055     -1.918339     -3.219061
     -1.66265      6.75516      8.91066        -2.683176     -0.012889     -2.106240
     12.29989      6.73412      8.02635         1.192746      0.570533      0.365861
      8.34406      4.48070      7.90629         0.159282      0.209092      0.512657
      9.81262      2.34281      9.09285        -3.414672     -2.596262     -0.481293
      5.54993     13.65157      8.59985         3.578434     -0.979418      2.657285
     -2.70907      4.88280      6.99701        -0.127829      2.784147      3.369356
     11.05365      4.44353      7.01008         0.771284      4.142591      2.162685
     15.15776      2.03250      8.01092         3.488709     -2.266624      1.025356
     11.06774     -0.07950      9.88922        -2.994747     -1.841429     -2.460245
      8.35435     -0.06105      9.14813         0.011576     -0.300351      0.395352
      4.18900     11.52739      9.79415         0.347426     -0.256068     -0.628230
      5.69143      9.18540      9.40293        -3.611919     -2.209710     -0.287749
      9.61475      6.92025      7.30201         4.079880     -1.200696      2.220097
     -6.82182     11.96750     10.05476        -0.553550      3.058395     -3.148733
      6.96813     11.86894     10.36746         0.179139      2.435459     -3.690599
     -5.55493      9.50390      8.00055         3.060637     -2.382640      1.962227
      7.00853      6.74191      8.88734        -3.953928     -0.842760     -2.176759
      4.23206      6.92659      8.58747        -0.883190      0.569703      0.732227
     -0.16073      8.25500     10.21887         0.123171     -1.519436     -1.908389
     -0.16073      8.25500     17.39487        -3.365492     -7.609476      8.859625
     -0.54595      7.38399      0.40928         3.365269      7.611491     -8.856582
 -----------------------------------------------------------------------------------
    total drift:                                0.001119      0.000283      0.001373


--------------------------------------------------------------------------------------------------------



  FREE ENERGIE OF THE ION-ELECTRON SYSTEM (eV)
  ---------------------------------------------------
  free  energy   TOTEN  =      -412.28174231 eV

  energy  without entropy=     -412.28174231  energy(sigma->0) =     -412.28174231



--------------------------------------------------------------------------------------------------------


    POTLOK:  cpu time    0.2102: real time    0.2130


--------------------------------------------------------------------------------------------------------


     LOOP+:  cpu time  586.3897: real time  586.7477
    4ORBIT:  cpu time    0.0000: real time    0.0000



 total charge     

# of ion       s       p       d       tot
------------------------------------------
    1        0.817   1.272   0.000   2.089
    2        0.822   1.252   0.000   2.074
    3        0.820   1.259   0.000   2.079
    4        0.829   1.272   0.000   2.101
    5        0.827   1.270   0.000   2.096
    6        0.829   1.278   0.000   2.107
    7        0.816   1.269   0.000   2.085
    8        0.819   1.265   0.000   2.084
    9        0.819   1.270   0.000   2.089
   10        0.821   1.295   0.000   2.116
   11        0.829   1.277   0.000   2.106
   12        0.819   1.303   0.000   2.122
   13        0.819   1.263   0.000   2.082
   14        0.819   1.270   0.000   2.088
   15        0.815   1.270   0.000   2.086
   16        0.828   1.281   0.000   2.109
   17        0.827   1.275   0.000   2.101
   18        0.829   1.269   0.000   2.098
   19        0.823   1.263   0.000   2.086
   20        0.822   1.267   0.000   2.089
   21        0.824   1.258   0.000   2.081
   22        0.830   1.271   0.000   2.101
   23        0.831   1.264   0.000   2.096
   24        0.827   1.281   0.000   2.108
   25        1.212   2.253   0.000   3.465
   26        1.300   2.184   0.000   3.484
   27        1.297   2.185   0.000   3.482
   28        1.304   2.164   0.000   3.468
   29        1.299   2.177   0.000   3.477
   30        1.299   2.180   0.000   3.479
   31        1.301   2.184   0.000   3.484
   32        1.228   2.279   0.000   3.507
   33        1.204   2.272   0.000   3.476
   34        1.288   2.205   0.000   3.493
   35        1.263   2.219   0.000   3.482
   36        1.300   2.180   0.000   3.480
   37        1.298   2.183   0.000   3.481
   38        1.290   2.197   0.000   3.488
   39        1.261   2.224   0.000   3.485
   40        1.224   2.290   0.000   3.515
   41        1.209   2.258   0.000   3.467
   42        1.301   2.173   0.000   3.474
   43        1.300   2.187   0.000   3.487
   44        1.299   2.178   0.000   3.477
   45        1.303   2.169   0.000   3.471
   46        1.299   2.188   0.000   3.487
   47        1.299   2.178   0.000   3.478
   48        1.227   2.279   0.000   3.506
   49        1.219   2.240   0.000   3.460
   50        1.297   2.188   0.000   3.485
   51        1.300   2.180   0.000   3.480
   52        1.304   2.167   0.000   3.471
   53        1.304   2.169   0.000   3.472
   54        1.299   2.175   0.000   3.474
   55        1.302   2.177   0.000   3.479
   56        1.225   2.285   0.000   3.510
   57        1.369   0.506   9.979  11.854
   58        1.027   1.062   0.000   2.089
   59        1.617   3.242   0.000   4.859
--------------------------------------------------
tot         64.627 105.893   9.979 180.499



 magnetization (x)

# of ion       s       p       d       tot
------------------------------------------
    1       -0.000  -0.000   0.000  -0.000
    2       -0.000  -0.002   0.000  -0.002
    3        0.000   0.001   0.000   0.001
    4        0.000   0.000   0.000   0.000
    5       -0.000  -0.002   0.000  -0.002
    6       -0.000   0.000   0.000   0.000
    7        0.000   0.000   0.000   0.000
    8        0.000   0.000   0.000   0.000
    9        0.000   0.000   0.000   0.000
   10       -0.000   0.000   0.000   0.000
   11        0.000   0.000   0.000   0.000
   12        0.000   0.000   0.000   0.000
   13        0.000   0.001   0.000   0.001
   14       -0.000   0.001   0.000   0.001
   15       -0.000  -0.004   0.000  -0.004
   16       -0.000  -0.000   0.000  -0.000
   17        0.000   0.002   0.000   0.002
   18        0.000  -0.000   0.000   0.000
   19       -0.000  -0.001   0.000  -0.002
   20       -0.000  -0.000   0.000  -0.000
   21       -0.000  -0.000   0.000  -0.000
   22        0.000   0.001   0.000   0.001
   23        0.000   0.000   0.000   0.000
   24       -0.000  -0.002   0.000  -0.002
   25       -0.000   0.000   0.000  -0.000
   26       -0.000   0.000   0.000   0.000
   27        0.000  -0.000   0.000  -0.000
   28        0.000   0.001   0.000   0.001
   29        0.000   0.001   0.000   0.001
   30       -0.000   0.000   0.000   0.000
   31        0.000   0.000   0.000   0.000
   32       -0.000  -0.000   0.000  -0.000
   33        0.000  -0.000   0.000   0.000
   34        0.000   0.000   0.000   0.000
   35       -0.000  -0.001   0.000  -0.001
   36        0.000  -0.000   0.000  -0.000
   37        0.000  -0.000   0.000   0.000
   38       -0.000  -0.001   0.000  -0.001
   39       -0.000  -0.000   0.000  -0.000
   40        0.000   0.000   0.000   0.000
   41       -0.000   0.000   0.000   0.000
   42        0.000   0.000   0.000   0.000
   43       -0.000   0.000   0.000   0.000
   44       -0.000  -0.001   0.000  -0.001
   45       -0.000  -0.001   0.000  -0.001
   46       -0.000   0.000   0.000  -0.000
   47       -0.000   0.000   0.000   0.000
   48        0.000   0.000   0.000   0.000
   49       -0.000   0.000   0.000  -0.000
   50       -0.000   0.000   0.000   0.000
   51        0.000  -0.000   0.000  -0.000
   52        0.000  -0.000   0.000   0.000
   53        0.000   0.000   0.000   0.000
   54       -0.000  -0.000   0.000  -0.000
   55        0.000   0.001   0.000   0.001
   56       -0.000  -0.002   0.000  -0.002
   57        0.000   0.006   0.000   0.006
   58       -0.000  -0.000   0.000  -0.000
   59        0.000   0.000   0.000   0.000
--------------------------------------------------
tot         -0.001   0.002   0.000   0.001

 BZINTS: Fermi energy: -4.258110;280.000000 electrons
         Band energy:***********;  BLOECHL correction: -0.000926

 total amount of memory used by VASP MPI-rank0   138718. kBytes
=======================================================================

   base      :      30000. kBytes
   nonl-proj :      33098. kBytes
   fftplans  :       6275. kBytes
   grid      :      18719. kBytes
   one-center:        155. kBytes
   wavefun   :      50471. kBytes

  
  
 General timing and accounting informations for this job:
 ========================================================
  
                  Total CPU time used (sec):      603.585
                            User time (sec):      602.669
                          System time (sec):        0.916
                         Elapsed time (sec):      604.513
  
                   Maximum memory used (kb):      204784.
                   Average memory used (kb):           0.
  
                          Minor page faults:       117746
                          Major page faults:            2
                 Voluntary context switches:         1317
