 vasp.5.4.4.18Apr17-6-g9f103f2a35 (build Jan 14 2022 15:04:31) complex          
  
 executed on             LinuxIFC date 2023.01.27  22:54:36
 running on   48 total cores
 distrk:  each k-point on   48 cores,    1 groups
 distr:  one band on NCORES_PER_BAND=  12 cores,    4 groups


--------------------------------------------------------------------------------------------------------


 INCAR:
 POTCAR:    PAW_PBE C 08Apr2002                   
 POTCAR:    PAW_PBE N 08Apr2002                   
 POTCAR:    PAW_PBE C 08Apr2002                   
 POTCAR:    PAW_PBE Cr_pv 02Aug2007               
 POTCAR:    PAW_PBE C 08Apr2002                   
 POTCAR:    PAW_PBE O 08Apr2002                   
 POTCAR:    PAW_PBE C 08Apr2002                   
   SHA256 =  253f7b50bb8d59471dbedb8285d89021f4a42ed1a2c5d38a03a736e69125dd95 C/
   COPYR  = (c) Copyright 08Apr2002 Georg Kresse                                
   COPYR  = This file is part of the software VASP. Any use, copying, and all ot
   COPYR  = If you do not have a valid VASP license, you may not use, copy or di
   VRHFIN =C: s2p2                                                              
   LEXCH  = PE                                                                  
   EATOM  =   147.1560 eV,   10.8157 Ry                                         
                                                                                
   TITEL  = PAW_PBE C 08Apr2002                                                 
   LULTRA =        F    use ultrasoft PP ?                                      
   IUNSCR =        1    unscreen: 0-lin 1-nonlin 2-no                           
   RPACOR =    1.200    partial core radius                                     
   POMASS =   12.011; ZVAL   =    4.000    mass and valenz                      
   RCORE  =    1.500    outmost cutoff radius                                   
   RWIGS  =    1.630; RWIGS  =    0.863    wigner-seitz radius (au A)           
   ENMAX  =  400.000; ENMIN  =  300.000 eV                                      
   ICORE  =        2    local potential                                         
   LCOR   =        T    correct aug charges                                     
   LPAW   =        T    paw PP                                                  
   EAUG   =  644.873                                                            
   DEXC   =    0.000                                                            
   RMAX   =    1.529    core radius for proj-oper                               
   RAUG   =    1.300    factor for augmentation sphere                          
   RDEP   =    1.501    radius for radial grids                                 
   RDEPT  =    1.300    core radius for aug-charge                              
                                                                                
   Atomic configuration                                                         
    4 entries                                                                   
     n  l   j            E        occ.                                          
     1  0  0.50      -273.3789   2.0000                                         
     2  0  0.50       -13.7508   2.0000                                         
     2  1  0.50        -5.2854   2.0000                                         
     3  2  1.50        -5.4423   0.0000                                         
   Description                                                                  
     l       E           TYP  RCUT    TYP  RCUT                                 
     0    -13.7508458     23  1.200                                             
     0     -8.2022199     23  1.200                                             
     1     -5.2854383     23  1.500                                             
     1     34.0145650     23  1.500                                             
     2     -5.4423304      7  1.500                                             
  local pseudopotential read in
  partial core-charges read in
  partial kinetic energy density read in
  atomic valenz-charges read in
  non local Contribution for L=           0  read in
    real space projection operators read in
  non local Contribution for L=           0  read in
    real space projection operators read in
  non local Contribution for L=           1  read in
    real space projection operators read in
  non local Contribution for L=           1  read in
    real space projection operators read in
    PAW grid and wavefunctions read in
 
   number of l-projection  operators is LMAX  =           4
   number of lm-projection operators is LMMAX =           8
 
 POTCAR:    PAW_PBE N 08Apr2002                   
   SHA256 =  e053789ff3a61a86a1b75d8a110fcc91f86041011e7b0817c7c99e4e8a6349d7 N/
   COPYR  = (c) Copyright 08Apr2002 Georg Kresse                                
   COPYR  = This file is part of the software VASP. Any use, copying, and all ot
   COPYR  = If you do not have a valid VASP license, you may not use, copy or di
   VRHFIN =N: s2p3                                                              
   LEXCH  = PE                                                                  
   EATOM  =   264.5486 eV,   19.4438 Ry                                         
                                                                                
   TITEL  = PAW_PBE N 08Apr2002                                                 
   LULTRA =        F    use ultrasoft PP ?                                      
   IUNSCR =        1    unscreen: 0-lin 1-nonlin 2-no                           
   RPACOR =    1.200    partial core radius                                     
   POMASS =   14.001; ZVAL   =    5.000    mass and valenz                      
   RCORE  =    1.500    outmost cutoff radius                                   
   RWIGS  =    1.400; RWIGS  =    0.741    wigner-seitz radius (au A)           
   ENMAX  =  400.000; ENMIN  =  300.000 eV                                      
   ICORE  =        2    local potential                                         
   LCOR   =        T    correct aug charges                                     
   LPAW   =        T    paw PP                                                  
   EAUG   =  627.112                                                            
   DEXC   =    0.000                                                            
   RMAX   =    1.529    core radius for proj-oper                               
   RAUG   =    1.300    factor for augmentation sphere                          
   RDEP   =    1.514    radius for radial grids                                 
   RDEPT  =    1.338    core radius for aug-charge                              
                                                                                
   Atomic configuration                                                         
    4 entries                                                                   
     n  l   j            E        occ.                                          
     1  0  0.50      -384.7179   2.0000                                         
     2  0  0.50       -18.5828   2.0000                                         
     2  1  0.50        -7.0898   3.0000                                         
     3  2  1.50        -6.8029   0.0000                                         
   Description                                                                  
     l       E           TYP  RCUT    TYP  RCUT                                 
     0    -18.5828119     23  1.200                                             
     0    -13.5018863     23  1.200                                             
     1     -7.0897853     23  1.500                                             
     1      9.5240782     23  1.500                                             
     2     -6.8029130      7  1.500                                             
  local pseudopotential read in
  partial core-charges read in
  partial kinetic energy density read in
  atomic valenz-charges read in
  non local Contribution for L=           0  read in
    real space projection operators read in
  non local Contribution for L=           0  read in
    real space projection operators read in
  non local Contribution for L=           1  read in
    real space projection operators read in
  non local Contribution for L=           1  read in
    real space projection operators read in
    PAW grid and wavefunctions read in
 
   number of l-projection  operators is LMAX  =           4
   number of lm-projection operators is LMMAX =           8
 
 POTCAR:    PAW_PBE C 08Apr2002                   
   SHA256 =  253f7b50bb8d59471dbedb8285d89021f4a42ed1a2c5d38a03a736e69125dd95 C/
   COPYR  = (c) Copyright 08Apr2002 Georg Kresse                                
   COPYR  = This file is part of the software VASP. Any use, copying, and all ot
   COPYR  = If you do not have a valid VASP license, you may not use, copy or di
   VRHFIN =C: s2p2                                                              
   LEXCH  = PE                                                                  
   EATOM  =   147.1560 eV,   10.8157 Ry                                         
                                                                                
   TITEL  = PAW_PBE C 08Apr2002                                                 
   LULTRA =        F    use ultrasoft PP ?                                      
   IUNSCR =        1    unscreen: 0-lin 1-nonlin 2-no                           
   RPACOR =    1.200    partial core radius                                     
   POMASS =   12.011; ZVAL   =    4.000    mass and valenz                      
   RCORE  =    1.500    outmost cutoff radius                                   
   RWIGS  =    1.630; RWIGS  =    0.863    wigner-seitz radius (au A)           
   ENMAX  =  400.000; ENMIN  =  300.000 eV                                      
   ICORE  =        2    local potential                                         
   LCOR   =        T    correct aug charges                                     
   LPAW   =        T    paw PP                                                  
   EAUG   =  644.873                                                            
   DEXC   =    0.000                                                            
   RMAX   =    1.529    core radius for proj-oper                               
   RAUG   =    1.300    factor for augmentation sphere                          
   RDEP   =    1.501    radius for radial grids                                 
   RDEPT  =    1.300    core radius for aug-charge                              
                                                                                
   Atomic configuration                                                         
    4 entries                                                                   
     n  l   j            E        occ.                                          
     1  0  0.50      -273.3789   2.0000                                         
     2  0  0.50       -13.7508   2.0000                                         
     2  1  0.50        -5.2854   2.0000                                         
     3  2  1.50        -5.4423   0.0000                                         
   Description                                                                  
     l       E           TYP  RCUT    TYP  RCUT                                 
     0    -13.7508458     23  1.200                                             
     0     -8.2022199     23  1.200                                             
     1     -5.2854383     23  1.500                                             
     1     34.0145650     23  1.500                                             
     2     -5.4423304      7  1.500                                             
  local pseudopotential read in
  partial core-charges read in
  partial kinetic energy density read in
  atomic valenz-charges read in
  non local Contribution for L=           0  read in
    real space projection operators read in
  non local Contribution for L=           0  read in
    real space projection operators read in
  non local Contribution for L=           1  read in
    real space projection operators read in
  non local Contribution for L=           1  read in
    real space projection operators read in
    PAW grid and wavefunctions read in
 
   number of l-projection  operators is LMAX  =           4
   number of lm-projection operators is LMMAX =           8
 
 POTCAR:    PAW_PBE Cr_pv 02Aug2007               
   SHA256 =  c9a7df34d3cdbacf1090e328ef39c0b420964e11c23f63548d1ac9dd218cdba0 Cr
   COPYR  = (c) Copyright 02Aug2007 Georg Kresse                                
   COPYR  = This file is part of the software VASP. Any use, copying, and all ot
   COPYR  = If you do not have a valid VASP license, you may not use, copy or di
   VRHFIN =Cr : p6d5s1                                                          
   LEXCH  = PE                                                                  
   EATOM  =  1647.9177 eV,  121.1185 Ry                                         
                                                                                
   TITEL  = PAW_PBE Cr_pv 02Aug2007                                             
   LULTRA =        F    use ultrasoft PP ?                                      
   IUNSCR =        1    unscreen: 0-lin 1-nonlin 2-no                           
   RPACOR =    2.080    partial core radius                                     
   POMASS =   51.996; ZVAL   =   12.000    mass and valenz                      
   RCORE  =    2.300    outmost cutoff radius                                   
   RWIGS  =    2.500; RWIGS  =    1.323    wigner-seitz radius (au A)           
   ENMAX  =  265.681; ENMIN  =  199.261 eV                                      
   ICORE  =        3    local potential                                         
   LCOR   =        T    correct aug charges                                     
   LPAW   =        T    paw PP                                                  
   EAUG   =  519.424                                                            
   DEXC   =    0.000                                                            
   RMAX   =    2.356    core radius for proj-oper                               
   RAUG   =    1.300    factor for augmentation sphere                          
   RDEP   =    2.447    radius for radial grids                                 
   RDEPT  =    1.882    core radius for aug-charge                              
                                                                                
   Atomic configuration                                                         
    8 entries                                                                   
     n  l   j            E        occ.                                          
     1  0  0.50     -5880.4963   2.0000                                         
     2  0  0.50      -667.0865   2.0000                                         
     2  1  1.50      -560.6250   6.0000                                         
     3  0  0.50       -73.9860   2.0000                                         
     3  1  1.50       -45.4378   6.0000                                         
     3  2  2.50        -2.9137   5.0000                                         
     4  0  0.50        -4.0071   1.0000                                         
     4  3  2.50        -1.3606   0.0000                                         
   Description                                                                  
     l       E           TYP  RCUT    TYP  RCUT                                 
     1    -45.4377911     23  2.000                                             
     1      1.3605826     23  2.000                                             
     2     -2.9136672     23  2.300                                             
     2     -4.2742498     23  2.300                                             
     0     -4.0071320     23  2.300                                             
     0      9.4498803     23  2.300                                             
     3      2.7211652     23  2.300                                             
  local pseudopotential read in
  partial core-charges read in
  partial kinetic energy density read in
  atomic valenz-charges read in
  non local Contribution for L=           1  read in
    real space projection operators read in
  non local Contribution for L=           1  read in
    real space projection operators read in
  non local Contribution for L=           2  read in
    real space projection operators read in
  non local Contribution for L=           2  read in
    real space projection operators read in
  non local Contribution for L=           0  read in
    real space projection operators read in
  non local Contribution for L=           0  read in
    real space projection operators read in
    PAW grid and wavefunctions read in
 
   number of l-projection  operators is LMAX  =           6
   number of lm-projection operators is LMMAX =          18
 
 POTCAR:    PAW_PBE C 08Apr2002                   
   SHA256 =  253f7b50bb8d59471dbedb8285d89021f4a42ed1a2c5d38a03a736e69125dd95 C/
   COPYR  = (c) Copyright 08Apr2002 Georg Kresse                                
   COPYR  = This file is part of the software VASP. Any use, copying, and all ot
   COPYR  = If you do not have a valid VASP license, you may not use, copy or di
   VRHFIN =C: s2p2                                                              
   LEXCH  = PE                                                                  
   EATOM  =   147.1560 eV,   10.8157 Ry                                         
                                                                                
   TITEL  = PAW_PBE C 08Apr2002                                                 
   LULTRA =        F    use ultrasoft PP ?                                      
   IUNSCR =        1    unscreen: 0-lin 1-nonlin 2-no                           
   RPACOR =    1.200    partial core radius                                     
   POMASS =   12.011; ZVAL   =    4.000    mass and valenz                      
   RCORE  =    1.500    outmost cutoff radius                                   
   RWIGS  =    1.630; RWIGS  =    0.863    wigner-seitz radius (au A)           
   ENMAX  =  400.000; ENMIN  =  300.000 eV                                      
   ICORE  =        2    local potential                                         
   LCOR   =        T    correct aug charges                                     
   LPAW   =        T    paw PP                                                  
   EAUG   =  644.873                                                            
   DEXC   =    0.000                                                            
   RMAX   =    1.529    core radius for proj-oper                               
   RAUG   =    1.300    factor for augmentation sphere                          
   RDEP   =    1.501    radius for radial grids                                 
   RDEPT  =    1.300    core radius for aug-charge                              
                                                                                
   Atomic configuration                                                         
    4 entries                                                                   
     n  l   j            E        occ.                                          
     1  0  0.50      -273.3789   2.0000                                         
     2  0  0.50       -13.7508   2.0000                                         
     2  1  0.50        -5.2854   2.0000                                         
     3  2  1.50        -5.4423   0.0000                                         
   Description                                                                  
     l       E           TYP  RCUT    TYP  RCUT                                 
     0    -13.7508458     23  1.200                                             
     0     -8.2022199     23  1.200                                             
     1     -5.2854383     23  1.500                                             
     1     34.0145650     23  1.500                                             
     2     -5.4423304      7  1.500                                             
  local pseudopotential read in
  partial core-charges read in
  partial kinetic energy density read in
  atomic valenz-charges read in
  non local Contribution for L=           0  read in
    real space projection operators read in
  non local Contribution for L=           0  read in
    real space projection operators read in
  non local Contribution for L=           1  read in
    real space projection operators read in
  non local Contribution for L=           1  read in
    real space projection operators read in
    PAW grid and wavefunctions read in
 
   number of l-projection  operators is LMAX  =           4
   number of lm-projection operators is LMMAX =           8
 
 POTCAR:    PAW_PBE O 08Apr2002                   
   SHA256 =  818f92134a0a090dccd8ba1447fa70422a3b330e708bb4f08108d8ae51209ddf O/
   COPYR  = (c) Copyright 08Apr2002 Georg Kresse                                
   COPYR  = This file is part of the software VASP. Any use, copying, and all ot
   COPYR  = If you do not have a valid VASP license, you may not use, copy or di
   VRHFIN =O: s2p4                                                              
   LEXCH  = PE                                                                  
   EATOM  =   432.3788 eV,   31.7789 Ry                                         
                                                                                
   TITEL  = PAW_PBE O 08Apr2002                                                 
   LULTRA =        F    use ultrasoft PP ?                                      
   IUNSCR =        1    unscreen: 0-lin 1-nonlin 2-no                           
   RPACOR =    1.200    partial core radius                                     
   POMASS =   16.000; ZVAL   =    6.000    mass and valenz                      
   RCORE  =    1.520    outmost cutoff radius                                   
   RWIGS  =    1.550; RWIGS  =    0.820    wigner-seitz radius (au A)           
   ENMAX  =  400.000; ENMIN  =  300.000 eV                                      
   ICORE  =        2    local potential                                         
   LCOR   =        T    correct aug charges                                     
   LPAW   =        T    paw PP                                                  
   EAUG   =  605.392                                                            
   DEXC   =    0.000                                                            
   RMAX   =    1.553    core radius for proj-oper                               
   RAUG   =    1.300    factor for augmentation sphere                          
   RDEP   =    1.550    radius for radial grids                                 
   RDEPT  =    1.329    core radius for aug-charge                              
                                                                                
   Atomic configuration                                                         
    4 entries                                                                   
     n  l   j            E        occ.                                          
     1  0  0.50      -514.6923   2.0000                                         
     2  0  0.50       -23.9615   2.0000                                         
     2  1  0.50        -9.0305   4.0000                                         
     3  2  1.50        -9.5241   0.0000                                         
   Description                                                                  
     l       E           TYP  RCUT    TYP  RCUT                                 
     0    -23.9615318     23  1.200                                             
     0     -9.5240782     23  1.200                                             
     1     -9.0304911     23  1.520                                             
     1      8.1634956     23  1.520                                             
     2     -9.5240782      7  1.500                                             
  local pseudopotential read in
  partial core-charges read in
  partial kinetic energy density read in
  kinetic energy density of atom read in
  atomic valenz-charges read in
  non local Contribution for L=           0  read in
    real space projection operators read in
  non local Contribution for L=           0  read in
    real space projection operators read in
  non local Contribution for L=           1  read in
    real space projection operators read in
  non local Contribution for L=           1  read in
    real space projection operators read in
    PAW grid and wavefunctions read in
 
   number of l-projection  operators is LMAX  =           4
   number of lm-projection operators is LMMAX =           8
 

 ----------------------------------------------------------------------------- 
|                                                                             |
|  ADVICE TO THIS USER RUNNING 'VASP/VAMP'   (HEAR YOUR MASTER'S VOICE ...):  |
|                                                                             |
|      You have a (more or less) 'large supercell' and for larger cells       |
|      it might be more efficient to use real space projection opertators     |
|      So try LREAL= Auto  in the INCAR   file.                               |
|      Mind:          For very  accurate calculation you might also keep the  |
|      reciprocal projection scheme          (i.e. LREAL=.FALSE.)             |
|                                                                             |
 ----------------------------------------------------------------------------- 

  PAW_PBE C 08Apr2002                   :
 energy of atom  1       EATOM= -147.1560
 kinetic energy error for atom=    0.0132 (will be added to EATOM!!)
  PAW_PBE N 08Apr2002                   :
 energy of atom  2       EATOM= -264.5486
 kinetic energy error for atom=    0.0298 (will be added to EATOM!!)
  PAW_PBE C 08Apr2002                   :
 energy of atom  3       EATOM= -147.1560
 kinetic energy error for atom=    0.0132 (will be added to EATOM!!)
  PAW_PBE Cr_pv 02Aug2007               :
 energy of atom  4       EATOM=-1647.9177
 kinetic energy error for atom=    0.0134 (will be added to EATOM!!)
  PAW_PBE C 08Apr2002                   :
 energy of atom  5       EATOM= -147.1560
 kinetic energy error for atom=    0.0132 (will be added to EATOM!!)
  PAW_PBE O 08Apr2002                   :
 energy of atom  6       EATOM= -432.3788
 kinetic energy error for atom=    0.0458 (will be added to EATOM!!)
 
 
 POSCAR: POSCAR-clean                            
  positions in cartesian coordinates
  No initial velocities read in
 exchange correlation table for  LEXCH =        8
   RHO(1)=    0.500       N(1)  =     2000
   RHO(2)=  100.500       N(2)  =     4000

 VTST: version 3.2, (02/03/18)

 CHAIN: initializing optimizer
 
 OPT: Using VASP Dynamics algorithm
 CHAIN: Read ICHAIN            0
 
 POSCAR: POSCAR-clean                            
  positions in cartesian coordinates
  No initial velocities read in
 


--------------------------------------------------------------------------------------------------------


 ion  position               nearest neighbor table
   1  0.001  0.999  0.484-  60 1.41   2 1.42  70 1.43
   2  0.056  0.111  0.484-   1 1.42  13 1.43  15 1.43
   3  0.167  0.001  0.484-  60 1.42   4 1.42  62 1.42
   4  0.223  0.113  0.484-   3 1.42  15 1.42  17 1.44
   5  0.334  0.002  0.484-   6 1.42  62 1.43  64 1.43
   6  0.390  0.113  0.484-   5 1.42  19 1.42  17 1.43
   7  0.500  1.000  0.484-   8 1.42  64 1.43  66 1.44
   8  0.556  0.111  0.484-   7 1.42  21 1.42  19 1.43
   9  0.666  0.998  0.484-  10 1.42  66 1.43  68 1.44
  10  0.722  0.109  0.483-   9 1.42  23 1.43  21 1.43
  11  0.833  0.998  0.484-  12 1.42  70 1.43  68 1.44
  12  0.888  0.109  0.484-  11 1.42  13 1.42  23 1.43
  13  0.999  0.165  0.484-  14 1.42  12 1.42   2 1.43
  14  0.054  0.276  0.484-  13 1.42  27 1.42  25 1.42
  15  0.168  0.168  0.484-  16 1.42   4 1.42   2 1.43
  16  0.223  0.280  0.486-  15 1.42  27 1.43  29 1.44
  17  0.335  0.170  0.485-  18 1.42   6 1.43   4 1.44
  18  0.390  0.281  0.488-  17 1.42  29 1.44  31 1.44
  19  0.501  0.168  0.484-  20 1.42   6 1.42   8 1.43
  20  0.557  0.280  0.486-  19 1.42  33 1.42  31 1.44
  21  0.667  0.165  0.483-  22 1.42   8 1.42  10 1.43
  22  0.723  0.277  0.484-  21 1.42  35 1.42  33 1.43
  23  0.833  0.165  0.484-  24 1.42  10 1.43  12 1.43
  24  0.888  0.276  0.484-  23 1.42  25 1.42  35 1.42
  25  0.999  0.332  0.484-  24 1.42  14 1.42  26 1.43
  26  0.055  0.444  0.485-  39 1.41  37 1.42  25 1.43
  27  0.165  0.333  0.486-  28 1.42  14 1.42  16 1.43
  28  0.219  0.444  0.488-  41 1.41  27 1.42  39 1.42
  29  0.335  0.338  0.489-  30 1.42  18 1.44  16 1.44
  30  0.388  0.449  0.495-  41 1.41  29 1.42  71 2.00
  31  0.503  0.338  0.489-  32 1.42  18 1.44  20 1.44
  32  0.561  0.449  0.496-  43 1.41  31 1.42  71 2.00
  33  0.668  0.333  0.486-  34 1.42  20 1.42  22 1.43
  34  0.725  0.444  0.487-  43 1.41  33 1.42  45 1.42
  35  0.833  0.332  0.484-  22 1.42  24 1.42  36 1.43
  36  0.890  0.444  0.484-  45 1.41  37 1.42  35 1.43
  37  0.000  0.500  0.484-  36 1.42  26 1.42  38 1.42
  38  0.056  0.612  0.484-  49 1.42  47 1.42  37 1.42
  39  0.165  0.500  0.486-  26 1.41  28 1.42  40 1.42
  40  0.220  0.611  0.486-  49 1.41  51 1.42  39 1.42
  41  0.329  0.499  0.491-  30 1.41  28 1.41  42 1.44
  42  0.385  0.612  0.491-  53 1.41  51 1.41  41 1.44
  43  0.671  0.499  0.491-  32 1.41  34 1.41  44 1.44
  44  0.727  0.612  0.491-  55 1.40  57 1.41  43 1.44
  45  0.835  0.500  0.486-  36 1.41  34 1.42  46 1.42
  46  0.891  0.612  0.486-  47 1.41  57 1.42  45 1.42
  47  0.001  0.668  0.484-  46 1.41  38 1.42  48 1.43
  48  0.057  0.780  0.484-  59 1.42  61 1.42  47 1.43
  49  0.166  0.667  0.485-  40 1.41  38 1.42  50 1.43
  50  0.222  0.779  0.484-  61 1.42  63 1.42  49 1.43
  51  0.331  0.667  0.488-  42 1.41  52 1.42  40 1.42
  52  0.388  0.778  0.486-  51 1.42  65 1.42  63 1.43
  53  0.495  0.663  0.495-  42 1.41  54 1.42  71 2.00
  54  0.553  0.773  0.489-  53 1.42  67 1.44  65 1.44
  55  0.668  0.663  0.496-  44 1.40  56 1.42  71 2.00
  56  0.721  0.773  0.489-  55 1.42  69 1.44  67 1.44
  57  0.837  0.668  0.487-  44 1.41  46 1.42  58 1.42
  58  0.891  0.779  0.486-  69 1.42  57 1.42  59 1.42
  59  0.002  0.835  0.484-  60 1.41  48 1.42  58 1.42
  60  0.057  0.946  0.484-  59 1.41   1 1.41   3 1.42
  61  0.168  0.835  0.484-  62 1.42  50 1.42  48 1.42
  62  0.222  0.946  0.484-  61 1.42   3 1.42   5 1.43
  63  0.333  0.835  0.484-  64 1.42  50 1.42  52 1.43
  64  0.389  0.946  0.484-  63 1.42   7 1.43   5 1.43
  65  0.499  0.831  0.486-  66 1.42  52 1.42  54 1.44
  66  0.555  0.943  0.484-  65 1.42   9 1.43   7 1.44
  67  0.665  0.830  0.488-  68 1.42  54 1.44  56 1.44
  68  0.721  0.941  0.485-  67 1.42   9 1.44  11 1.44
  69  0.833  0.831  0.486-  58 1.42  70 1.42  56 1.44
  70  0.889  0.943  0.484-  69 1.42  11 1.43   1 1.43
  71  0.528  0.556  0.541-  53 2.00  32 2.00  30 2.00  55 2.00
  72  0.528  0.556  0.940-  73 1.16
  73  0.478  0.499  0.996-  72 1.16
 

IMPORTANT INFORMATION: All symmetrisations will be switched off!
NOSYMM: (Re-)initialisation of all symmetry stuff for point group C_1.

 
 
 KPOINTS: K-Points                                

Automatic generation of k-mesh.
Space group operators:
 irot       det(A)        alpha          n_x          n_y          n_z        tau_x        tau_y        tau_z
    1     1.000000     0.000000     1.000000     0.000000     0.000000     0.000000     0.000000     0.000000
 
 Subroutine IBZKPT returns following result:
 ===========================================
 
 Found      5 irreducible k-points:
 
 Following reciprocal coordinates:
            Coordinates               Weight
  0.000000  0.000000  0.000000      1.000000
  0.333333 -0.000000  0.000000      2.000000
 -0.000000  0.333333  0.000000      2.000000
  0.333333  0.333333  0.000000      2.000000
 -0.333333  0.333333  0.000000      2.000000
 
 Following cartesian coordinates:
            Coordinates               Weight
  0.000000  0.000000  0.000000      1.000000
  0.022436  0.013066  0.000000      2.000000
  0.000002  0.026131  0.000000      2.000000
  0.022438  0.039197  0.000000      2.000000
 -0.022434  0.013066  0.000000      2.000000
 
 TETIRR: Found     24 inequivalent tetrahedra from       54


--------------------------------------------------------------------------------------------------------




 Dimension of arrays:
   k-points           NKPTS =      5   k-points in BZ     NKDIM =      5   number of bands    NBANDS=    192
   number of dos      NEDOS =   4000   number of ions     NIONS =     73
   non local maximal  LDIM  =      6   non local SUM 2l+1 LMDIM =     18
   total plane-waves  NPLWV = 512000
   max r-space proj   IRMAX =      1   max aug-charges    IRDMAX=   6465
   dimension x,y,z NGX =    80 NGY =   80 NGZ =   80
   dimension x,y,z NGXF=   160 NGYF=  160 NGZF=  160
   support grid    NGXF=   160 NGYF=  160 NGZF=  160
   ions per type =              59   1  10   1   1   1
   NGX,Y,Z   is equivalent  to a cutoff of   8.95,  9.01,  8.87 a.u.
   NGXF,Y,Z  is equivalent  to a cutoff of  17.90, 18.02, 17.73 a.u.

 SYSTEM =  unknown system                          
 POSCAR =  POSCAR-clean                            

 Startparameter for this run:
   NWRITE =      2    write-flag & timer
   PREC   = normal    normal or accurate (medium, high low for compatibility)
   ISTART =      0    job   : 0-new  1-cont  2-samecut
   ICHARG =      2    charge: 1-file 2-atom 10-const
   ISPIN  =      2    spin polarized calculation?
   LNONCOLLINEAR =      F non collinear calculations
   LSORBIT =      F    spin-orbit coupling
   INIWAV =      1    electr: 0-lowe 1-rand  2-diag
   LASPH  =      F    aspherical Exc in radial PAW
   METAGGA=      F    non-selfconsistent MetaGGA calc.

 Electronic Relaxation 1
   ENCUT  =  440.0 eV  32.34 Ry    5.69 a.u.  25.41 25.25 25.66*2*pi/ulx,y,z
   ENINI  =  440.0     initial cutoff
   ENAUG  =  644.9 eV  augmentation charge cutoff
   NELM   =    100;   NELMIN=  2; NELMDL= -5     # of ELM steps 
   EDIFF  = 0.1E-03   stopping-criterion for ELM
   LREAL  =      F    real-space projection
   NLSPLINE    = F    spline interpolate recip. space projectors
   LCOMPAT=      F    compatible to vasp.4.4
   GGA_COMPAT  = T    GGA compatible to vasp.4.4-vasp.4.6
   LMAXPAW     = -100 max onsite density
   LMAXMIX     =    2 max onsite mixed and CHGCAR
   VOSKOWN=      0    Vosko Wilk Nusair interpolation
   ROPT   =    0.00000   0.00000   0.00000   0.00000
   ROPT   =    0.00000   0.00000
 Ionic relaxation
   EDIFFG = -.1E-01   stopping-criterion for IOM
   NSW    =      0    number of steps for IOM
   NBLOCK =      1;   KBLOCK =      1    inner block; outer block 
   IBRION =     -1    ionic relax: 0-MD 1-quasi-New 2-CG
   NFREE  =      0    steps in history (QN), initial steepest desc. (CG)
   ISIF   =      2    stress and relaxation
   IWAVPR =     10    prediction:  0-non 1-charg 2-wave 3-comb
   ISYM   =      0    0-nonsym 1-usesym 2-fastsym
   LCORR  =      T    Harris-Foulkes like correction to forces

   POTIM  = 0.5000    time-step for ionic-motion
   TEIN   =    0.0    initial temperature
   TEBEG  =    0.0;   TEEND  =   0.0 temperature during run
   SMASS  =  -3.00    Nose mass-parameter (am)
   estimated Nose-frequenzy (Omega)   =  0.10E-29 period in steps =****** mass=  -0.504E-26a.u.
   SCALEE = 1.0000    scale energy and forces
   NPACO  =    256;   APACO  = 16.0  distance and # of slots for P.C.
   PSTRESS=    0.0 pullay stress

  Mass of Ions in am
   POMASS =  12.01 14.00 12.01 52.00 12.01 16.00
  Ionic Valenz
   ZVAL   =   4.00  5.00  4.00 12.00  4.00  6.00
  Atomic Wigner-Seitz radii
   RWIGS  =  -1.00 -1.00 -1.00 -1.00 -1.00 -1.00
  virtual crystal weights 
   VCA    =   1.00  1.00  1.00  1.00  1.00  1.00
   NELECT =     303.0000    total number of electrons
   NUPDOWN=      -1.0000    fix difference up-down

 DOS related values:
   EMIN   = -14.00;   EMAX   =  6.00  energy-range for DOS
   EFERMI =   0.00
   ISMEAR =    -5;   SIGMA  =   0.20  broadening in eV -4-tet -1-fermi 0-gaus

 Electronic relaxation 2 (details)
   IALGO  =     38    algorithm
   LDIAG  =      T    sub-space diagonalisation (order eigenvalues)
   LSUBROT=      F    optimize rotation matrix (better conditioning)
   TURBO    =      0    0=normal 1=particle mesh
   IRESTART =      0    0=no restart 2=restart with 2 vectors
   NREBOOT  =      0    no. of reboots
   NMIN     =      0    reboot dimension
   EREF     =   0.00    reference energy to select bands
   IMIX   =      4    mixing-type and parameters
     AMIX     =   0.25;   BMIX     =  0.00
     AMIX_MAG =   1.00;   BMIX_MAG =  0.00
     AMIN     =   0.10
     WC   =   100.;   INIMIX=   1;  MIXPRE=   1;  MAXMIX= -45

 Intra band minimization:
   WEIMIN = 0.0000     energy-eigenvalue tresh-hold
   EBREAK =  0.13E-06  absolut break condition
   DEPER  =   0.30     relativ break condition  

   TIME   =   0.40     timestep for ELM

  volume/ion in A,a.u.               =      38.94       262.81
  Fermi-wavevector in a.u.,A,eV,Ry     =   0.776187  1.466781  8.197059  0.602467
  Thomas-Fermi vector in A             =   1.878612
 
 Write flags
   LWAVE        =      F    write WAVECAR
   LDOWNSAMPLE  =      F    k-point downsampling of WAVECAR
   LCHARG       =      F    write CHGCAR
   LVTOT        =      F    write LOCPOT, total local potential
   LVHAR        =      F    write LOCPOT, Hartree potential only
   LELF         =      F    write electronic localiz. function (ELF)
   LORBIT       =     11    0 simple, 1 ext, 2 COOP (PROOUT), +10 PAW based schemes


 Dipole corrections
   LMONO  =      F    monopole corrections only (constant potential shift)
   LDIPOL =      F    correct potential (dipole corrections)
   IDIPOL =      0    1-x, 2-y, 3-z, 4-all directions 
   EPSILON=  1.0000000 bulk dielectric constant

 Exchange correlation treatment:
   GGA     =    --    GGA type
   LEXCH   =     8    internal setting for exchange type
   VOSKOWN=      0    Vosko Wilk Nusair interpolation
   LHFCALC =     F    Hartree Fock is set to
   LHFONE  =     F    Hartree Fock one center treatment
   AEXX    =    0.0000 exact exchange contribution

 Linear response parameters
   LEPSILON=     F    determine dielectric tensor
   LRPA    =     F    only Hartree local field effects (RPA)
   LNABLA  =     F    use nabla operator in PAW spheres
   LVEL    =     F    velocity operator in full k-point grid
   LINTERFAST=   F  fast interpolation
   KINTER  =     0    interpolate to denser k-point grid
   CSHIFT  =0.1000    complex shift for real part using Kramers Kronig
   OMEGAMAX=  -1.0    maximum frequency
   DEG_THRESHOLD= 0.2000000E-02 threshold for treating states as degnerate
   RTIME   =   -0.100 relaxation time in fs
  (WPLASMAI=    0.000 imaginary part of plasma frequency in eV, 0.658/RTIME)
   DFIELD  = 0.0000000 0.0000000 0.0000000 field for delta impulse in time
 
 Orbital magnetization related:
   ORBITALMAG=     F  switch on orbital magnetization
   LCHIMAG   =     F  perturbation theory with respect to B field
   DQ        =  0.001000  dq finite difference perturbation B field
   LLRAUG    =     F  two centre corrections for induced B field



--------------------------------------------------------------------------------------------------------


 Static calculation
 charge density and potential will be updated during run
 spin polarized calculation
 Variant of blocked Davidson
 Davidson routine will perform the subspace rotation
 perform sub-space diagonalisation
    after iterative eigenvector-optimisation
 modified Broyden-mixing scheme, WC =      100.0
 initial mixing is a Kerker type mixing with AMIX =  0.2500 and BMIX =      0.0001
 Hartree-type preconditioning will be used
 using additional bands           40
 reciprocal scheme for non local part
 use partial core corrections
 calculate Harris-corrections to forces 
   (improved forces if not selfconsistent)
 use gradient corrections 
 use of overlap-Matrix (Vanderbilt PP)
 Fermi weights with tetrahedron method with Bloechl corrections


--------------------------------------------------------------------------------------------------------


  energy-cutoff  :      440.00
  volume of cell :     2842.94
      direct lattice vectors                 reciprocal lattice vectors
    14.857851351 -0.001371368  0.000000000     0.067308101  0.039196736  0.000000000
    -7.428925676 12.756850017  0.000000000     0.000007236  0.078393471  0.000000000
     0.000000000  0.000000000 15.000000000     0.000000000  0.000000000  0.066666667

  length of vectors
    14.857851414 14.762322278 15.000000000     0.077889438  0.078393471  0.066666667


 
 k-points in units of 2pi/SCALE and weight: K-Points                                
   0.00000000  0.00000000  0.00000000       0.111
   0.02243603  0.01306558  0.00000000       0.222
   0.00000241  0.02613116  0.00000000       0.222
   0.02243845  0.03919674  0.00000000       0.222
  -0.02243362  0.01306558  0.00000000       0.222
 
 k-points in reciprocal lattice and weights: K-Points                                
   0.00000000  0.00000000  0.00000000       0.111
   0.33333333 -0.00000000  0.00000000       0.222
  -0.00000000  0.33333333  0.00000000       0.222
   0.33333333  0.33333333  0.00000000       0.222
  -0.33333333  0.33333333  0.00000000       0.222
 
 position of ions in fractional coordinates (direct lattice) 
   0.00058219  0.99935926  0.48361517
   0.05611163  0.11069791  0.48366768
   0.16689339  0.00149220  0.48354023
   0.22253947  0.11263392  0.48422669
   0.33370049  0.00208454  0.48366611
   0.38983950  0.11330063  0.48432411
   0.49987377  0.99981906  0.48367506
   0.55572992  0.11132702  0.48360264
   0.66594224  0.99776365  0.48419994
   0.72163423  0.10915827  0.48347940
   0.83298704  0.99788658  0.48429782
   0.88807791  0.10910724  0.48367372
   0.99899143  0.16484912  0.48375312
   0.05442683  0.27640884  0.48442663
   0.16750908  0.16832130  0.48432243
   0.22305038  0.27957686  0.48599780
   0.33472177  0.16959607  0.48536795
   0.39048834  0.28105108  0.48846629
   0.50081853  0.16809000  0.48436821
   0.55678542  0.27969081  0.48597873
   0.66662937  0.16549309  0.48346352
   0.72256947  0.27675433  0.48396925
   0.83263223  0.16486473  0.48355845
   0.88832214  0.27626647  0.48370058
   0.99911688  0.33207006  0.48425661
   0.05452674  0.44387750  0.48471700
   0.16530789  0.33279807  0.48596617
   0.21918614  0.44381918  0.48768173
   0.33539762  0.33779578  0.48932234
   0.38768734  0.44850649  0.49537690
   0.50258729  0.33775704  0.48941219
   0.56126251  0.44865954  0.49558313
   0.66768693  0.33294253  0.48561099
   0.72489784  0.44399765  0.48723347
   0.83332919  0.33224660  0.48385258
   0.88952812  0.44395733  0.48418725
   0.00002891  0.50006420  0.48420154
   0.05574171  0.61169290  0.48420659
   0.16453224  0.49981785  0.48629492
   0.22027216  0.61135551  0.48627130
   0.32902481  0.49925378  0.49111488
   0.38525669  0.61179508  0.49111814
   0.67063739  0.49948993  0.49116103
   0.72720452  0.61227798  0.49112706
   0.83544695  0.49995187  0.48552794
   0.89129504  0.61160671  0.48550207
   0.00113043  0.66789896  0.48418253
   0.05690413  0.77995138  0.48383992
   0.16612577  0.66730540  0.48472099
   0.22239046  0.77905416  0.48425436
   0.33092294  0.66727036  0.48764049
   0.38815964  0.77833972  0.48595914
   0.49469502  0.66250720  0.49541457
   0.55325276  0.77330525  0.48931271
   0.66841213  0.66252789  0.49577105
   0.72074082  0.77344367  0.48941219
   0.83720554  0.66782487  0.48713267
   0.89103918  0.77922556  0.48561473
   0.00190267  0.83547413  0.48403508
   0.05667564  0.94563673  0.48351716
   0.16763526  0.83478747  0.48368298
   0.22230769  0.94599416  0.48355674
   0.33328249  0.83456774  0.48443722
   0.38884076  0.94568620  0.48376188
   0.49901659  0.83149464  0.48600825
   0.55492977  0.94302166  0.48433037
   0.66516404  0.82983686  0.48844457
   0.72103493  0.94096459  0.48534207
   0.83254107  0.83132063  0.48596779
   0.88922013  0.94288722  0.48432974
   0.52787867  0.55556686  0.54085810
   0.52787867  0.55556686  0.93952477
   0.47782113  0.49866313  0.99588058
 
 position of ions in cartesian coordinates  (Angst):
  -7.41551560 12.74867540  7.25422749
   0.01133175  1.41207972  7.25501514
   2.46859169  0.01880686  7.25310346
   2.46970928  1.43654886  7.26340041
   4.94258636  0.02613451  7.25499169
   4.95047538  1.44482458  7.26486162
  -0.00053138 12.75385634  7.25512597
   7.42991241  1.41942002  7.25403958
   2.48215873 12.72740804  7.26299912
   9.91100541  1.39152604  7.25219098
   4.96317235 12.72874712  7.26446735
  12.38437992  1.39064682  7.25510580
  13.61821425  2.10158553  7.25629686
  -1.24475490  3.52603146  7.26639944
   1.23837860  2.14701987  7.26483649
   1.23709366  3.56621416  7.28996703
   3.71332965  2.16305264  7.28051931
   3.71391014  3.58479097  7.32699430
   6.19235908  2.14361213  7.26552318
   6.19483273  3.56721015  7.28968099
   8.67524429  2.11025634  7.25195281
   8.67984251  3.52952255  7.25953881
  11.14635801  2.10201279  7.25337675
  11.14619521  3.52307171  7.25550863
  12.37780636  4.23479779  7.26384916
  -2.48738281  5.66240389  7.27075493
  -0.01621217  4.24522842  7.28949261
  -0.04046467  5.66143411  7.31522588
   2.47382821  4.30875014  7.33983505
   2.42827958  5.72099833  7.43065351
   4.95819533  4.30802665  7.34118285
   5.00609651  5.72271279  7.43374691
   7.44698788  4.24638224  7.28416479
   7.47199883  5.66301734  7.30850207
   9.91324595  4.23727727  7.25778874
   9.91835049  5.66227723  7.26280874
  -3.71451025  6.37924402  7.26302307
  -3.71601915  7.80319820  7.26309889
  -1.26851414  6.37587568  7.29442376
  -1.26894361  7.79866850  7.29406954
   1.17968248  6.36845435  7.36672314
   1.17910641  7.80404979  7.36677206
   6.25355713  6.37099840  7.36741544
   6.25612897  7.80974114  7.36690596
   8.69884123  6.37666536  7.28291916
   8.69914844  7.80095271  7.28253108
  -4.94497593  8.52028529  7.26273801
  -4.94872765  9.94964473  7.25759878
  -2.48909023  8.51248709  7.27081479
  -2.48329103  9.93797214  7.26381540
  -0.04029806  8.51181415  7.31460739
  -0.01500966  9.92863077  7.28938712
   2.42838829  8.45082663  7.43121852
   2.47532009  9.86418036  7.33969071
   5.00929759  8.45085223  7.43656571
   4.96280434  9.86571653  7.34118288
   7.47785418  8.51819358  7.30698999
   7.45011895  9.93924164  7.28422100
  -6.17840560 10.65801560  7.26052627
  -6.18298681 12.06326821  7.25275736
  -3.71087432 10.64902868  7.25524474
  -3.72470568 12.06760072  7.25335103
  -1.24807997 10.64599843  7.26655823
  -1.24809429 12.06344373  7.25642817
   1.23720241 10.60656811  7.29012368
   1.23942616 12.02922483  7.26495559
   3.71811200 10.58519218  7.32666849
   3.72267377 12.00275532  7.28013102
   6.19395222 10.60389090  7.28951678
   6.20726146 12.02705139  7.26494614
   3.71587789  7.08655920  8.11287149
   3.71587789  7.08655920 14.09287149
   3.39486394  6.36071550 14.93820867
 


--------------------------------------------------------------------------------------------------------


 k-point  1 :   0.0000 0.0000 0.0000  plane waves:   59585
 k-point  2 :   0.3333-0.0000 0.0000  plane waves:   59554
 k-point  3 :  -0.0000 0.3333 0.0000  plane waves:   59612
 k-point  4 :   0.3333 0.3333 0.0000  plane waves:   59626
 k-point  5 :  -0.3333 0.3333 0.0000  plane waves:   59552

 maximum and minimum number of plane-waves per node :      4998     4938

 maximum number of plane-waves:     59626
 maximum index in each direction: 
   IXMAX=   25   IYMAX=   25   IZMAX=   25
   IXMIN=  -25   IYMIN=  -25   IZMIN=  -25


 parallel 3D FFT for wavefunctions:
    minimum data exchange during FFTs selected (reduces bandwidth)
 parallel 3D FFT for charge:
    minimum data exchange during FFTs selected (reduces bandwidth)


 total amount of memory used by VASP MPI-rank0   116041. kBytes
=======================================================================

   base      :      30000. kBytes
   nonl-proj :      27286. kBytes
   fftplans  :       4700. kBytes
   grid      :      15193. kBytes
   one-center:        217. kBytes
   wavefun   :      38645. kBytes
 
     INWAV:  cpu time    0.0000: real time    0.0000
 Broyden mixing: mesh for mixing (old mesh)
   NGX = 51   NGY = 51   NGZ = 51
  (NGX  =160   NGY  =160   NGZ  =160)
  gives a total of 132651 points

 initial charge density was supplied:
 charge density of overlapping atoms calculated
 number of electron     303.0000000 magnetization       2.0000000
 keeping initial charge density in first step


--------------------------------------------------------------------------------------------------------


 Maximum index for augmentation-charges          178 (set IRDMAX)


--------------------------------------------------------------------------------------------------------


 First call to EWALD:  gamma=   0.125
 Maximum number of real-space cells 3x 3x 3
 Maximum number of reciprocal cells 3x 3x 3

    FEWALD:  cpu time    0.0045: real time    0.0048


--------------------------------------- Iteration      1(   1)  ---------------------------------------


    POTLOK:  cpu time    0.2540: real time    0.2851
    SETDIJ:  cpu time    0.0090: real time    0.0100
     EDDAV:  cpu time   12.3779: real time   12.5540
 BZINTS: Fermi energy:  7.991227;303.000000 electrons
         Band energy:***********;  BLOECHL correction: -0.017462
       DOS:  cpu time    0.1125: real time    0.1128
    --------------------------------------------
      LOOP:  cpu time   12.7535: real time   12.9619

 eigenvalue-minimisations  :  4360
 total energy-change (2. order) : 0.2526721E+04  (-0.1118228E+05)
 number of electron     303.0000000 magnetization       2.0000000
 augmentation part      303.0000000 magnetization       2.0000000

 Free energy of the ion-electron system (eV)
  ---------------------------------------------------
  alpha Z        PSCENC =       167.26514232
  Ewald energy   TEWEN  =     28890.59165691
  -Hartree energ DENC   =    -38568.96241136
  -exchange      EXHF   =         0.00000000
  -V(xc)+E(xc)   XCENC  =      1022.18195353
  PAW double counting   =      9455.23336183    -9546.47664214
  entropy T*S    EENTRO =         0.00000000
  eigenvalues    EBANDS =     -1537.86494140
  atomic energy  EATOM  =     12644.75315347
  Solvation  Ediel_sol  =         0.00000000
  ---------------------------------------------------
  free energy    TOTEN  =      2526.72127317 eV

  energy without entropy =     2526.72127317  energy(sigma->0) =     2526.72127317


--------------------------------------------------------------------------------------------------------




--------------------------------------- Iteration      1(   2)  ---------------------------------------


     EDDAV:  cpu time   15.8289: real time   16.1024
 BZINTS: Fermi energy: -1.371769;303.000000 electrons
         Band energy:***********;  BLOECHL correction: -0.066482
       DOS:  cpu time    0.0113: real time    0.0113
    --------------------------------------------
      LOOP:  cpu time   15.8402: real time   16.1137

 eigenvalue-minimisations  :  5496
 total energy-change (2. order) :-0.2769401E+04  (-0.2644985E+04)
 number of electron     303.0000000 magnetization       2.0000000
 augmentation part      303.0000000 magnetization       2.0000000

 Free energy of the ion-electron system (eV)
  ---------------------------------------------------
  alpha Z        PSCENC =       167.26514232
  Ewald energy   TEWEN  =     28890.59165691
  -Hartree energ DENC   =    -38568.96241136
  -exchange      EXHF   =         0.00000000
  -V(xc)+E(xc)   XCENC  =      1022.18195353
  PAW double counting   =      9455.23336183    -9546.47664214
  entropy T*S    EENTRO =         0.00000000
  eigenvalues    EBANDS =     -4307.26597341
  atomic energy  EATOM  =     12644.75315347
  Solvation  Ediel_sol  =         0.00000000
  ---------------------------------------------------
  free energy    TOTEN  =      -242.67975884 eV

  energy without entropy =     -242.67975884  energy(sigma->0) =     -242.67975884


--------------------------------------------------------------------------------------------------------




--------------------------------------- Iteration      1(   3)  ---------------------------------------


     EDDAV:  cpu time   13.6139: real time   13.7308
 BZINTS: Fermi energy: -4.535996;303.000000 electrons
         Band energy:***********;  BLOECHL correction: -0.050197
       DOS:  cpu time    0.0116: real time    0.0119
    --------------------------------------------
      LOOP:  cpu time   13.6256: real time   13.7428

 eigenvalue-minimisations  :  4584
 total energy-change (2. order) :-0.4599244E+03  (-0.4565771E+03)
 number of electron     303.0000000 magnetization       2.0000000
 augmentation part      303.0000000 magnetization       2.0000000

 Free energy of the ion-electron system (eV)
  ---------------------------------------------------
  alpha Z        PSCENC =       167.26514232
  Ewald energy   TEWEN  =     28890.59165691
  -Hartree energ DENC   =    -38568.96241136
  -exchange      EXHF   =         0.00000000
  -V(xc)+E(xc)   XCENC  =      1022.18195353
  PAW double counting   =      9455.23336183    -9546.47664214
  entropy T*S    EENTRO =         0.00000000
  eigenvalues    EBANDS =     -4767.19034788
  atomic energy  EATOM  =     12644.75315347
  Solvation  Ediel_sol  =         0.00000000
  ---------------------------------------------------
  free energy    TOTEN  =      -702.60413331 eV

  energy without entropy =     -702.60413331  energy(sigma->0) =     -702.60413331


--------------------------------------------------------------------------------------------------------




--------------------------------------- Iteration      1(   4)  ---------------------------------------


     EDDAV:  cpu time   13.5845: real time   13.8042
 BZINTS: Fermi energy: -4.703832;303.000000 electrons
         Band energy:***********;  BLOECHL correction: -0.046210
       DOS:  cpu time    0.0116: real time    0.0116
    --------------------------------------------
      LOOP:  cpu time   13.5960: real time   13.8158

 eigenvalue-minimisations  :  4632
 total energy-change (2. order) :-0.1659380E+02  (-0.1645197E+02)
 number of electron     303.0000000 magnetization       2.0000000
 augmentation part      303.0000000 magnetization       2.0000000

 Free energy of the ion-electron system (eV)
  ---------------------------------------------------
  alpha Z        PSCENC =       167.26514232
  Ewald energy   TEWEN  =     28890.59165691
  -Hartree energ DENC   =    -38568.96241136
  -exchange      EXHF   =         0.00000000
  -V(xc)+E(xc)   XCENC  =      1022.18195353
  PAW double counting   =      9455.23336183    -9546.47664214
  entropy T*S    EENTRO =         0.00000000
  eigenvalues    EBANDS =     -4783.78414775
  atomic energy  EATOM  =     12644.75315347
  Solvation  Ediel_sol  =         0.00000000
  ---------------------------------------------------
  free energy    TOTEN  =      -719.19793318 eV

  energy without entropy =     -719.19793318  energy(sigma->0) =     -719.19793318


--------------------------------------------------------------------------------------------------------




--------------------------------------- Iteration      1(   5)  ---------------------------------------


     EDDAV:  cpu time   14.8151: real time   15.0749
 BZINTS: Fermi energy: -4.714102;303.000000 electrons
         Band energy:***********;  BLOECHL correction: -0.045707
       DOS:  cpu time    0.0104: real time    0.0105
    CHARGE:  cpu time    0.1636: real time    0.1675
    MIXING:  cpu time    0.0050: real time    0.0050
    --------------------------------------------
      LOOP:  cpu time   14.9941: real time   15.2579

 eigenvalue-minimisations  :  5208
 total energy-change (2. order) :-0.5383191E+00  (-0.5365799E+00)
 number of electron     302.9999968 magnetization       0.0150544
 augmentation part       12.3761541 magnetization       0.0669852

 Broyden mixing:
  rms(total) = 0.47657E+01    rms(broyden)= 0.47651E+01
  rms(prec ) = 0.55231E+01
  weight for this iteration     100.00

 Free energy of the ion-electron system (eV)
  ---------------------------------------------------
  alpha Z        PSCENC =       167.26514232
  Ewald energy   TEWEN  =     28890.59165691
  -Hartree energ DENC   =    -38568.96241136
  -exchange      EXHF   =         0.00000000
  -V(xc)+E(xc)   XCENC  =      1022.18195353
  PAW double counting   =      9455.23336183    -9546.47664214
  entropy T*S    EENTRO =         0.00000000
  eigenvalues    EBANDS =     -4784.32246683
  atomic energy  EATOM  =     12644.75315347
  Solvation  Ediel_sol  =         0.00000000
  ---------------------------------------------------
  free energy    TOTEN  =      -719.73625226 eV

  energy without entropy =     -719.73625226  energy(sigma->0) =     -719.73625226


--------------------------------------------------------------------------------------------------------




--------------------------------------- Iteration      1(   6)  ---------------------------------------


    POTLOK:  cpu time    0.1778: real time    0.1804
    SETDIJ:  cpu time    0.0110: real time    0.0110
     EDDAV:  cpu time   13.4191: real time   13.5903
 BZINTS: Fermi energy: -5.525943;303.000000 electrons
         Band energy:***********;  BLOECHL correction: -0.039477
       DOS:  cpu time    0.0119: real time    0.0119
    CHARGE:  cpu time    0.1667: real time    0.1733
    MIXING:  cpu time    0.0031: real time    0.0036
    --------------------------------------------
      LOOP:  cpu time   13.7896: real time   13.9705

 eigenvalue-minimisations  :  4896
 total energy-change (2. order) : 0.4349986E-01  (-0.8843370E+01)
 number of electron     303.0000014 magnetization       0.0296635
 augmentation part       17.9190559 magnetization      -0.2043496

 Broyden mixing:
  rms(total) = 0.16329E+02    rms(broyden)= 0.16329E+02
  rms(prec ) = 0.16880E+02
  weight for this iteration     100.00

 eigenvalues of (default mixing * dielectric matrix)
  average eigenvalue GAMMA=   0.0363
  0.0363

 Free energy of the ion-electron system (eV)
  ---------------------------------------------------
  alpha Z        PSCENC =       167.26514232
  Ewald energy   TEWEN  =     28890.59165691
  -Hartree energ DENC   =    -38944.82218120
  -exchange      EXHF   =         0.00000000
  -V(xc)+E(xc)   XCENC  =      1034.97041072
  PAW double counting   =     13242.17508691   -13333.38683798
  entropy T*S    EENTRO =         0.00000000
  eigenvalues    EBANDS =     -4421.23918355
  atomic energy  EATOM  =     12644.75315347
  Solvation  Ediel_sol  =         0.00000000
  ---------------------------------------------------
  free energy    TOTEN  =      -719.69275240 eV

  energy without entropy =     -719.69275240  energy(sigma->0) =     -719.69275240


--------------------------------------------------------------------------------------------------------




--------------------------------------- Iteration      1(   7)  ---------------------------------------


    POTLOK:  cpu time    0.1358: real time    0.1445
    SETDIJ:  cpu time    0.0091: real time    0.0091
     EDDAV:  cpu time   14.6676: real time   14.9076
 BZINTS: Fermi energy: -5.383341;303.000000 electrons
         Band energy:***********;  BLOECHL correction: -0.012146
       DOS:  cpu time    0.0120: real time    0.0120
    CHARGE:  cpu time    0.2045: real time    0.2112
    MIXING:  cpu time    0.0040: real time    0.0044
    --------------------------------------------
      LOOP:  cpu time   15.0330: real time   15.2888

 eigenvalue-minimisations  :  5144
 total energy-change (2. order) : 0.1960551E+02  (-0.3808940E+01)
 number of electron     303.0000011 magnetization       0.0053854
 augmentation part       17.2838002 magnetization       0.0318454

 Broyden mixing:
  rms(total) = 0.54796E+01    rms(broyden)= 0.54796E+01
  rms(prec ) = 0.65645E+01
  weight for this iteration     100.00

 eigenvalues of (default mixing * dielectric matrix)
  average eigenvalue GAMMA=   0.2383
  0.3614  0.1151

 Free energy of the ion-electron system (eV)
  ---------------------------------------------------
  alpha Z        PSCENC =       167.26514232
  Ewald energy   TEWEN  =     28890.59165691
  -Hartree energ DENC   =    -38992.74213673
  -exchange      EXHF   =         0.00000000
  -V(xc)+E(xc)   XCENC  =      1036.56654689
  PAW double counting   =     13990.89085083   -14083.61952946
  entropy T*S    EENTRO =         0.00000000
  eigenvalues    EBANDS =     -4353.79292409
  atomic energy  EATOM  =     12644.75315347
  Solvation  Ediel_sol  =         0.00000000
  ---------------------------------------------------
  free energy    TOTEN  =      -700.08723986 eV

  energy without entropy =     -700.08723986  energy(sigma->0) =     -700.08723986


--------------------------------------------------------------------------------------------------------




--------------------------------------- Iteration      1(   8)  ---------------------------------------


    POTLOK:  cpu time    0.1593: real time    0.1619
    SETDIJ:  cpu time    0.0109: real time    0.0109
     EDDAV:  cpu time   13.9321: real time   14.0442
 BZINTS: Fermi energy: -3.127222;303.000000 electrons
         Band energy:***********;  BLOECHL correction: -0.026598
       DOS:  cpu time    0.0111: real time    0.0112
    CHARGE:  cpu time    0.1633: real time    0.1647
    MIXING:  cpu time    0.0034: real time    0.0035
    --------------------------------------------
      LOOP:  cpu time   14.2801: real time   14.3964

 eigenvalue-minimisations  :  4984
 total energy-change (2. order) : 0.2279341E+02  (-0.5385308E+01)
 number of electron     302.9999975 magnetization       0.0030990
 augmentation part       12.4015818 magnetization       0.0086586

 Broyden mixing:
  rms(total) = 0.29899E+01    rms(broyden)= 0.29891E+01
  rms(prec ) = 0.35535E+01
  weight for this iteration     100.00

 eigenvalues of (default mixing * dielectric matrix)
  average eigenvalue GAMMA=   0.7563
  1.9080  0.2212  0.1397

 Free energy of the ion-electron system (eV)
  ---------------------------------------------------
  alpha Z        PSCENC =       167.26514232
  Ewald energy   TEWEN  =     28890.59165691
  -Hartree energ DENC   =    -39144.69495197
  -exchange      EXHF   =         0.00000000
  -V(xc)+E(xc)   XCENC  =      1041.25893082
  PAW double counting   =     15179.34332069   -15276.20574632
  entropy T*S    EENTRO =         0.00000000
  eigenvalues    EBANDS =     -4179.60534050
  atomic energy  EATOM  =     12644.75315347
  Solvation  Ediel_sol  =         0.00000000
  ---------------------------------------------------
  free energy    TOTEN  =      -677.29383457 eV

  energy without entropy =     -677.29383457  energy(sigma->0) =     -677.29383457


--------------------------------------------------------------------------------------------------------




--------------------------------------- Iteration      1(   9)  ---------------------------------------


    POTLOK:  cpu time    0.1595: real time    0.1748
    SETDIJ:  cpu time    0.0107: real time    0.0108
     EDDAV:  cpu time   13.3481: real time   13.5229
 BZINTS: Fermi energy: -3.319691;303.000000 electrons
         Band energy:***********;  BLOECHL correction: -0.086000
       DOS:  cpu time    0.0115: real time    0.0116
    CHARGE:  cpu time    0.1619: real time    0.1630
    MIXING:  cpu time    0.0037: real time    0.0037
    --------------------------------------------
      LOOP:  cpu time   13.6954: real time   13.8867

 eigenvalue-minimisations  :  4608
 total energy-change (2. order) : 0.1188765E+02  (-0.2991660E+01)
 number of electron     303.0000010 magnetization       0.0021599
 augmentation part       15.1760065 magnetization       0.0014373

 Broyden mixing:
  rms(total) = 0.22768E+01    rms(broyden)= 0.22751E+01
  rms(prec ) = 0.28674E+01
  weight for this iteration     100.00

 eigenvalues of (default mixing * dielectric matrix)
  average eigenvalue GAMMA=   0.8091
  2.0346  0.8582  0.1436  0.1998

 Free energy of the ion-electron system (eV)
  ---------------------------------------------------
  alpha Z        PSCENC =       167.26514232
  Ewald energy   TEWEN  =     28890.59165691
  -Hartree energ DENC   =    -39605.76299296
  -exchange      EXHF   =         0.00000000
  -V(xc)+E(xc)   XCENC  =      1057.64556623
  PAW double counting   =     22537.17492746   -22638.24962329
  entropy T*S    EENTRO =         0.00000000
  eigenvalues    EBANDS =     -3718.82401304
  atomic energy  EATOM  =     12644.75315347
  Solvation  Ediel_sol  =         0.00000000
  ---------------------------------------------------
  free energy    TOTEN  =      -665.40618290 eV

  energy without entropy =     -665.40618290  energy(sigma->0) =     -665.40618290


--------------------------------------------------------------------------------------------------------




--------------------------------------- Iteration      1(  10)  ---------------------------------------


    POTLOK:  cpu time    0.1485: real time    0.1505
    SETDIJ:  cpu time    0.0089: real time    0.0089
     EDDAV:  cpu time   13.7772: real time   13.8661
 BZINTS: Fermi energy: -1.507349;303.000000 electrons
         Band energy:***********;  BLOECHL correction: -0.058769
       DOS:  cpu time    0.0111: real time    0.0112
    CHARGE:  cpu time    0.1648: real time    0.1653
    MIXING:  cpu time    0.0038: real time    0.0038
    --------------------------------------------
      LOOP:  cpu time   14.1142: real time   14.2058

 eigenvalue-minimisations  :  5056
 total energy-change (2. order) : 0.2712310E+01  (-0.3059030E+01)
 number of electron     302.9999990 magnetization      -0.0042873
 augmentation part       12.4437924 magnetization      -0.0062328

 Broyden mixing:
  rms(total) = 0.16026E+01    rms(broyden)= 0.16011E+01
  rms(prec ) = 0.18904E+01
  weight for this iteration     100.00

 eigenvalues of (default mixing * dielectric matrix)
  average eigenvalue GAMMA=   1.0378
  3.2375  0.9516  0.6614  0.1445  0.1939

 Free energy of the ion-electron system (eV)
  ---------------------------------------------------
  alpha Z        PSCENC =       167.26514232
  Ewald energy   TEWEN  =     28890.59165691
  -Hartree energ DENC   =    -39705.22979167
  -exchange      EXHF   =         0.00000000
  -V(xc)+E(xc)   XCENC  =      1061.17811993
  PAW double counting   =     24731.32802313   -24833.57353518
  entropy T*S    EENTRO =         0.00000000
  eigenvalues    EBANDS =     -3619.00664148
  atomic energy  EATOM  =     12644.75315347
  Solvation  Ediel_sol  =         0.00000000
  ---------------------------------------------------
  free energy    TOTEN  =      -662.69387257 eV

  energy without entropy =     -662.69387257  energy(sigma->0) =     -662.69387257


--------------------------------------------------------------------------------------------------------




--------------------------------------- Iteration      1(  11)  ---------------------------------------


    POTLOK:  cpu time    0.1581: real time    0.1606
    SETDIJ:  cpu time    0.0111: real time    0.0111
     EDDAV:  cpu time   13.4264: real time   13.6083
 BZINTS: Fermi energy: -1.892796;303.000000 electrons
         Band energy:***********;  BLOECHL correction: -0.000755
       DOS:  cpu time    0.0123: real time    0.0123
    CHARGE:  cpu time    0.1621: real time    0.1630
    MIXING:  cpu time    0.0039: real time    0.0039
    --------------------------------------------
      LOOP:  cpu time   13.7738: real time   13.9592

 eigenvalue-minimisations  :  4784
 total energy-change (2. order) : 0.8738351E+00  (-0.6384849E+00)
 number of electron     303.0000009 magnetization      -0.4158919
 augmentation part       13.8421733 magnetization      -0.1160676

 Broyden mixing:
  rms(total) = 0.10571E+01    rms(broyden)= 0.10562E+01
  rms(prec ) = 0.11889E+01
  weight for this iteration     100.00

 eigenvalues of (default mixing * dielectric matrix)
  average eigenvalue GAMMA=   0.9187
  3.2773  0.8252  0.8252  0.1445  0.1939  0.2461

 Free energy of the ion-electron system (eV)
  ---------------------------------------------------
  alpha Z        PSCENC =       167.26514232
  Ewald energy   TEWEN  =     28890.59165691
  -Hartree energ DENC   =    -39837.19619723
  -exchange      EXHF   =         0.00000000
  -V(xc)+E(xc)   XCENC  =      1066.21421326
  PAW double counting   =     29012.55390017   -29115.35142161
  entropy T*S    EENTRO =         0.00000000
  eigenvalues    EBANDS =     -3490.65048470
  atomic energy  EATOM  =     12644.75315347
  Solvation  Ediel_sol  =         0.00000000
  ---------------------------------------------------
  free energy    TOTEN  =      -661.82003742 eV

  energy without entropy =     -661.82003742  energy(sigma->0) =     -661.82003742


--------------------------------------------------------------------------------------------------------




--------------------------------------- Iteration      1(  12)  ---------------------------------------


    POTLOK:  cpu time    0.1465: real time    0.1484
    SETDIJ:  cpu time    0.0092: real time    0.0098
     EDDAV:  cpu time   13.1023: real time   13.1970
 BZINTS: Fermi energy: -1.891972;303.000000 electrons
         Band energy:***********;  BLOECHL correction:  0.000000
       DOS:  cpu time    0.0076: real time    0.0076
    CHARGE:  cpu time    0.1630: real time    0.1644
    MIXING:  cpu time    0.0040: real time    0.0040
    --------------------------------------------
      LOOP:  cpu time   13.4325: real time   13.5311

 eigenvalue-minimisations  :  4720
 total energy-change (2. order) : 0.8729966E-01  (-0.1315528E+00)
 number of electron     303.0000004 magnetization      -1.0267782
 augmentation part       13.5888825 magnetization      -0.6362263

 Broyden mixing:
  rms(total) = 0.82231E+00    rms(broyden)= 0.82197E+00
  rms(prec ) = 0.87132E+00
  weight for this iteration     100.00

 eigenvalues of (default mixing * dielectric matrix)
  average eigenvalue GAMMA=   1.0372
  3.4343  1.0389  1.0389  0.7049  0.7049  0.1445  0.1941

 Free energy of the ion-electron system (eV)
  ---------------------------------------------------
  alpha Z        PSCENC =       167.26514232
  Ewald energy   TEWEN  =     28890.59165691
  -Hartree energ DENC   =    -39808.05854163
  -exchange      EXHF   =         0.00000000
  -V(xc)+E(xc)   XCENC  =      1065.39181854
  PAW double counting   =     29776.09901209   -29878.41324022
  entropy T*S    EENTRO =         0.00000000
  eigenvalues    EBANDS =     -3519.36173924
  atomic energy  EATOM  =     12644.75315347
  Solvation  Ediel_sol  =         0.00000000
  ---------------------------------------------------
  free energy    TOTEN  =      -661.73273776 eV

  energy without entropy =     -661.73273776  energy(sigma->0) =     -661.73273776


--------------------------------------------------------------------------------------------------------




--------------------------------------- Iteration      1(  13)  ---------------------------------------


    POTLOK:  cpu time    0.1359: real time    0.1382
    SETDIJ:  cpu time    0.0090: real time    0.0091
     EDDAV:  cpu time   13.3975: real time   13.5957
 BZINTS: Fermi energy: -1.914464;303.000000 electrons
         Band energy:***********;  BLOECHL correction:  0.000000
       DOS:  cpu time    0.0067: real time    0.0068
    CHARGE:  cpu time    0.1634: real time    0.1648
    MIXING:  cpu time    0.0041: real time    0.0043
    --------------------------------------------
      LOOP:  cpu time   13.7167: real time   13.9188

 eigenvalue-minimisations  :  4688
 total energy-change (2. order) :-0.2613294E+00  (-0.3828751E-01)
 number of electron     303.0000003 magnetization      -1.1751647
 augmentation part       13.6700380 magnetization      -1.0181115

 Broyden mixing:
  rms(total) = 0.67002E+00    rms(broyden)= 0.66996E+00
  rms(prec ) = 0.74503E+00
  weight for this iteration     100.00

 eigenvalues of (default mixing * dielectric matrix)
  average eigenvalue GAMMA=   1.0929
  3.4981  1.3527  1.3527  0.8168  0.8168  0.1445  0.1940  0.5678

 Free energy of the ion-electron system (eV)
  ---------------------------------------------------
  alpha Z        PSCENC =       167.26514232
  Ewald energy   TEWEN  =     28890.59165691
  -Hartree energ DENC   =    -39796.19342555
  -exchange      EXHF   =         0.00000000
  -V(xc)+E(xc)   XCENC  =      1065.27467632
  PAW double counting   =     30898.88784553   -31000.64521458
  entropy T*S    EENTRO =         0.00000000
  eigenvalues    EBANDS =     -3531.92790155
  atomic energy  EATOM  =     12644.75315347
  Solvation  Ediel_sol  =         0.00000000
  ---------------------------------------------------
  free energy    TOTEN  =      -661.99406713 eV

  energy without entropy =     -661.99406713  energy(sigma->0) =     -661.99406713


--------------------------------------------------------------------------------------------------------




--------------------------------------- Iteration      1(  14)  ---------------------------------------


    POTLOK:  cpu time    0.1361: real time    0.1378
    SETDIJ:  cpu time    0.0103: real time    0.0107
     EDDAV:  cpu time   13.1756: real time   13.3122
 BZINTS: Fermi energy: -2.049512;303.000000 electrons
         Band energy:***********;  BLOECHL correction: -0.000583
       DOS:  cpu time    0.0111: real time    0.0113
    CHARGE:  cpu time    0.1636: real time    0.1641
    MIXING:  cpu time    0.0041: real time    0.0041
    --------------------------------------------
      LOOP:  cpu time   13.5007: real time   13.6402

 eigenvalue-minimisations  :  4648
 total energy-change (2. order) : 0.9447964E-01  (-0.9415924E-01)
 number of electron     302.9999998 magnetization      -0.9351559
 augmentation part       13.5337196 magnetization      -1.0369601

 Broyden mixing:
  rms(total) = 0.44211E+00    rms(broyden)= 0.44196E+00
  rms(prec ) = 0.46426E+00
  weight for this iteration     100.00

 eigenvalues of (default mixing * dielectric matrix)
  average eigenvalue GAMMA=   1.1911
  3.6583  1.6281  1.3184  1.3184  1.2141  0.1445  0.1941  0.6222  0.6222

 Free energy of the ion-electron system (eV)
  ---------------------------------------------------
  alpha Z        PSCENC =       167.26514232
  Ewald energy   TEWEN  =     28890.59165691
  -Hartree energ DENC   =    -39750.11281408
  -exchange      EXHF   =         0.00000000
  -V(xc)+E(xc)   XCENC  =      1064.12720854
  PAW double counting   =     31986.16959837   -32087.08333296
  entropy T*S    EENTRO =         0.00000000
  eigenvalues    EBANDS =     -3577.61020006
  atomic energy  EATOM  =     12644.75315347
  Solvation  Ediel_sol  =         0.00000000
  ---------------------------------------------------
  free energy    TOTEN  =      -661.89958749 eV

  energy without entropy =     -661.89958749  energy(sigma->0) =     -661.89958749


--------------------------------------------------------------------------------------------------------




--------------------------------------- Iteration      1(  15)  ---------------------------------------


    POTLOK:  cpu time    0.1794: real time    0.1823
    SETDIJ:  cpu time    0.0091: real time    0.0091
     EDDAV:  cpu time   12.7673: real time   12.8732
 BZINTS: Fermi energy: -2.029860;303.000000 electrons
         Band energy:***********;  BLOECHL correction: -0.002020
       DOS:  cpu time    0.0112: real time    0.0112
    CHARGE:  cpu time    0.1810: real time    0.1815
    MIXING:  cpu time    0.0042: real time    0.0042
    --------------------------------------------
      LOOP:  cpu time   13.1521: real time   13.2615

 eigenvalue-minimisations  :  4440
 total energy-change (2. order) :-0.3708402E-01  (-0.1197633E-01)
 number of electron     302.9999997 magnetization      -0.9287699
 augmentation part       13.4894218 magnetization      -1.0651014

 Broyden mixing:
  rms(total) = 0.37041E+00    rms(broyden)= 0.37037E+00
  rms(prec ) = 0.38173E+00
  weight for this iteration     100.00

 eigenvalues of (default mixing * dielectric matrix)
  average eigenvalue GAMMA=   1.2341
  3.6816  2.0638  2.0638  1.0498  1.0498  0.1445  0.1941  0.7678  0.6626  0.6626

 Free energy of the ion-electron system (eV)
  ---------------------------------------------------
  alpha Z        PSCENC =       167.26514232
  Ewald energy   TEWEN  =     28890.59165691
  -Hartree energ DENC   =    -39744.61524462
  -exchange      EXHF   =         0.00000000
  -V(xc)+E(xc)   XCENC  =      1063.95515645
  PAW double counting   =     32194.44184976   -32295.29462633
  entropy T*S    EENTRO =         0.00000000
  eigenvalues    EBANDS =     -3583.03375948
  atomic energy  EATOM  =     12644.75315347
  Solvation  Ediel_sol  =         0.00000000
  ---------------------------------------------------
  free energy    TOTEN  =      -661.93667152 eV

  energy without entropy =     -661.93667152  energy(sigma->0) =     -661.93667152


--------------------------------------------------------------------------------------------------------




--------------------------------------- Iteration      1(  16)  ---------------------------------------


    POTLOK:  cpu time    0.1248: real time    0.1272
    SETDIJ:  cpu time    0.0108: real time    0.0109
     EDDAV:  cpu time   13.1872: real time   13.3075
 BZINTS: Fermi energy: -2.034870;303.000000 electrons
         Band energy:***********;  BLOECHL correction: -0.002344
       DOS:  cpu time    0.0113: real time    0.0114
    CHARGE:  cpu time    0.1626: real time    0.1666
    MIXING:  cpu time    0.0042: real time    0.0045
    --------------------------------------------
      LOOP:  cpu time   13.5010: real time   13.6280

 eigenvalue-minimisations  :  4656
 total energy-change (2. order) :-0.1009371E-01  (-0.2557318E-02)
 number of electron     302.9999997 magnetization      -0.9796847
 augmentation part       13.5129425 magnetization      -1.1518788

 Broyden mixing:
  rms(total) = 0.35193E+00    rms(broyden)= 0.35192E+00
  rms(prec ) = 0.36977E+00
  weight for this iteration     100.00

 eigenvalues of (default mixing * dielectric matrix)
  average eigenvalue GAMMA=   1.2136
  3.6617  2.2237  2.2237  1.0640  1.0640  0.1445  0.1941  0.7868  0.7868  0.6003
  0.6003

 Free energy of the ion-electron system (eV)
  ---------------------------------------------------
  alpha Z        PSCENC =       167.26514232
  Ewald energy   TEWEN  =     28890.59165691
  -Hartree energ DENC   =    -39745.31414887
  -exchange      EXHF   =         0.00000000
  -V(xc)+E(xc)   XCENC  =      1064.03941999
  PAW double counting   =     32228.80166094   -32329.67044493
  entropy T*S    EENTRO =         0.00000000
  eigenvalues    EBANDS =     -3582.41320507
  atomic energy  EATOM  =     12644.75315347
  Solvation  Ediel_sol  =         0.00000000
  ---------------------------------------------------
  free energy    TOTEN  =      -661.94676523 eV

  energy without entropy =     -661.94676523  energy(sigma->0) =     -661.94676523


[...]
   0.724E+01 -.918E+00 0.432E+01   -.705E+01 0.802E+00 -.427E+01   -.201E+00 0.355E-01 -.485E-01   -.291E-01 0.158E-01 -.139E-01
   0.283E+02 0.862E+01 0.154E+02   -.272E+02 -.878E+01 -.160E+02   -.964E+00 0.421E+00 0.640E+00   -.166E+00 -.681E-01 -.922E-01
   0.281E+02 -.103E+02 0.154E+02   -.271E+02 0.106E+02 -.159E+02   -.974E+00 -.496E+00 0.613E+00   -.170E+00 0.599E-01 -.919E-01
   -.280E+02 0.928E+01 0.144E+02   0.270E+02 -.960E+01 -.149E+02   0.990E+00 0.569E+00 0.605E+00   0.170E+00 -.517E-01 -.916E-01
   -.283E+02 -.760E+01 0.147E+02   0.272E+02 0.764E+01 -.151E+02   0.115E+01 -.300E+00 0.561E+00   0.171E+00 0.736E-01 -.912E-01
   -.782E+01 0.158E+01 0.699E+01   0.768E+01 -.173E+01 -.693E+01   0.123E+00 0.207E+00 -.443E-01   0.209E-01 0.119E-01 -.139E-01
   -.772E+01 0.336E+01 0.710E+01   0.760E+01 -.374E+01 -.704E+01   0.115E+00 0.297E+00 -.428E-01   0.228E-01 0.186E-01 -.140E-01
   -.730E+01 -.212E+01 0.784E+01   0.730E+01 0.148E+01 -.787E+01   0.543E-01 0.658E+00 0.446E-01   -.251E-02 0.215E-01 -.737E-02
   -.707E+01 0.655E+01 0.698E+01   0.811E+01 -.754E+01 -.696E+01   -.101E+01 0.936E+00 -.117E-01   -.267E-02 0.130E-01 -.610E-02
   0.328E+01 -.376E+01 0.576E+01   -.312E+01 0.363E+01 -.579E+01   -.167E+00 0.158E+00 0.265E-01   -.142E-01 0.191E-01 -.735E-02
   -.706E+00 -.155E+01 0.547E+01   0.118E+01 0.130E+01 -.544E+01   -.493E+00 0.198E+00 -.269E-01   -.199E-01 0.120E-01 -.620E-02
   0.145E+02 -.800E+01 0.670E+01   -.140E+02 0.780E+01 -.676E+01   -.341E+00 0.139E+00 0.107E+00   -.597E-01 0.280E-01 -.284E-01
   0.602E+01 -.116E+02 0.736E+01   -.572E+01 0.116E+02 -.732E+01   -.361E+00 0.224E-01 -.317E-01   -.308E-01 0.225E-01 -.178E-01
   -.507E+01 -.374E+02 0.273E+02   0.117E+02 0.333E+02 -.263E+02   -.612E+01 0.359E+01 -.892E+00   -.240E+00 0.276E+00 -.193E+00
   0.938E+00 -.210E+02 0.135E+02   -.651E+00 0.199E+02 -.137E+02   -.236E+00 0.107E+01 0.256E+00   -.374E-01 0.120E+00 -.643E-01
   0.721E+01 -.363E+02 0.245E+02   -.141E+02 0.320E+02 -.234E+02   0.630E+01 0.379E+01 -.976E+00   0.259E+00 0.280E+00 -.191E+00
   0.326E+01 -.188E+02 0.128E+02   -.413E+01 0.174E+02 -.129E+02   0.774E+00 0.129E+01 0.206E+00   0.603E-01 0.120E+00 -.641E-01
   -.124E+02 -.507E+01 0.829E+01   0.120E+02 0.420E+01 -.836E+01   0.342E+00 0.819E+00 0.113E+00   0.574E-01 0.335E-01 -.281E-01
   -.247E+01 -.175E+01 0.806E+01   0.123E+01 0.733E+00 -.797E+01   0.128E+01 0.101E+01 -.724E-01   0.297E-01 0.261E-01 -.175E-01
   -.296E+01 0.230E+02 0.777E+01   0.286E+01 -.292E+02 -.774E+01   0.352E-01 0.626E+01 -.181E-01   0.150E-01 -.608E-02 -.779E-02
   -.274E+01 -.465E+01 0.978E+01   0.287E+01 0.491E+01 -.988E+01   -.184E+00 -.299E+00 0.115E+00   0.828E-02 -.531E-03 -.753E-02
   -.688E+01 0.192E+01 0.635E+01   0.764E+01 -.232E+01 -.637E+01   -.737E+00 0.385E+00 0.205E-01   -.105E-01 0.846E-02 -.477E-02
   -.105E+02 -.297E+01 0.627E+01   0.118E+02 0.258E+01 -.625E+01   -.140E+01 0.366E+00 -.146E-01   -.102E-01 0.115E-02 -.490E-02
   0.984E+00 -.319E+01 0.667E+01   -.648E+00 0.318E+01 -.669E+01   -.237E+00 -.816E-02 0.221E-01   -.239E-01 0.858E-02 -.822E-02
   0.455E+00 -.505E+01 0.707E+01   -.218E+00 0.505E+01 -.707E+01   -.219E+00 -.166E-01 0.359E-02   -.202E-01 0.113E-02 -.623E-02
   -.275E+00 -.934E+01 0.107E+02   0.844E+00 0.905E+01 -.108E+02   -.515E+00 0.270E+00 0.101E+00   -.195E-01 0.379E-01 -.237E-01
   0.287E+01 -.727E+01 0.896E+01   -.282E+01 0.710E+01 -.898E+01   -.895E-01 0.191E+00 0.292E-01   -.374E-02 0.786E-02 -.114E-01
   0.197E+01 -.980E+01 0.668E+01   -.218E+01 0.901E+01 -.631E+01   0.198E+00 0.715E+00 -.344E+00   0.149E-01 0.900E-01 -.459E-01
   0.184E+01 -.100E+02 0.778E+01   -.210E+01 0.954E+01 -.780E+01   0.238E+00 0.532E+00 0.307E-01   0.174E-01 0.111E-01 -.162E-01
   0.674E+01 -.607E+01 0.105E+02   -.805E+01 0.533E+01 -.105E+02   0.128E+01 0.748E+00 0.923E-01   0.243E-01 0.406E-01 -.238E-01
   0.786E+01 -.720E+01 0.879E+01   -.933E+01 0.661E+01 -.881E+01   0.148E+01 0.575E+00 0.261E-01   0.102E-01 0.101E-01 -.109E-01
   -.370E-01 -.180E+01 -.611E+03   0.645E-01 0.182E+01 0.592E+03   -.648E-01 -.175E-01 0.192E+02   0.249E-01 0.871E-02 -.332E+00
   -.636E+02 -.144E+03 0.107E+03   0.709E+02 0.160E+03 -.126E+03   -.774E+01 -.175E+02 0.204E+02   0.415E-03 -.506E-03 0.306E-01
   0.557E+02 0.126E+03 -.139E+03   -.714E+02 -.161E+03 0.181E+03   0.162E+02 0.365E+02 -.426E+02   -.308E-02 -.900E-02 0.326E-01
 -----------------------------------------------------------------------------------------------
   -.826E+01 -.189E+02 0.539E+01   -.284E-13 0.938E-12 0.568E-13   0.825E+01 0.189E+02 -.287E+01   0.548E-02 -.159E-02 -.240E+01
 
 
 POSITION                                       TOTAL-FORCE (eV/Angst)
 -----------------------------------------------------------------------------------
     -7.41552     12.74868      7.25423         0.027605      0.017398      0.003339
      0.01133      1.41208      7.25502         0.004148     -0.027264      0.003481
      2.46859      0.01881      7.25310         0.039703      0.009507      0.001728
      2.46971      1.43655      7.26340         0.037151     -0.029041      0.002593
      4.94259      0.02613      7.25499         0.016707      0.023612     -0.005647
      4.95048      1.44482      7.26486        -0.056908     -0.042038     -0.003913
     -0.00053     12.75386      7.25513         0.016674      0.017003      0.002321
      7.42991      1.41942      7.25404        -0.018305     -0.023827      0.002597
      2.48216     12.72741      7.26300         0.057362      0.020088      0.000468
      9.91101      1.39153      7.25219        -0.010418     -0.015143     -0.003369
      4.96317     12.72875      7.26447        -0.050027      0.015424     -0.004203
     12.38438      1.39065      7.25511        -0.032765     -0.007956     -0.008555
     13.61821      2.10159      7.25630         0.022977      0.032014     -0.004542
     -1.24475      3.52603      7.26640         0.035841     -0.012432     -0.006034
      1.23838      2.14702      7.26484        -0.024406     -0.021659      0.002240
      1.23709      3.56621      7.28997        -0.003834     -0.020692     -0.010828
      3.71333      2.16305      7.28052        -0.009696     -0.058806      0.000666
      3.71391      3.58479      7.32699        -0.007694     -0.008578     -0.014833
      6.19236      2.14361      7.26552         0.040491     -0.005995     -0.002643
      6.19483      3.56721      7.28968        -0.014038     -0.029496     -0.013122
      8.67524      2.11026      7.25195         0.010554      0.015512      0.000114
      8.67984      3.52952      7.25954        -0.072970     -0.007958      0.000456
     11.14636      2.10201      7.25338         0.032104      0.000549     -0.005063
     11.14620      3.52307      7.25551        -0.026998      0.020510     -0.006112
     12.37781      4.23480      7.26385        -0.009466      0.049918     -0.006378
     -2.48738      5.66240      7.27075        -0.064668     -0.048314     -0.011300
     -0.01621      4.24523      7.28949        -0.038380     -0.017971     -0.005381
     -0.04046      5.66143      7.31523        -0.000066      0.011169      0.026481
      2.47383      4.30875      7.33984         0.045507     -0.013096      0.017688
      2.42828      5.72100      7.43065         0.282155      0.122249     -0.067454
      4.95820      4.30803      7.34118        -0.035855     -0.001234      0.007938
      5.00610      5.72271      7.43375        -0.299497      0.128855     -0.075689
      7.44699      4.24638      7.28416         0.060416     -0.018320     -0.003467
      7.47200      5.66302      7.30850        -0.031697      0.012450      0.029332
      9.91325      4.23728      7.25779         0.059285      0.054816     -0.002073
      9.91835      5.66228      7.26281         0.029137     -0.053447     -0.004396
     -3.71451      6.37924      7.26302         0.019173      0.002300     -0.005839
     -3.71602      7.80320      7.26310        -0.023542     -0.006835     -0.005121
     -1.26851      6.37588      7.29442         0.022269      0.063273     -0.009572
     -1.26894      7.79867      7.29407        -0.035688     -0.062641     -0.008841
      1.17968      6.36845      7.36672        -0.109706      0.179470      0.018895
      1.17911      7.80405      7.36677        -0.160079     -0.160107      0.003251
      6.25356      6.37100      7.36742         0.129101      0.182703      0.004381
      6.25613      7.80974      7.36691         0.154202     -0.173421      0.004710
      8.69884      6.37667      7.28292         0.010847      0.070621     -0.000264
      8.69915      7.80095      7.28253         0.015910     -0.062902     -0.004661
     -4.94498      8.52029      7.26274         0.047549      0.034040     -0.003048
     -4.94873      9.94964      7.25760         0.026415     -0.032327     -0.002594
     -2.48909      8.51249      7.27081        -0.013437      0.045673     -0.008964
     -2.48329      9.93797      7.26382        -0.043597     -0.041159     -0.007660
     -0.04030      8.51181      7.31461         0.058864     -0.033455      0.021001
     -0.01501      9.92863      7.28939        -0.089023      0.034509     -0.005286
      2.42839      8.45083      7.43122         0.319554     -0.152737     -0.062203
      2.47532      9.86418      7.33969         0.026456      0.033280      0.017330
      5.00930      8.45085      7.43657        -0.305379     -0.137890     -0.065526
      4.96280      9.86572      7.34118        -0.046247      0.011036      0.015638
      7.47785      8.51819      7.30699        -0.042199     -0.020276      0.023537
      7.45012      9.93924      7.28422         0.067469      0.026643     -0.002892
     -6.17841     10.65802      7.26053        -0.047568      0.022684      0.004133
     -6.18299     12.06327      7.25276        -0.042231     -0.039485      0.005815
     -3.71087     10.64903      7.25524         0.006031     -0.010165     -0.004442
     -3.72471     12.06760      7.25335        -0.044981     -0.014800     -0.004836
     -1.24808     10.64600      7.26656         0.075739     -0.004706     -0.003686
     -1.24809     12.06344      7.25643        -0.000989     -0.017418     -0.004681
      1.23720     10.60657      7.29012         0.036764      0.014866     -0.001174
      1.23943     12.02922      7.26496        -0.040983      0.032139     -0.002422
      3.71811     10.58519      7.32667         0.005782     -0.000016     -0.020751
      3.72267     12.00276      7.28013        -0.004179      0.073106     -0.003421
      6.19395     10.60389      7.28952         0.002207      0.047827     -0.009398
      6.20726     12.02705      7.26495         0.027243     -0.002021     -0.004868
      3.71588      7.08656      8.11287        -0.011324      0.012265      0.306915
      3.71588      7.08656     14.09287        -0.489430     -1.107982      1.270850
      3.39486      6.36072     14.93821         0.488877      1.106102     -1.280742
 -----------------------------------------------------------------------------------
    total drift:                               -0.001327     -0.004408      0.110846


--------------------------------------------------------------------------------------------------------



  FREE ENERGIE OF THE ION-ELECTRON SYSTEM (eV)
  ---------------------------------------------------
  free  energy   TOTEN  =      -668.35175970 eV

  energy  without entropy=     -668.35175970  energy(sigma->0) =     -668.35175970
 


--------------------------------------------------------------------------------------------------------


    POTLOK:  cpu time    0.1495: real time    0.1499


--------------------------------------------------------------------------------------------------------


 stress matrix after NEB project (eV)
     -1.29651      0.06668      0.39031
      0.06668     -3.32323      0.91780
      0.39031      0.91780     -4.01511
  FORCES: max atom, RMS     1.761466    0.311760
  FORCE total and by dimension    2.663680    1.280742
  Stress total and by dimension    5.553755    4.015110
     LOOP+:  cpu time  304.0823: real time  307.6247
    4ORBIT:  cpu time    0.0000: real time    0.0000
 


 total charge     
 
# of ion       s       p       d       tot
------------------------------------------
    1        0.852   1.746   0.000   2.598
    2        0.861   1.787   0.000   2.648
    3        0.852   1.749   0.000   2.601
    4        0.861   1.788   0.000   2.649
    5        0.862   1.781   0.000   2.644
    6        0.864   1.787   0.000   2.651
    7        0.863   1.778   0.000   2.642
    8        0.864   1.780   0.000   2.644
    9        0.863   1.781   0.000   2.644
   10        0.865   1.783   0.000   2.648
   11        0.862   1.781   0.000   2.642
   12        0.865   1.787   0.000   2.652
   13        0.863   1.785   0.000   2.649
   14        0.865   1.787   0.000   2.652
   15        0.865   1.784   0.000   2.649
   16        0.863   1.776   0.000   2.639
   17        0.861   1.771   0.000   2.632
   18        0.862   1.769   0.000   2.632
   19        0.863   1.780   0.000   2.643
   20        0.864   1.772   0.000   2.635
   21        0.865   1.788   0.000   2.652
   22        0.866   1.789   0.000   2.655
   23        0.864   1.788   0.000   2.652
   24        0.866   1.788   0.000   2.654
   25        0.864   1.788   0.000   2.652
   26        0.867   1.795   0.000   2.663
   27        0.867   1.789   0.000   2.656
   28        0.871   1.804   0.000   2.674
   29        0.862   1.759   0.000   2.621
   30        0.874   1.689   0.000   2.562
   31        0.861   1.757   0.000   2.618
   32        0.873   1.687   0.000   2.560
   33        0.866   1.790   0.000   2.656
   34        0.871   1.803   0.000   2.674
   35        0.865   1.789   0.000   2.654
   36        0.868   1.796   0.000   2.664
   37        0.866   1.793   0.000   2.660
   38        0.866   1.794   0.000   2.660
   39        0.868   1.797   0.000   2.666
   40        0.867   1.799   0.000   2.666
   41        0.877   1.784   0.000   2.661
   42        0.876   1.789   0.000   2.665
   43        0.876   1.785   0.000   2.661
   44        0.876   1.786   0.000   2.662
   45        0.868   1.798   0.000   2.665
   46        0.868   1.802   0.000   2.670
   47        0.866   1.793   0.000   2.659
   48        0.862   1.796   0.000   2.658
   49        0.868   1.795   0.000   2.664
   50        0.864   1.794   0.000   2.658
   51        0.871   1.800   0.000   2.672
   52        0.866   1.790   0.000   2.656
   53        0.875   1.685   0.000   2.560
   54        0.861   1.759   0.000   2.620
   55        0.875   1.687   0.000   2.563
   56        0.862   1.764   0.000   2.625
   57        0.869   1.801   0.000   2.670
   58        0.864   1.795   0.000   2.660
   59        0.854   1.754   0.000   2.608
   60        1.210   2.700   0.000   3.910
   61        0.867   1.791   0.000   2.658
   62        0.862   1.793   0.000   2.655
   63        0.866   1.788   0.000   2.655
   64        0.864   1.786   0.000   2.650
   65        0.864   1.771   0.000   2.635
   66        0.863   1.779   0.000   2.642
   67        0.864   1.772   0.000   2.635
   68        0.862   1.771   0.000   2.633
   69        0.865   1.774   0.000   2.639
   70        0.861   1.786   0.000   2.647
   71        0.390   6.285   4.299  10.974
   72        1.036   1.403   0.000   2.439
   73        1.637   3.515   0.000   5.151
--------------------------------------------------
tot         63.989 136.607   4.299 204.895
 


 magnetization (x)
 
# of ion       s       p       d       tot
------------------------------------------
    1        0.000   0.003   0.000   0.003
    2        0.000   0.002   0.000   0.002
    3        0.000   0.005   0.000   0.005
    4        0.000   0.007   0.000   0.007
    5        0.000   0.003   0.000   0.003
    6        0.000   0.006   0.000   0.006
    7        0.000   0.002   0.000   0.002
    8        0.000   0.001   0.000   0.001
    9        0.001   0.010   0.000   0.011
   10       -0.000  -0.001   0.000  -0.001
   11        0.001   0.011   0.000   0.011
   12       -0.000  -0.001   0.000  -0.001
   13        0.000   0.003   0.000   0.003
   14        0.000   0.002   0.000   0.002
   15        0.000   0.006   0.000   0.006
   16        0.001   0.003   0.000   0.004
   17       -0.001  -0.005   0.000  -0.006
   18        0.002   0.025   0.000   0.026
   19        0.000   0.004   0.000   0.005
   20        0.001   0.003   0.000   0.004
   21        0.000   0.003   0.000   0.003
   22        0.000   0.002   0.000   0.002
   23        0.000   0.008   0.000   0.009
   24       -0.000  -0.001   0.000  -0.002
   25        0.001   0.011   0.000   0.012
   26       -0.000  -0.000   0.000  -0.000
   27       -0.000   0.001   0.000   0.001
   28        0.000   0.002   0.000   0.003
   29       -0.001  -0.004   0.000  -0.005
   30        0.015   0.081   0.000   0.096
   31       -0.001  -0.005   0.000  -0.005
   32        0.015   0.081   0.000   0.096
   33       -0.000   0.000   0.000   0.000
   34        0.000   0.003   0.000   0.003
   35        0.001   0.010   0.000   0.010
   36       -0.000   0.000   0.000  -0.000
   37        0.000   0.002   0.000   0.002
   38       -0.000   0.000   0.000   0.000
   39        0.000   0.008   0.000   0.009
   40        0.000   0.005   0.000   0.005
   41       -0.000   0.012   0.000   0.012
   42       -0.001   0.007   0.000   0.006
   43       -0.000   0.012   0.000   0.012
   44       -0.001   0.006   0.000   0.005
   45        0.000   0.009   0.000   0.010
   46        0.000   0.006   0.000   0.006
   47        0.000   0.003   0.000   0.003
   48        0.000   0.008   0.000   0.009
   49        0.000   0.004   0.000   0.004
   50        0.000   0.006   0.000   0.006
   51        0.000   0.005   0.000   0.005
   52       -0.000  -0.001   0.000  -0.001
   53        0.015   0.087   0.000   0.102
   54       -0.001  -0.008   0.000  -0.010
   55        0.015   0.086   0.000   0.101
   56       -0.001  -0.008   0.000  -0.009
   57        0.000   0.005   0.000   0.005
   58       -0.000  -0.002   0.000  -0.002
   59        0.000   0.008   0.000   0.008
   60        0.000   0.004   0.000   0.004
   61       -0.000   0.002   0.000   0.002
   62        0.000   0.007   0.000   0.007
   63        0.000   0.007   0.000   0.008
   64       -0.000  -0.000   0.000  -0.000
   65        0.001   0.007   0.000   0.008
   66       -0.000   0.000   0.000   0.000
   67        0.002   0.028   0.000   0.030
   68       -0.001  -0.006   0.000  -0.007
   69        0.001   0.008   0.000   0.009
   70       -0.000  -0.001   0.000  -0.001
   71       -0.034   0.013  -1.936  -1.957
   72        0.000  -0.000   0.000  -0.000
   73        0.000   0.000   0.000   0.000
--------------------------------------------------
tot          0.032   0.612  -1.936  -1.293
 
 BZINTS: Fermi energy: -2.000700;303.000000 electrons
         Band energy:***********;  BLOECHL correction: -0.004136

 total amount of memory used by VASP MPI-rank0   116041. kBytes
=======================================================================

   base      :      30000. kBytes
   nonl-proj :      27286. kBytes
   fftplans  :       4700. kBytes
   grid      :      15193. kBytes
   one-center:        217. kBytes
   wavefun   :      38645. kBytes
 
  
  
 General timing and accounting informations for this job:
 ========================================================
  
                  Total CPU time used (sec):      322.289
                            User time (sec):      312.466
                          System time (sec):        9.822
                         Elapsed time (sec):      335.130
  
                   Maximum memory used (kb):      473020.
                   Average memory used (kb):           0.
  
                          Minor page faults:      1722147
                          Major page faults:            0
                 Voluntary context switches:         9286
