  71  71   0   0
  0.4003030E+02  0.1485715E-08  0.1475580E-08  0.1500000E-08  0.3000000E-15
  1.000000000000000E-004
  CAR 
 unknown system                          
      5.28347363    -48.58729676  301     -2.08337118      1.00000000
    -48.587  0.0000E+00  0.0000E+00  0.0000E+00  0.0000E+00
    -48.408  0.0000E+00  0.0000E+00  0.0000E+00  0.0000E+00
    -48.228  0.0000E+00  0.0000E+00  0.0000E+00  0.0000E+00
    -48.049  0.0000E+00  0.0000E+00  0.0000E+00  0.0000E+00
    -47.869  0.0000E+00  0.0000E+00  0.0000E+00  0.0000E+00
    -47.689  0.0000E+00  0.0000E+00  0.0000E+00  0.0000E+00
    -47.510  0.0000E+00  0.0000E+00  0.0000E+00  0.0000E+00
    -47.330  0.0000E+00  0.0000E+00  0.0000E+00  0.0000E+00
    -47.151  0.0000E+00  0.0000E+00  0.0000E+00  0.0000E+00
    -46.971  0.0000E+00  0.0000E+00  0.0000E+00  0.0000E+00
    -46.792  0.0000E+00  0.0000E+00  0.0000E+00  0.0000E+00
    -46.612  0.1500E-12  0.0000E+00  0.2693E-13  0.0000E+00
    -46.432  0.2258E-06  0.0000E+00  0.4054E-07  0.0000E+00
    -46.253  0.7380E-03  0.0000E+00  0.1326E-03  0.0000E+00
    -46.073  0.1087E-01  0.0000E+00  0.2085E-02  0.0000E+00
    -45.894  0.1334E-01  0.0000E+00  0.4481E-02  0.0000E+00
    -45.714  0.1608E-01  0.0000E+00  0.7369E-02  0.0000E+00
    -45.535  0.7283E-03  0.0000E+00  0.7500E-02  0.0000E+00
    -45.355  0.1985E-06  0.0000E+00  0.7500E-02  0.0000E+00
    -45.175  0.1220E-12  0.0000E+00  0.7500E-02  0.0000E+00
    -44.996  0.0000E+00  0.0000E+00  0.7500E-02  0.0000E+00
    -44.816  0.0000E+00  0.0000E+00  0.7500E-02  0.0000E+00
    -44.637  0.0000E+00  0.0000E+00  0.7500E-02  0.0000E+00
    -44.457  0.0000E+00  0.1262E-10  0.7500E-02  0.2265E-11
    -44.278  0.0000E+00  0.3565E-05  0.7500E-02  0.6402E-06
    -44.098  0.0000E+00  0.2432E-02  0.7500E-02  0.4374E-03
    -43.918  0.0000E+00  0.1166E-01  0.7500E-02  0.2531E-02
    -43.739  0.0000E+00  0.1276E-01  0.7500E-02  0.4822E-02
    -43.559  0.0000E+00  0.1310E-01  0.7500E-02  0.7174E-02
    -43.380  0.0000E+00  0.1815E-02  0.7500E-02  0.7500E-02
    -43.200  0.0000E+00  0.1726E-05  0.7500E-02  0.7500E-02
    -43.021  0.0000E+00  0.3837E-11  0.7500E-02  0.7500E-02
    -42.841  0.0000E+00  0.0000E+00  0.7500E-02  0.7500E-02
    -42.662  0.0000E+00  0.0000E+00  0.7500E-02  0.7500E-02
    -42.482  0.0000E+00  0.0000E+00  0.7500E-02  0.7500E-02
    -42.302  0.0000E+00  0.0000E+00  0.7500E-02  0.7500E-02
    -42.123  0.0000E+00  0.0000E+00  0.7500E-02  0.7500E-02
    -41.943  0.0000E+00  0.0000E+00  0.7500E-02  0.7500E-02
    -41.764  0.0000E+00  0.0000E+00  0.7500E-02  0.7500E-02
    -41.584  0.0000E+00  0.0000E+00  0.7500E-02  0.7500E-02
    -41.405  0.0000E+00  0.0000E+00  0.7500E-02  0.7500E-02
    -41.225  0.0000E+00  0.0000E+00  0.7500E-02  0.7500E-02
    -41.045  0.0000E+00  0.0000E+00  0.7500E-02  0.7500E-02
    -40.866  0.0000E+00  0.0000E+00  0.7500E-02  0.7500E-02
    -40.686  0.0000E+00  0.0000E+00  0.7500E-02  0.7500E-02
    -40.507  0.0000E+00  0.0000E+00  0.7500E-02  0.7500E-02
    -40.327  0.0000E+00  0.0000E+00  0.7500E-02  0.7500E-02
    -40.148  0.0000E+00  0.0000E+00  0.7500E-02  0.7500E-02
    -39.968  0.0000E+00  0.0000E+00  0.7500E-02  0.7500E-02
    -39.788  0.0000E+00  0.0000E+00  0.7500E-02  0.7500E-02
    -39.609  0.0000E+00  0.0000E+00  0.7500E-02  0.7500E-02
    -39.429  0.0000E+00  0.0000E+00  0.7500E-02  0.7500E-02
    -39.250  0.0000E+00  0.0000E+00  0.7500E-02  0.7500E-02
    -39.070  0.0000E+00  0.0000E+00  0.7500E-02  0.7500E-02
    -38.891  0.0000E+00  0.0000E+00  0.7500E-02  0.7500E-02
    -38.711  0.0000E+00  0.0000E+00  0.7500E-02  0.7500E-02
    -38.531  0.0000E+00  0.0000E+00  0.7500E-02  0.7500E-02
    -38.352  0.0000E+00  0.0000E+00  0.7500E-02  0.7500E-02
    -38.172  0.0000E+00  0.0000E+00  0.7500E-02  0.7500E-02
    -37.993  0.0000E+00  0.0000E+00  0.7500E-02  0.7500E-02
    -37.813  0.0000E+00  0.0000E+00  0.7500E-02  0.7500E-02
    -37.634  0.0000E+00  0.0000E+00  0.7500E-02  0.7500E-02
    -37.454  0.0000E+00  0.0000E+00  0.7500E-02  0.7500E-02
    -37.274  0.0000E+00  0.0000E+00  0.7500E-02  0.7500E-02
    -37.095  0.0000E+00  0.0000E+00  0.7500E-02  0.7500E-02
    -36.915  0.0000E+00  0.0000E+00  0.7500E-02  0.7500E-02
    -36.736  0.0000E+00  0.0000E+00  0.7500E-02  0.7500E-02
    -36.556  0.0000E+00  0.0000E+00  0.7500E-02  0.7500E-02
    -36.377  0.0000E+00  0.0000E+00  0.7500E-02  0.7500E-02
    -36.197  0.0000E+00  0.0000E+00  0.7500E-02  0.7500E-02
    -36.017  0.0000E+00  0.0000E+00  0.7500E-02  0.7500E-02
    -35.838  0.0000E+00  0.0000E+00  0.7500E-02  0.7500E-02
    -35.658  0.0000E+00  0.0000E+00  0.7500E-02  0.7500E-02
    -35.479  0.0000E+00  0.0000E+00  0.7500E-02  0.7500E-02
    -35.299  0.0000E+00  0.0000E+00  0.7500E-02  0.7500E-02
    -35.120  0.0000E+00  0.0000E+00  0.7500E-02  0.7500E-02
    -34.940  0.0000E+00  0.0000E+00  0.7500E-02  0.7500E-02
    -34.760  0.0000E+00  0.0000E+00  0.7500E-02  0.7500E-02
    -34.581  0.0000E+00  0.0000E+00  0.7500E-02  0.7500E-02
    -34.401  0.0000E+00  0.0000E+00  0.7500E-02  0.7500E-02
    -34.222  0.0000E+00  0.0000E+00  0.7500E-02  0.7500E-02
    -34.042  0.0000E+00  0.0000E+00  0.7500E-02  0.7500E-02
    -33.863  0.0000E+00  0.0000E+00  0.7500E-02  0.7500E-02
    -33.683  0.0000E+00  0.0000E+00  0.7500E-02  0.7500E-02
    -33.503  0.0000E+00  0.0000E+00  0.7500E-02  0.7500E-02
    -33.324  0.0000E+00  0.0000E+00  0.7500E-02  0.7500E-02
    -33.144  0.0000E+00  0.0000E+00  0.7500E-02  0.7500E-02
    -32.965  0.0000E+00  0.0000E+00  0.7500E-02  0.7500E-02
    -32.785  0.0000E+00  0.0000E+00  0.7500E-02  0.7500E-02
    -32.606  0.0000E+00  0.0000E+00  0.7500E-02  0.7500E-02
    -32.426  0.0000E+00  0.0000E+00  0.7500E-02  0.7500E-02
    -32.246  0.0000E+00  0.0000E+00  0.7500E-02  0.7500E-02
    -32.067  0.0000E+00  0.0000E+00  0.7500E-02  0.7500E-02
    -31.887  0.0000E+00  0.0000E+00  0.7500E-02  0.7500E-02
    -31.708  0.0000E+00  0.0000E+00  0.7500E-02  0.7500E-02
    -31.528  0.0000E+00  0.0000E+00  0.7500E-02  0.7500E-02
    -31.349  0.0000E+00  0.0000E+00  0.7500E-02  0.7500E-02
    -31.169  0.0000E+00  0.0000E+00  0.7500E-02  0.7500E-02
    -30.990  0.0000E+00  0.0000E+00  0.7500E-02  0.7500E-02
    -30.810  0.0000E+00  0.0000E+00  0.7500E-02  0.7500E-02
    -30.630  0.0000E+00  0.0000E+00  0.7500E-02  0.7500E-02
    -30.451  0.0000E+00  0.0000E+00  0.7500E-02  0.7500E-02
    -30.271  0.0000E+00  0.0000E+00  0.7500E-02  0.7500E-02
    -30.092  0.0000E+00  0.0000E+00  0.7500E-02  0.7500E-02
    -29.912  0.0000E+00  0.0000E+00  0.7500E-02  0.7500E-02
    -29.733  0.0000E+00  0.0000E+00  0.7500E-02  0.7500E-02
    -29.553  0.0000E+00  0.0000E+00  0.7500E-02  0.7500E-02
    -29.373  0.0000E+00  0.0000E+00  0.7500E-02  0.7500E-02
    -29.194  0.0000E+00  0.0000E+00  0.7500E-02  0.7500E-02
    -29.014  0.0000E+00  0.0000E+00  0.7500E-02  0.7500E-02
    -28.835  0.0000E+00  0.0000E+00  0.7500E-02  0.7500E-02
    -28.655  0.0000E+00  0.0000E+00  0.7500E-02  0.7500E-02
    -28.476  0.0000E+00  0.0000E+00  0.7500E-02  0.7500E-02
    -28.296  0.0000E+00  0.0000E+00  0.7500E-02  0.7500E-02
    -28.116  0.0000E+00  0.0000E+00  0.7500E-02  0.7500E-02
    -27.937  0.0000E+00  0.0000E+00  0.7500E-02  0.7500E-02
    -27.757  0.0000E+00  0.0000E+00  0.7500E-02  0.7500E-02
    -27.578  0.0000E+00  0.0000E+00  0.7500E-02  0.7500E-02
    -27.398  0.0000E+00  0.0000E+00  0.7500E-02  0.7500E-02
    -27.219  0.0000E+00  0.0000E+00  0.7500E-02  0.7500E-02
    -27.039  0.0000E+00  0.0000E+00  0.7500E-02  0.7500E-02
    -26.859  0.0000E+00  0.0000E+00  0.7500E-02  0.7500E-02
    -26.680  0.0000E+00  0.0000E+00  0.7500E-02  0.7500E-02
    -26.500  0.0000E+00  0.0000E+00  0.7500E-02  0.7500E-02
    -26.321  0.0000E+00  0.0000E+00  0.7500E-02  0.7500E-02
    -26.141  0.0000E+00  0.0000E+00  0.7500E-02  0.7500E-02
    -25.962  0.0000E+00  0.0000E+00  0.7500E-02  0.7500E-02
    -25.782  0.0000E+00  0.0000E+00  0.7500E-02  0.7500E-02
    -25.602  0.0000E+00  0.0000E+00  0.7500E-02  0.7500E-02
    -25.423  0.0000E+00  0.0000E+00  0.7500E-02  0.7500E-02
    -25.243  0.0000E+00  0.0000E+00  0.7500E-02  0.7500E-02
    -25.064  0.0000E+00  0.0000E+00  0.7500E-02  0.7500E-02
    -24.884  0.0000E+00  0.0000E+00  0.7500E-02  0.7500E-02
    -24.705  0.0000E+00  0.0000E+00  0.7500E-02  0.7500E-02
    -24.525  0.8465E-14  0.2387E-13  0.7500E-02  0.7500E-02
    -24.345  0.3493E-07  0.6889E-07  0.7500E-02  0.7500E-02
    -24.166  0.2987E-03  0.4184E-03  0.7554E-02  0.7575E-02
    -23.986  0.9401E-02  0.9957E-02  0.9242E-02  0.9363E-02
    -23.807  0.4207E-02  0.3537E-02  0.9997E-02  0.9998E-02
    -23.627  0.1570E-04  0.9598E-05  0.1000E-01  0.1000E-01
    -23.448  0.1545E-09  0.6647E-10  0.1000E-01  0.1000E-01
    -23.268  0.3091E-17  0.0000E+00  0.1000E-01  0.1000E-01
    -23.088  0.0000E+00  0.0000E+00  0.1000E-01  0.1000E-01
    -22.909  0.0000E+00  0.0000E+00  0.1000E-01  0.1000E-01
    -22.729  0.0000E+00  0.0000E+00  0.1000E-01  0.1000E-01
    -22.550  0.0000E+00  0.0000E+00  0.1000E-01  0.1000E-01
    -22.370  0.0000E+00  0.0000E+00  0.1000E-01  0.1000E-01
    -22.191  0.0000E+00  0.0000E+00  0.1000E-01  0.1000E-01
    -22.011  0.7191E-14  0.1010E-13  0.1000E-01  0.1000E-01
    -21.831  0.2516E-07  0.3143E-07  0.1000E-01  0.1000E-01
    -21.652  0.1986E-03  0.2224E-03  0.1004E-01  0.1004E-01
    -21.472  0.7904E-02  0.8147E-02  0.1145E-01  0.1150E-01
    -21.293  0.1287E-01  0.1283E-01  0.1377E-01  0.1381E-01
    -21.113  0.1183E-01  0.1198E-01  0.1589E-01  0.1596E-01
    -20.934  0.1630E-01  0.1636E-01  0.1882E-01  0.1889E-01
    -20.754  0.7901E-02  0.7695E-02  0.2024E-01  0.2028E-01
    -20.574  0.1201E-01  0.1253E-01  0.2239E-01  0.2253E-01
    -20.395  0.2160E-01  0.2143E-01  0.2627E-01  0.2637E-01
    -20.215  0.1010E-01  0.1002E-01  0.2808E-01  0.2817E-01
    -20.036  0.9376E-02  0.9259E-02  0.2977E-01  0.2984E-01
    -19.856  0.1363E-01  0.1411E-01  0.3222E-01  0.3237E-01
    -19.677  0.2036E-01  0.2010E-01  0.3587E-01  0.3598E-01
    -19.497  0.1171E-01  0.1156E-01  0.3797E-01  0.3805E-01
    -19.318  0.1152E-01  0.1176E-01  0.4004E-01  0.4016E-01
    -19.138  0.1309E-01  0.1325E-01  0.4239E-01  0.4254E-01
    -18.958  0.1560E-01  0.1547E-01  0.4519E-01  0.4532E-01
    -18.779  0.1214E-01  0.1213E-01  0.4737E-01  0.4750E-01
    -18.599  0.1469E-01  0.1447E-01  0.5001E-01  0.5010E-01
    -18.420  0.1432E-01  0.1423E-01  0.5258E-01  0.5265E-01
    -18.240  0.1586E-01  0.1686E-01  0.5543E-01  0.5568E-01
    -18.061  0.1703E-01  0.1629E-01  0.5849E-01  0.5861E-01
    -17.881  0.1188E-01  0.1181E-01  0.6062E-01  0.6073E-01
    -17.701  0.7266E-02  0.7062E-02  0.6193E-01  0.6200E-01
    -17.522  0.1780E-01  0.1858E-01  0.6513E-01  0.6533E-01
    -17.342  0.1747E-01  0.1705E-01  0.6826E-01  0.6839E-01
    -17.163  0.1869E-01  0.1879E-01  0.7162E-01  0.7177E-01
    -16.983  0.1429E-01  0.1421E-01  0.7418E-01  0.7432E-01
    -16.804  0.1857E-01  0.1894E-01  0.7752E-01  0.7772E-01
    -16.624  0.1417E-01  0.1352E-01  0.8006E-01  0.8015E-01
    -16.444  0.8683E-02  0.9362E-02  0.8162E-01  0.8183E-01
    -16.265  0.1677E-01  0.1619E-01  0.8463E-01  0.8473E-01
    -16.085  0.1321E-01  0.1393E-01  0.8701E-01  0.8724E-01
    -15.906  0.1670E-01  0.1618E-01  0.9000E-01  0.9014E-01
    -15.726  0.1133E-01  0.1140E-01  0.9204E-01  0.9219E-01
    -15.547  0.8568E-02  0.8660E-02  0.9358E-01  0.9374E-01
    -15.367  0.9807E-02  0.9382E-02  0.9534E-01  0.9543E-01
    -15.187  0.1028E-01  0.1060E-01  0.9718E-01  0.9733E-01
    -15.008  0.1591E-01  0.1572E-01  0.1000E+00  0.1002E+00
    -14.828  0.1619E-01  0.1672E-01  0.1029E+00  0.1032E+00
    -14.649  0.1753E-01  0.1709E-01  0.1061E+00  0.1062E+00
    -14.469  0.1596E-01  0.1581E-01  0.1090E+00  0.1091E+00
    -14.290  0.1320E-01  0.1324E-01  0.1113E+00  0.1114E+00
    -14.110  0.1407E-01  0.1413E-01  0.1139E+00  0.1140E+00
    -13.930  0.1626E-01  0.1683E-01  0.1168E+00  0.1170E+00
    -13.751  0.2009E-01  0.1950E-01  0.1204E+00  0.1205E+00
    -13.571  0.1174E-01  0.1197E-01  0.1225E+00  0.1227E+00
    -13.392  0.1646E-01  0.1666E-01  0.1255E+00  0.1256E+00
    -13.212  0.1281E-01  0.1270E-01  0.1278E+00  0.1279E+00
    -13.033  0.9260E-02  0.8986E-02  0.1294E+00  0.1295E+00
    -12.853  0.1429E-01  0.1413E-01  0.1320E+00  0.1321E+00
    -12.673  0.2101E-01  0.2171E-01  0.1358E+00  0.1360E+00
    -12.494  0.1339E-01  0.1273E-01  0.1382E+00  0.1383E+00
    -12.314  0.1083E-01  0.1072E-01  0.1401E+00  0.1402E+00
    -12.135  0.9925E-02  0.1004E-01  0.1419E+00  0.1420E+00
    -11.955  0.1517E-01  0.1530E-01  0.1446E+00  0.1447E+00
    -11.776  0.2459E-01  0.2482E-01  0.1490E+00  0.1492E+00
    -11.596  0.2261E-01  0.2283E-01  0.1531E+00  0.1533E+00
    -11.416  0.1903E-01  0.1832E-01  0.1565E+00  0.1566E+00
    -11.237  0.8595E-02  0.8751E-02  0.1580E+00  0.1582E+00
    -11.057  0.1749E-01  0.1757E-01  0.1612E+00  0.1613E+00
    -10.878  0.1403E-01  0.1374E-01  0.1637E+00  0.1638E+00
    -10.698  0.1319E-01  0.1363E-01  0.1661E+00  0.1662E+00
    -10.519  0.1980E-01  0.1995E-01  0.1696E+00  0.1698E+00
    -10.339  0.2893E-01  0.2959E-01  0.1748E+00  0.1751E+00
    -10.159  0.2606E-01  0.2510E-01  0.1795E+00  0.1796E+00
     -9.980  0.2470E-01  0.2494E-01  0.1839E+00  0.1841E+00
     -9.800  0.2072E-01  0.2037E-01  0.1877E+00  0.1878E+00
     -9.621  0.2121E-01  0.2141E-01  0.1915E+00  0.1916E+00
     -9.441  0.3084E-01  0.3096E-01  0.1970E+00  0.1972E+00
     -9.262  0.3084E-01  0.3098E-01  0.2025E+00  0.2027E+00
     -9.082  0.2839E-01  0.2826E-01  0.2076E+00  0.2078E+00
     -8.902  0.3762E-01  0.3764E-01  0.2144E+00  0.2146E+00
     -8.723  0.3519E-01  0.3531E-01  0.2207E+00  0.2209E+00
     -8.543  0.4503E-01  0.4586E-01  0.2288E+00  0.2291E+00
     -8.364  0.5440E-01  0.5400E-01  0.2386E+00  0.2388E+00
     -8.184  0.3171E-01  0.3103E-01  0.2443E+00  0.2444E+00
     -8.005  0.2864E-01  0.2947E-01  0.2494E+00  0.2497E+00
     -7.825  0.2972E-01  0.2884E-01  0.2547E+00  0.2549E+00
     -7.646  0.2517E-01  0.2516E-01  0.2593E+00  0.2594E+00
     -7.466  0.3469E-01  0.3562E-01  0.2655E+00  0.2658E+00
     -7.286  0.3680E-01  0.3621E-01  0.2721E+00  0.2723E+00
     -7.107  0.3310E-01  0.3219E-01  0.2780E+00  0.2781E+00
     -6.927  0.3176E-01  0.3234E-01  0.2837E+00  0.2839E+00
     -6.748  0.2255E-01  0.2257E-01  0.2878E+00  0.2879E+00
     -6.568  0.2017E-01  0.1993E-01  0.2914E+00  0.2915E+00
     -6.389  0.1918E-01  0.1818E-01  0.2949E+00  0.2948E+00
     -6.209  0.3123E-01  0.3073E-01  0.3005E+00  0.3003E+00
     -6.029  0.3312E-01  0.3462E-01  0.3064E+00  0.3065E+00
     -5.850  0.2972E-01  0.2970E-01  0.3118E+00  0.3118E+00
     -5.670  0.2352E-01  0.2094E-01  0.3160E+00  0.3156E+00
     -5.491  0.1552E-01  0.1756E-01  0.3188E+00  0.3188E+00
     -5.311  0.1771E-01  0.1635E-01  0.3219E+00  0.3217E+00
     -5.132  0.1909E-01  0.1816E-01  0.3254E+00  0.3250E+00
     -4.952  0.3100E-01  0.2282E-01  0.3309E+00  0.3291E+00
     -4.772  0.3055E-01  0.3637E-01  0.3364E+00  0.3356E+00
     -4.593  0.3273E-01  0.3316E-01  0.3423E+00  0.3415E+00
     -4.413  0.1279E-01  0.1692E-01  0.3446E+00  0.3446E+00
     -4.234  0.5518E-02  0.4225E-02  0.3456E+00  0.3453E+00
     -4.054  0.1409E-01  0.9326E-02  0.3481E+00  0.3470E+00
     -3.875  0.2698E-01  0.1713E-01  0.3530E+00  0.3501E+00
     -3.695  0.1258E-01  0.1447E-01  0.3552E+00  0.3527E+00
     -3.515  0.9077E-02  0.1959E-01  0.3569E+00  0.3562E+00
     -3.336  0.1678E-01  0.1447E-01  0.3599E+00  0.3588E+00
     -3.156  0.1743E-01  0.9011E-02  0.3630E+00  0.3604E+00
     -2.977  0.4591E-02  0.5549E-02  0.3638E+00  0.3614E+00
     -2.797  0.1005E-01  0.2468E-02  0.3656E+00  0.3619E+00
     -2.618  0.5118E-02  0.8359E-04  0.3665E+00  0.3619E+00
     -2.438  0.1931E-02  0.2488E-03  0.3669E+00  0.3619E+00
     -2.258  0.2761E-02  0.3914E-02  0.3674E+00  0.3626E+00
     -2.079  0.5113E-02  0.9143E-02  0.3683E+00  0.3643E+00
     -1.899  0.3446E-02  0.6623E-02  0.3689E+00  0.3655E+00
     -1.720  0.8457E-02  0.9541E-03  0.3704E+00  0.3656E+00
     -1.540  0.1340E-01  0.9712E-03  0.3729E+00  0.3658E+00
     -1.361  0.1397E-01  0.5393E-02  0.3754E+00  0.3668E+00
     -1.181  0.7325E-02  0.6939E-02  0.3767E+00  0.3680E+00
     -1.001  0.8267E-02  0.7073E-02  0.3782E+00  0.3693E+00
     -0.822  0.1481E-01  0.2899E-01  0.3808E+00  0.3745E+00
     -0.642  0.2071E-01  0.2817E-01  0.3845E+00  0.3795E+00
     -0.463  0.1259E-01  0.2584E-01  0.3868E+00  0.3842E+00
     -0.283  0.1892E-01  0.2336E-01  0.3902E+00  0.3884E+00
     -0.104  0.1337E-01  0.1741E-01  0.3926E+00  0.3915E+00
      0.076  0.9994E-02  0.1085E-01  0.3944E+00  0.3935E+00
      0.256  0.2097E-01  0.1803E-01  0.3982E+00  0.3967E+00
      0.435  0.1781E-01  0.2536E-01  0.4014E+00  0.4012E+00
      0.615  0.1611E-01  0.1757E-01  0.4043E+00  0.4044E+00
      0.794  0.1346E-01  0.7796E-02  0.4067E+00  0.4058E+00
      0.974  0.1609E-01  0.1300E-01  0.4096E+00  0.4081E+00
      1.153  0.1251E-01  0.1827E-01  0.4118E+00  0.4114E+00
      1.333  0.1786E-01  0.1428E-01  0.4150E+00  0.4140E+00
      1.513  0.1552E-01  0.1813E-01  0.4178E+00  0.4172E+00
      1.692  0.2608E-01  0.2360E-01  0.4225E+00  0.4215E+00
      1.872  0.2668E-01  0.2737E-01  0.4273E+00  0.4264E+00
      2.051  0.3305E-01  0.3117E-01  0.4332E+00  0.4320E+00
      2.231  0.2924E-01  0.2713E-01  0.4385E+00  0.4369E+00
      2.410  0.2206E-01  0.2037E-01  0.4424E+00  0.4405E+00
      2.590  0.3893E-01  0.3946E-01  0.4494E+00  0.4476E+00
      2.770  0.4711E-01  0.5334E-01  0.4579E+00  0.4572E+00
      2.949  0.1164E-01  0.1533E-01  0.4600E+00  0.4599E+00
      3.129  0.2278E-03  0.3642E-03  0.4600E+00  0.4600E+00
      3.308  0.3732E-07  0.7472E-07  0.4600E+00  0.4600E+00
      3.488  0.1649E-13  0.4232E-13  0.4600E+00  0.4600E+00
      3.667  0.0000E+00  0.0000E+00  0.4600E+00  0.4600E+00
      3.847  0.0000E+00  0.0000E+00  0.4600E+00  0.4600E+00
      4.026  0.0000E+00  0.0000E+00  0.4600E+00  0.4600E+00
      4.206  0.0000E+00  0.0000E+00  0.4600E+00  0.4600E+00
      4.386  0.0000E+00  0.0000E+00  0.4600E+00  0.4600E+00
      4.565  0.0000E+00  0.0000E+00  0.4600E+00  0.4600E+00
      4.745  0.0000E+00  0.0000E+00  0.4600E+00  0.4600E+00
      4.924  0.0000E+00  0.0000E+00  0.4600E+00  0.4600E+00
      5.104  0.0000E+00  0.0000E+00  0.4600E+00  0.4600E+00
      5.283  0.0000E+00  0.0000E+00  0.4600E+00  0.4600E+00
