  71  71   0   0
  0.4011563E+02  0.1487831E-08  0.1477209E-08  0.1500000E-08  0.3000000E-15
  1.000000000000000E-004
  CAR 
 unknown system                          
      5.27933288    -48.62707667  301     -2.05565132      1.00000000
    -48.627  0.0000E+00  0.0000E+00  0.0000E+00  0.0000E+00
    -48.447  0.0000E+00  0.0000E+00  0.0000E+00  0.0000E+00
    -48.268  0.0000E+00  0.0000E+00  0.0000E+00  0.0000E+00
    -48.088  0.0000E+00  0.0000E+00  0.0000E+00  0.0000E+00
    -47.908  0.0000E+00  0.0000E+00  0.0000E+00  0.0000E+00
    -47.729  0.0000E+00  0.0000E+00  0.0000E+00  0.0000E+00
    -47.549  0.0000E+00  0.0000E+00  0.0000E+00  0.0000E+00
    -47.369  0.0000E+00  0.0000E+00  0.0000E+00  0.0000E+00
    -47.190  0.0000E+00  0.0000E+00  0.0000E+00  0.0000E+00
    -47.010  0.0000E+00  0.0000E+00  0.0000E+00  0.0000E+00
    -46.830  0.0000E+00  0.0000E+00  0.0000E+00  0.0000E+00
    -46.651  0.1455E-12  0.0000E+00  0.2615E-13  0.0000E+00
    -46.471  0.2231E-06  0.0000E+00  0.4008E-07  0.0000E+00
    -46.291  0.7362E-03  0.0000E+00  0.1323E-03  0.0000E+00
    -46.111  0.1075E-01  0.0000E+00  0.2063E-02  0.0000E+00
    -45.932  0.9663E-02  0.0000E+00  0.3800E-02  0.0000E+00
    -45.752  0.1903E-01  0.0000E+00  0.7220E-02  0.0000E+00
    -45.572  0.1559E-02  0.0000E+00  0.7500E-02  0.0000E+00
    -45.393  0.9776E-06  0.0000E+00  0.7500E-02  0.0000E+00
    -45.213  0.1496E-11  0.0000E+00  0.7500E-02  0.0000E+00
    -45.033  0.0000E+00  0.0000E+00  0.7500E-02  0.0000E+00
    -44.854  0.0000E+00  0.0000E+00  0.7500E-02  0.0000E+00
    -44.674  0.0000E+00  0.0000E+00  0.7500E-02  0.0000E+00
    -44.494  0.0000E+00  0.8411E-15  0.7500E-02  0.1511E-15
    -44.315  0.0000E+00  0.7584E-08  0.7500E-02  0.1363E-08
    -44.135  0.0000E+00  0.1365E-03  0.7500E-02  0.2453E-04
    -43.955  0.0000E+00  0.7985E-02  0.7500E-02  0.1459E-02
    -43.775  0.0000E+00  0.1049E-01  0.7500E-02  0.3345E-02
    -43.596  0.0000E+00  0.1701E-01  0.7500E-02  0.6400E-02
    -43.416  0.0000E+00  0.6077E-02  0.7500E-02  0.7492E-02
    -43.236  0.0000E+00  0.4311E-04  0.7500E-02  0.7500E-02
    -43.057  0.0000E+00  0.9060E-09  0.7500E-02  0.7500E-02
    -42.877  0.0000E+00  0.3707E-16  0.7500E-02  0.7500E-02
    -42.697  0.0000E+00  0.0000E+00  0.7500E-02  0.7500E-02
    -42.518  0.0000E+00  0.0000E+00  0.7500E-02  0.7500E-02
    -42.338  0.0000E+00  0.0000E+00  0.7500E-02  0.7500E-02
    -42.158  0.0000E+00  0.0000E+00  0.7500E-02  0.7500E-02
    -41.979  0.0000E+00  0.0000E+00  0.7500E-02  0.7500E-02
    -41.799  0.0000E+00  0.0000E+00  0.7500E-02  0.7500E-02
    -41.619  0.0000E+00  0.0000E+00  0.7500E-02  0.7500E-02
    -41.440  0.0000E+00  0.0000E+00  0.7500E-02  0.7500E-02
    -41.260  0.0000E+00  0.0000E+00  0.7500E-02  0.7500E-02
    -41.080  0.0000E+00  0.0000E+00  0.7500E-02  0.7500E-02
    -40.900  0.0000E+00  0.0000E+00  0.7500E-02  0.7500E-02
    -40.721  0.0000E+00  0.0000E+00  0.7500E-02  0.7500E-02
    -40.541  0.0000E+00  0.0000E+00  0.7500E-02  0.7500E-02
    -40.361  0.0000E+00  0.0000E+00  0.7500E-02  0.7500E-02
    -40.182  0.0000E+00  0.0000E+00  0.7500E-02  0.7500E-02
    -40.002  0.0000E+00  0.0000E+00  0.7500E-02  0.7500E-02
    -39.822  0.0000E+00  0.0000E+00  0.7500E-02  0.7500E-02
    -39.643  0.0000E+00  0.0000E+00  0.7500E-02  0.7500E-02
    -39.463  0.0000E+00  0.0000E+00  0.7500E-02  0.7500E-02
    -39.283  0.0000E+00  0.0000E+00  0.7500E-02  0.7500E-02
    -39.104  0.0000E+00  0.0000E+00  0.7500E-02  0.7500E-02
    -38.924  0.0000E+00  0.0000E+00  0.7500E-02  0.7500E-02
    -38.744  0.0000E+00  0.0000E+00  0.7500E-02  0.7500E-02
    -38.565  0.0000E+00  0.0000E+00  0.7500E-02  0.7500E-02
    -38.385  0.0000E+00  0.0000E+00  0.7500E-02  0.7500E-02
    -38.205  0.0000E+00  0.0000E+00  0.7500E-02  0.7500E-02
    -38.025  0.0000E+00  0.0000E+00  0.7500E-02  0.7500E-02
    -37.846  0.0000E+00  0.0000E+00  0.7500E-02  0.7500E-02
    -37.666  0.0000E+00  0.0000E+00  0.7500E-02  0.7500E-02
    -37.486  0.0000E+00  0.0000E+00  0.7500E-02  0.7500E-02
    -37.307  0.0000E+00  0.0000E+00  0.7500E-02  0.7500E-02
    -37.127  0.0000E+00  0.0000E+00  0.7500E-02  0.7500E-02
    -36.947  0.0000E+00  0.0000E+00  0.7500E-02  0.7500E-02
    -36.768  0.0000E+00  0.0000E+00  0.7500E-02  0.7500E-02
    -36.588  0.0000E+00  0.0000E+00  0.7500E-02  0.7500E-02
    -36.408  0.0000E+00  0.0000E+00  0.7500E-02  0.7500E-02
    -36.229  0.0000E+00  0.0000E+00  0.7500E-02  0.7500E-02
    -36.049  0.0000E+00  0.0000E+00  0.7500E-02  0.7500E-02
    -35.869  0.0000E+00  0.0000E+00  0.7500E-02  0.7500E-02
    -35.690  0.0000E+00  0.0000E+00  0.7500E-02  0.7500E-02
    -35.510  0.0000E+00  0.0000E+00  0.7500E-02  0.7500E-02
    -35.330  0.0000E+00  0.0000E+00  0.7500E-02  0.7500E-02
    -35.150  0.0000E+00  0.0000E+00  0.7500E-02  0.7500E-02
    -34.971  0.0000E+00  0.0000E+00  0.7500E-02  0.7500E-02
    -34.791  0.0000E+00  0.0000E+00  0.7500E-02  0.7500E-02
    -34.611  0.0000E+00  0.0000E+00  0.7500E-02  0.7500E-02
    -34.432  0.0000E+00  0.0000E+00  0.7500E-02  0.7500E-02
    -34.252  0.0000E+00  0.0000E+00  0.7500E-02  0.7500E-02
    -34.072  0.0000E+00  0.0000E+00  0.7500E-02  0.7500E-02
    -33.893  0.0000E+00  0.0000E+00  0.7500E-02  0.7500E-02
    -33.713  0.0000E+00  0.0000E+00  0.7500E-02  0.7500E-02
    -33.533  0.0000E+00  0.0000E+00  0.7500E-02  0.7500E-02
    -33.354  0.0000E+00  0.0000E+00  0.7500E-02  0.7500E-02
    -33.174  0.0000E+00  0.0000E+00  0.7500E-02  0.7500E-02
    -32.994  0.0000E+00  0.0000E+00  0.7500E-02  0.7500E-02
    -32.815  0.0000E+00  0.0000E+00  0.7500E-02  0.7500E-02
    -32.635  0.0000E+00  0.0000E+00  0.7500E-02  0.7500E-02
    -32.455  0.0000E+00  0.0000E+00  0.7500E-02  0.7500E-02
    -32.275  0.0000E+00  0.0000E+00  0.7500E-02  0.7500E-02
    -32.096  0.0000E+00  0.0000E+00  0.7500E-02  0.7500E-02
    -31.916  0.0000E+00  0.0000E+00  0.7500E-02  0.7500E-02
    -31.736  0.0000E+00  0.0000E+00  0.7500E-02  0.7500E-02
    -31.557  0.0000E+00  0.0000E+00  0.7500E-02  0.7500E-02
    -31.377  0.0000E+00  0.0000E+00  0.7500E-02  0.7500E-02
    -31.197  0.0000E+00  0.0000E+00  0.7500E-02  0.7500E-02
    -31.018  0.0000E+00  0.0000E+00  0.7500E-02  0.7500E-02
    -30.838  0.0000E+00  0.0000E+00  0.7500E-02  0.7500E-02
    -30.658  0.0000E+00  0.0000E+00  0.7500E-02  0.7500E-02
    -30.479  0.0000E+00  0.0000E+00  0.7500E-02  0.7500E-02
    -30.299  0.0000E+00  0.0000E+00  0.7500E-02  0.7500E-02
    -30.119  0.0000E+00  0.0000E+00  0.7500E-02  0.7500E-02
    -29.940  0.0000E+00  0.0000E+00  0.7500E-02  0.7500E-02
    -29.760  0.0000E+00  0.0000E+00  0.7500E-02  0.7500E-02
    -29.580  0.0000E+00  0.0000E+00  0.7500E-02  0.7500E-02
    -29.400  0.0000E+00  0.0000E+00  0.7500E-02  0.7500E-02
    -29.221  0.0000E+00  0.0000E+00  0.7500E-02  0.7500E-02
    -29.041  0.0000E+00  0.0000E+00  0.7500E-02  0.7500E-02
    -28.861  0.0000E+00  0.0000E+00  0.7500E-02  0.7500E-02
    -28.682  0.0000E+00  0.0000E+00  0.7500E-02  0.7500E-02
    -28.502  0.0000E+00  0.0000E+00  0.7500E-02  0.7500E-02
    -28.322  0.0000E+00  0.0000E+00  0.7500E-02  0.7500E-02
    -28.143  0.0000E+00  0.0000E+00  0.7500E-02  0.7500E-02
    -27.963  0.0000E+00  0.0000E+00  0.7500E-02  0.7500E-02
    -27.783  0.0000E+00  0.0000E+00  0.7500E-02  0.7500E-02
    -27.604  0.0000E+00  0.0000E+00  0.7500E-02  0.7500E-02
    -27.424  0.0000E+00  0.0000E+00  0.7500E-02  0.7500E-02
    -27.244  0.0000E+00  0.0000E+00  0.7500E-02  0.7500E-02
    -27.065  0.0000E+00  0.0000E+00  0.7500E-02  0.7500E-02
    -26.885  0.0000E+00  0.0000E+00  0.7500E-02  0.7500E-02
    -26.705  0.0000E+00  0.0000E+00  0.7500E-02  0.7500E-02
    -26.525  0.0000E+00  0.0000E+00  0.7500E-02  0.7500E-02
    -26.346  0.0000E+00  0.0000E+00  0.7500E-02  0.7500E-02
    -26.166  0.0000E+00  0.0000E+00  0.7500E-02  0.7500E-02
    -25.986  0.0000E+00  0.0000E+00  0.7500E-02  0.7500E-02
    -25.807  0.0000E+00  0.0000E+00  0.7500E-02  0.7500E-02
    -25.627  0.0000E+00  0.0000E+00  0.7500E-02  0.7500E-02
    -25.447  0.0000E+00  0.0000E+00  0.7500E-02  0.7500E-02
    -25.268  0.0000E+00  0.0000E+00  0.7500E-02  0.7500E-02
    -25.088  0.0000E+00  0.0000E+00  0.7500E-02  0.7500E-02
    -24.908  0.0000E+00  0.0000E+00  0.7500E-02  0.7500E-02
    -24.729  0.0000E+00  0.0000E+00  0.7500E-02  0.7500E-02
    -24.549  0.7086E-11  0.1087E-10  0.7500E-02  0.7500E-02
    -24.369  0.2528E-05  0.3279E-05  0.7500E-02  0.7501E-02
    -24.190  0.2125E-02  0.2358E-02  0.7882E-02  0.7924E-02
    -24.010  0.1089E-01  0.1077E-01  0.9838E-02  0.9859E-02
    -23.830  0.8988E-03  0.7843E-03  0.1000E-01  0.1000E-01
    -23.650  0.3440E-06  0.2557E-06  0.1000E-01  0.1000E-01
    -23.471  0.2872E-12  0.1802E-12  0.1000E-01  0.1000E-01
    -23.291  0.0000E+00  0.0000E+00  0.1000E-01  0.1000E-01
    -23.111  0.0000E+00  0.0000E+00  0.1000E-01  0.1000E-01
    -22.932  0.0000E+00  0.0000E+00  0.1000E-01  0.1000E-01
    -22.752  0.0000E+00  0.0000E+00  0.1000E-01  0.1000E-01
    -22.572  0.0000E+00  0.0000E+00  0.1000E-01  0.1000E-01
    -22.393  0.0000E+00  0.0000E+00  0.1000E-01  0.1000E-01
    -22.213  0.0000E+00  0.0000E+00  0.1000E-01  0.1000E-01
    -22.033  0.6101E-15  0.8459E-15  0.1000E-01  0.1000E-01
    -21.854  0.4364E-08  0.5461E-08  0.1000E-01  0.1000E-01
    -21.674  0.7165E-04  0.8121E-04  0.1001E-01  0.1001E-01
    -21.494  0.5446E-02  0.5682E-02  0.1099E-01  0.1104E-01
    -21.314  0.1283E-01  0.1278E-01  0.1330E-01  0.1333E-01
    -21.135  0.1183E-01  0.1214E-01  0.1542E-01  0.1551E-01
    -20.955  0.1703E-01  0.1702E-01  0.1848E-01  0.1857E-01
    -20.775  0.1129E-01  0.1107E-01  0.2051E-01  0.2056E-01
    -20.596  0.1170E-01  0.1185E-01  0.2261E-01  0.2269E-01
    -20.416  0.1738E-01  0.1755E-01  0.2574E-01  0.2584E-01
    -20.236  0.1119E-01  0.1090E-01  0.2775E-01  0.2780E-01
    -20.057  0.9027E-02  0.9313E-02  0.2937E-01  0.2948E-01
    -19.877  0.1737E-01  0.1737E-01  0.3249E-01  0.3260E-01
    -19.697  0.1428E-01  0.1420E-01  0.3506E-01  0.3515E-01
    -19.518  0.1496E-01  0.1501E-01  0.3775E-01  0.3784E-01
    -19.338  0.1101E-01  0.1118E-01  0.3972E-01  0.3985E-01
    -19.158  0.1024E-01  0.1024E-01  0.4156E-01  0.4169E-01
    -18.979  0.1831E-01  0.1853E-01  0.4485E-01  0.4502E-01
    -18.799  0.1582E-01  0.1543E-01  0.4770E-01  0.4779E-01
    -18.619  0.1140E-01  0.1113E-01  0.4975E-01  0.4979E-01
    -18.439  0.1439E-01  0.1491E-01  0.5233E-01  0.5247E-01
    -18.260  0.1502E-01  0.1537E-01  0.5503E-01  0.5523E-01
    -18.080  0.1664E-01  0.1629E-01  0.5802E-01  0.5816E-01
    -17.900  0.1015E-01  0.9976E-02  0.5985E-01  0.5995E-01
    -17.721  0.1460E-01  0.1460E-01  0.6247E-01  0.6258E-01
    -17.541  0.1627E-01  0.1650E-01  0.6539E-01  0.6554E-01
    -17.361  0.1472E-01  0.1445E-01  0.6804E-01  0.6814E-01
    -17.182  0.1522E-01  0.1558E-01  0.7077E-01  0.7094E-01
    -17.002  0.1608E-01  0.1583E-01  0.7366E-01  0.7378E-01
    -16.822  0.1546E-01  0.1589E-01  0.7644E-01  0.7664E-01
    -16.643  0.2211E-01  0.2163E-01  0.8041E-01  0.8053E-01
    -16.463  0.9605E-02  0.9877E-02  0.8214E-01  0.8230E-01
    -16.283  0.1275E-01  0.1234E-01  0.8443E-01  0.8452E-01
    -16.104  0.1339E-01  0.1379E-01  0.8683E-01  0.8700E-01
    -15.924  0.1541E-01  0.1536E-01  0.8960E-01  0.8976E-01
    -15.744  0.1184E-01  0.1154E-01  0.9173E-01  0.9183E-01
    -15.564  0.7293E-02  0.7698E-02  0.9304E-01  0.9321E-01
    -15.385  0.9930E-02  0.9774E-02  0.9483E-01  0.9497E-01
    -15.205  0.1348E-01  0.1375E-01  0.9725E-01  0.9744E-01
    -15.025  0.1322E-01  0.1284E-01  0.9962E-01  0.9975E-01
    -14.846  0.1841E-01  0.1861E-01  0.1029E+00  0.1031E+00
    -14.666  0.1604E-01  0.1599E-01  0.1058E+00  0.1060E+00
    -14.486  0.1694E-01  0.1675E-01  0.1089E+00  0.1090E+00
    -14.307  0.1449E-01  0.1456E-01  0.1115E+00  0.1116E+00
    -14.127  0.1353E-01  0.1329E-01  0.1139E+00  0.1140E+00
    -13.947  0.1454E-01  0.1488E-01  0.1165E+00  0.1167E+00
    -13.768  0.1969E-01  0.1996E-01  0.1200E+00  0.1202E+00
    -13.588  0.1207E-01  0.1162E-01  0.1222E+00  0.1223E+00
    -13.408  0.1463E-01  0.1495E-01  0.1248E+00  0.1250E+00
    -13.229  0.1366E-01  0.1359E-01  0.1273E+00  0.1275E+00
    -13.049  0.1322E-01  0.1278E-01  0.1297E+00  0.1298E+00
    -12.869  0.1284E-01  0.1314E-01  0.1320E+00  0.1321E+00
    -12.689  0.1771E-01  0.1782E-01  0.1352E+00  0.1353E+00
    -12.510  0.1652E-01  0.1664E-01  0.1381E+00  0.1383E+00
    -12.330  0.1329E-01  0.1248E-01  0.1405E+00  0.1406E+00
    -12.150  0.5336E-02  0.5367E-02  0.1415E+00  0.1415E+00
    -11.971  0.1355E-01  0.1431E-01  0.1439E+00  0.1441E+00
    -11.791  0.2896E-01  0.2888E-01  0.1491E+00  0.1493E+00
    -11.611  0.2100E-01  0.2100E-01  0.1529E+00  0.1530E+00
    -11.432  0.1813E-01  0.1789E-01  0.1561E+00  0.1563E+00
    -11.252  0.6062E-02  0.5697E-02  0.1572E+00  0.1573E+00
    -11.072  0.1762E-01  0.1824E-01  0.1604E+00  0.1606E+00
    -10.893  0.2116E-01  0.2083E-01  0.1642E+00  0.1643E+00
    -10.713  0.1419E-01  0.1400E-01  0.1667E+00  0.1668E+00
    -10.533  0.1546E-01  0.1595E-01  0.1695E+00  0.1697E+00
    -10.354  0.2847E-01  0.2881E-01  0.1746E+00  0.1749E+00
    -10.174  0.2388E-01  0.2314E-01  0.1789E+00  0.1790E+00
     -9.994  0.2518E-01  0.2552E-01  0.1835E+00  0.1836E+00
     -9.814  0.2203E-01  0.2187E-01  0.1874E+00  0.1875E+00
     -9.635  0.2171E-01  0.2203E-01  0.1913E+00  0.1915E+00
     -9.455  0.3224E-01  0.3210E-01  0.1971E+00  0.1973E+00
     -9.275  0.2955E-01  0.2936E-01  0.2024E+00  0.2025E+00
     -9.096  0.2609E-01  0.2642E-01  0.2071E+00  0.2073E+00
     -8.916  0.3862E-01  0.3856E-01  0.2140E+00  0.2142E+00
     -8.736  0.3569E-01  0.3573E-01  0.2205E+00  0.2206E+00
     -8.557  0.4417E-01  0.4492E-01  0.2284E+00  0.2287E+00
     -8.377  0.4967E-01  0.4910E-01  0.2373E+00  0.2375E+00
     -8.197  0.3587E-01  0.3533E-01  0.2438E+00  0.2439E+00
     -8.018  0.2738E-01  0.2813E-01  0.2487E+00  0.2489E+00
     -7.838  0.3272E-01  0.3206E-01  0.2546E+00  0.2547E+00
     -7.658  0.2789E-01  0.2810E-01  0.2596E+00  0.2598E+00
     -7.479  0.3372E-01  0.3374E-01  0.2656E+00  0.2658E+00
     -7.299  0.3366E-01  0.3373E-01  0.2717E+00  0.2719E+00
     -7.119  0.3155E-01  0.3078E-01  0.2774E+00  0.2774E+00
     -6.939  0.3182E-01  0.3193E-01  0.2831E+00  0.2831E+00
     -6.760  0.2206E-01  0.2241E-01  0.2870E+00  0.2872E+00
     -6.580  0.2090E-01  0.2030E-01  0.2908E+00  0.2908E+00
     -6.400  0.2050E-01  0.1972E-01  0.2945E+00  0.2944E+00
     -6.221  0.3414E-01  0.3375E-01  0.3006E+00  0.3004E+00
     -6.041  0.3022E-01  0.3158E-01  0.3060E+00  0.3061E+00
     -5.861  0.2996E-01  0.3011E-01  0.3114E+00  0.3115E+00
     -5.682  0.2471E-01  0.2235E-01  0.3159E+00  0.3155E+00
     -5.502  0.1524E-01  0.1630E-01  0.3186E+00  0.3185E+00
     -5.322  0.1919E-01  0.1896E-01  0.3221E+00  0.3219E+00
     -5.143  0.1750E-01  0.1652E-01  0.3252E+00  0.3248E+00
     -4.963  0.2847E-01  0.2080E-01  0.3303E+00  0.3286E+00
     -4.783  0.2852E-01  0.3078E-01  0.3354E+00  0.3341E+00
     -4.604  0.3664E-01  0.3982E-01  0.3420E+00  0.3413E+00
     -4.424  0.1561E-01  0.1958E-01  0.3448E+00  0.3448E+00
     -4.244  0.4720E-02  0.3523E-02  0.3457E+00  0.3454E+00
     -4.064  0.1247E-01  0.9080E-02  0.3479E+00  0.3470E+00
     -3.885  0.2754E-01  0.1619E-01  0.3529E+00  0.3499E+00
     -3.705  0.1330E-01  0.1500E-01  0.3553E+00  0.3526E+00
     -3.525  0.7816E-02  0.1581E-01  0.3567E+00  0.3555E+00
     -3.346  0.1650E-01  0.1644E-01  0.3596E+00  0.3584E+00
     -3.166  0.1720E-01  0.8583E-02  0.3627E+00  0.3600E+00
     -2.986  0.6051E-02  0.7446E-02  0.3638E+00  0.3613E+00
     -2.807  0.9598E-02  0.2907E-02  0.3655E+00  0.3618E+00
     -2.627  0.5948E-02  0.2031E-03  0.3666E+00  0.3619E+00
     -2.447  0.1556E-02  0.7548E-06  0.3669E+00  0.3619E+00
     -2.268  0.1369E-02  0.7779E-03  0.3671E+00  0.3620E+00
     -2.088  0.6348E-02  0.9307E-02  0.3683E+00  0.3637E+00
     -1.908  0.3044E-02  0.9542E-02  0.3688E+00  0.3654E+00
     -1.729  0.6646E-02  0.1280E-02  0.3700E+00  0.3656E+00
     -1.549  0.1723E-01  0.2615E-02  0.3731E+00  0.3661E+00
     -1.369  0.1590E-01  0.7849E-02  0.3760E+00  0.3675E+00
     -1.189  0.1023E-01  0.3393E-02  0.3778E+00  0.3681E+00
     -1.010  0.3206E-02  0.6351E-02  0.3784E+00  0.3693E+00
     -0.830  0.1415E-01  0.2689E-01  0.3809E+00  0.3741E+00
     -0.650  0.1869E-01  0.2748E-01  0.3843E+00  0.3790E+00
     -0.471  0.1505E-01  0.2769E-01  0.3870E+00  0.3840E+00
     -0.291  0.1612E-01  0.2213E-01  0.3899E+00  0.3880E+00
     -0.111  0.1373E-01  0.1707E-01  0.3923E+00  0.3911E+00
      0.068  0.9464E-02  0.1152E-01  0.3940E+00  0.3931E+00
      0.248  0.2297E-01  0.1902E-01  0.3982E+00  0.3965E+00
      0.428  0.1876E-01  0.2667E-01  0.4015E+00  0.4013E+00
      0.607  0.1532E-01  0.1752E-01  0.4043E+00  0.4045E+00
      0.787  0.1086E-01  0.6550E-02  0.4062E+00  0.4057E+00
      0.967  0.1731E-01  0.9604E-02  0.4093E+00  0.4074E+00
      1.147  0.1343E-01  0.2126E-01  0.4118E+00  0.4112E+00
      1.326  0.1775E-01  0.1533E-01  0.4150E+00  0.4140E+00
      1.506  0.1665E-01  0.1782E-01  0.4179E+00  0.4172E+00
      1.686  0.2433E-01  0.2347E-01  0.4223E+00  0.4214E+00
      1.865  0.2754E-01  0.2617E-01  0.4273E+00  0.4261E+00
      2.045  0.3325E-01  0.3239E-01  0.4332E+00  0.4319E+00
      2.225  0.2907E-01  0.2655E-01  0.4385E+00  0.4367E+00
      2.404  0.2110E-01  0.1789E-01  0.4423E+00  0.4399E+00
      2.584  0.3580E-01  0.3790E-01  0.4487E+00  0.4467E+00
      2.764  0.4929E-01  0.5278E-01  0.4575E+00  0.4562E+00
      2.943  0.1343E-01  0.2074E-01  0.4600E+00  0.4599E+00
      3.123  0.2589E-03  0.5222E-03  0.4600E+00  0.4600E+00
      3.303  0.3743E-07  0.9250E-07  0.4600E+00  0.4600E+00
      3.482  0.1424E-13  0.4584E-13  0.4600E+00  0.4600E+00
      3.662  0.0000E+00  0.0000E+00  0.4600E+00  0.4600E+00
      3.842  0.0000E+00  0.0000E+00  0.4600E+00  0.4600E+00
      4.022  0.0000E+00  0.0000E+00  0.4600E+00  0.4600E+00
      4.201  0.0000E+00  0.0000E+00  0.4600E+00  0.4600E+00
      4.381  0.0000E+00  0.0000E+00  0.4600E+00  0.4600E+00
      4.561  0.0000E+00  0.0000E+00  0.4600E+00  0.4600E+00
      4.740  0.0000E+00  0.0000E+00  0.4600E+00  0.4600E+00
      4.920  0.0000E+00  0.0000E+00  0.4600E+00  0.4600E+00
      5.100  0.0000E+00  0.0000E+00  0.4600E+00  0.4600E+00
      5.279  0.0000E+00  0.0000E+00  0.4600E+00  0.4600E+00
