       N       E                     dE             d eps       ncg     rms          rms(c)
DAV:   1     0.274396765130E+04    0.27440E+04   -0.11731E+05  3248   0.127E+03
DAV:   2    -0.171823539698E+03   -0.29158E+04   -0.27869E+04  4312   0.296E+02
DAV:   3    -0.684294282693E+03   -0.51247E+03   -0.50950E+03  3560   0.129E+02
DAV:   4    -0.703763156127E+03   -0.19469E+02   -0.19322E+02  3560   0.312E+01
DAV:   5    -0.704384769022E+03   -0.62161E+00   -0.61969E+00  4088   0.479E+00    0.465E+01
RMM:   6    -0.731323646795E+03   -0.26939E+02   -0.52646E+02  4069   0.392E+01    0.835E+01
RMM:   7    -0.662388445420E+03    0.68935E+02   -0.59197E+01  3064   0.138E+01    0.320E+01
RMM:   8    -0.662359474644E+03    0.28971E-01   -0.22424E+01  3125   0.709E+00    0.283E+01
RMM:   9    -0.647124528125E+03    0.15235E+02   -0.19862E+01  2973   0.840E+00    0.117E+01
RMM:  10    -0.647590648896E+03   -0.46612E+00   -0.32024E+00  2999   0.314E+00    0.145E+01
RMM:  11    -0.646514006367E+03    0.10766E+01   -0.42981E-01  3125   0.106E+00    0.791E+00
RMM:  12    -0.646333041459E+03    0.18096E+00   -0.16096E-01  2944   0.939E-01    0.589E+00
RMM:  13    -0.646445122770E+03   -0.11208E+00   -0.29684E-02  2994   0.317E-01    0.720E+00
RMM:  14    -0.646258639138E+03    0.18648E+00   -0.28895E-02  2984   0.402E-01    0.660E+00
RMM:  15    -0.646273664426E+03   -0.15025E-01   -0.15448E-02  3005   0.165E-01    0.592E+00
RMM:  16    -0.646300841173E+03   -0.27177E-01   -0.28612E-02  2947   0.511E-01    0.617E+00
RMM:  17    -0.646260003440E+03    0.40838E-01   -0.39839E-02  3013   0.332E-01    0.395E+00
RMM:  18    -0.646260908950E+03   -0.90551E-03   -0.20357E-02  3023   0.245E-01    0.233E+00
RMM:  19    -0.646277439353E+03   -0.16530E-01   -0.40817E-03  3046   0.140E-01    0.233E+00
RMM:  20    -0.646301776357E+03   -0.24337E-01   -0.70175E-03  2974   0.162E-01    0.394E+00
RMM:  21    -0.646304289266E+03   -0.25129E-02   -0.10626E-02  2974   0.227E-01    0.386E+00
RMM:  22    -0.646290481069E+03    0.13808E-01   -0.79708E-03  2984   0.143E-01    0.365E+00
RMM:  23    -0.646274012530E+03    0.16469E-01   -0.12277E-02  2963   0.156E-01    0.276E+00
RMM:  24    -0.646310585783E+03   -0.36573E-01   -0.17411E-02  2959   0.239E-01    0.303E+00
RMM:  25    -0.646320316752E+03   -0.97310E-02   -0.81710E-03  2995   0.220E-01    0.305E+00
RMM:  26    -0.646320562566E+03   -0.24581E-03   -0.13533E-03  3025   0.551E-02    0.311E+00
RMM:  27    -0.646311471024E+03    0.90915E-02   -0.32905E-03  2988   0.816E-02    0.276E+00
RMM:  28    -0.646294958674E+03    0.16512E-01   -0.48828E-03  2997   0.102E-01    0.285E+00
RMM:  29    -0.646275501104E+03    0.19458E-01   -0.22848E-03  3019   0.806E-02    0.242E+00
RMM:  30    -0.646263135768E+03    0.12365E-01   -0.44913E-03  3006   0.938E-02    0.890E-01
RMM:  31    -0.646274467431E+03   -0.11332E-01   -0.25924E-03  2946   0.147E-01    0.108E+00
RMM:  32    -0.646274928098E+03   -0.46067E-03   -0.21150E-03  3038   0.656E-02    0.370E-01
RMM:  33    -0.646277824919E+03   -0.28968E-02   -0.11606E-03  2860   0.651E-02    0.286E-01
RMM:  34    -0.646280238661E+03   -0.24137E-02   -0.52636E-04  2783   0.364E-02    0.584E-01
RMM:  35    -0.646283044496E+03   -0.28058E-02   -0.38639E-04  2597   0.441E-02    0.102E+00
RMM:  36    -0.646283690397E+03   -0.64590E-03   -0.37282E-04  2612   0.406E-02    0.133E+00
RMM:  37    -0.646281807827E+03    0.18826E-02   -0.24830E-04  2535   0.326E-02    0.112E+00
RMM:  38    -0.646281573481E+03    0.23435E-03   -0.18260E-04  2311   0.198E-02    0.442E-01
RMM:  39    -0.646283660815E+03   -0.20873E-02   -0.15966E-04  2380   0.410E-02    0.109E-01
RMM:  40    -0.646284332397E+03   -0.67158E-03   -0.17374E-04  2440   0.392E-02    0.149E-01
RMM:  41    -0.646284626279E+03   -0.29388E-03   -0.12677E-04  2252   0.211E-02    0.232E-01
RMM:  42    -0.646285054574E+03   -0.42830E-03   -0.57427E-05  2087   0.204E-02    0.449E-01
RMM:  43    -0.646284872124E+03    0.18245E-03   -0.35701E-05  1921   0.190E-02    0.472E-01
RMM:  44    -0.646284706325E+03    0.16580E-03   -0.21077E-05  1861   0.904E-03    0.310E-01
RMM:  45    -0.646284870869E+03   -0.16454E-03   -0.11717E-05  1765   0.796E-03    0.864E-02
RMM:  46    -0.646285084459E+03   -0.21359E-03   -0.15141E-05  1794   0.137E-02    0.131E-01
RMM:  47    -0.646285133916E+03   -0.49457E-04   -0.17822E-05  1821   0.151E-02    0.254E-01
RMM:  48    -0.646285035295E+03    0.98622E-04   -0.13133E-05  1801   0.112E-02    0.256E-01
RMM:  49    -0.646284945905E+03    0.89390E-04   -0.13160E-05  1800   0.617E-03    0.765E-02
RMM:  50    -0.646285125844E+03   -0.17994E-03   -0.12052E-05  1733   0.912E-03
   1 F= -.65268075E+03 E0= -.65263948E+03  d E =-.652681E+03  mag=     0.0485
       N       E                     dE             d eps       ncg     rms          rms(c)
DAV:   1    -0.646310147344E+03   -0.25201E-01   -0.13083E+01  3168   0.101E+01    0.167E+00
RMM:   2    -0.646983398507E+03   -0.67325E+00   -0.75159E-01  3086   0.177E+00    0.108E+01
RMM:   3    -0.646392870100E+03    0.59053E+00   -0.26818E-01  3120   0.852E-01    0.412E+00
RMM:   4    -0.646358017950E+03    0.34852E-01   -0.28844E-02  3464   0.335E-01    0.534E+00
RMM:   5    -0.646403388052E+03   -0.45370E-01   -0.11549E-02  3061   0.180E-01    0.646E+00
RMM:   6    -0.646541610976E+03   -0.13822E+00   -0.36317E-02  3005   0.271E-01    0.606E+00
RMM:   7    -0.646641996475E+03   -0.10039E+00   -0.46105E-02  3021   0.270E-01    0.544E+00
RMM:   8    -0.646673723066E+03   -0.31727E-01   -0.13098E-02  3245   0.120E-01    0.529E+00
RMM:   9    -0.646676821981E+03   -0.30989E-02   -0.19957E-03  3171   0.395E-02    0.528E+00
RMM:  10    -0.646724254737E+03   -0.47433E-01   -0.41841E-03  3032   0.971E-02    0.497E+00
RMM:  11    -0.646790033252E+03   -0.65779E-01   -0.96890E-03  3049   0.152E-01    0.447E+00
RMM:  12    -0.646854392524E+03   -0.64359E-01   -0.18171E-02  3048   0.197E-01    0.375E+00
RMM:  13    -0.646891346184E+03   -0.36954E-01   -0.26433E-02  3041   0.227E-01    0.290E+00
RMM:  14    -0.646888854503E+03    0.24917E-02   -0.15245E-02  3176   0.159E-01    0.244E+00
RMM:  15    -0.646888837226E+03    0.17277E-04   -0.32697E-03  3369   0.535E-02    0.235E+00
RMM:  16    -0.646889594201E+03   -0.75698E-03   -0.94771E-04  3103   0.344E-02    0.224E+00
RMM:  17    -0.646887092639E+03    0.25016E-02   -0.46411E-04  2889   0.265E-02    0.221E+00
RMM:  18    -0.646892346348E+03   -0.52537E-02   -0.53341E-04  2924   0.371E-02    0.211E+00
RMM:  19    -0.646892928891E+03   -0.58254E-03   -0.23922E-03  2985   0.797E-02    0.170E+00
RMM:  20    -0.646887827482E+03    0.51014E-02   -0.37116E-03  3072   0.816E-02    0.137E+00
RMM:  21    -0.646878504013E+03    0.93235E-02   -0.11213E-02  3073   0.141E-01    0.812E-01
RMM:  22    -0.646878435407E+03    0.68606E-04   -0.13180E-02  3135   0.139E-01    0.256E-01
RMM:  23    -0.646879309003E+03   -0.87360E-03   -0.22027E-03  3266   0.460E-02    0.245E-01
RMM:  24    -0.646878947939E+03    0.36106E-03   -0.20590E-04  2334   0.144E-02    0.256E-01
RMM:  25    -0.646879961315E+03   -0.10134E-02   -0.33077E-04  2678   0.243E-02    0.163E-01
RMM:  26    -0.646880665429E+03   -0.70411E-03   -0.27727E-04  2569   0.213E-02    0.898E-02
RMM:  27    -0.646880990762E+03   -0.32533E-03   -0.20257E-04  2474   0.197E-02    0.454E-02
RMM:  28    -0.646881030091E+03   -0.39329E-04   -0.45557E-05  1967   0.840E-03    0.611E-02
RMM:  29    -0.646881074856E+03   -0.44765E-04   -0.67305E-06  1782   0.468E-03    0.567E-02
RMM:  30    -0.646881082935E+03   -0.80792E-05   -0.22886E-06  1445   0.307E-03
   2 F= -.65328539E+03 E0= -.65326736E+03  d E =-.604643E+00  mag=     1.5692
       N       E                     dE             d eps       ncg     rms          rms(c)
DAV:   1    -0.646889452493E+03   -0.83776E-02   -0.28716E-02  3368   0.470E-01    0.850E-02
RMM:   2    -0.646889453395E+03   -0.90204E-06   -0.86489E-04  3067   0.749E-02    0.491E-02
RMM:   3    -0.646889400702E+03    0.52693E-04   -0.71566E-05  2407   0.185E-02    0.373E-02
RMM:   4    -0.646889374238E+03    0.26464E-04   -0.80757E-05  1991   0.182E-02    0.398E-02
RMM:   5    -0.646889352216E+03    0.22022E-04   -0.29558E-05  1933   0.117E-02    0.887E-03
RMM:   6    -0.646889393754E+03   -0.41538E-04   -0.34867E-06  1747   0.523E-03    0.316E-03
RMM:   7    -0.646889434129E+03   -0.40375E-04   -0.20702E-06  1708   0.285E-03    0.165E-03
RMM:   8    -0.646889452794E+03   -0.18665E-04   -0.57026E-07   937   0.176E-03    0.975E-04
RMM:   9    -0.646889466754E+03   -0.13960E-04   -0.39040E-07   723   0.155E-03    0.623E-04
RMM:  10    -0.646889474740E+03   -0.79862E-05   -0.37656E-07   727   0.151E-03
   3 F= -.65329343E+03 E0= -.65327538E+03  d E =-.612676E+00  mag=     1.5776
       N       E                     dE             d eps       ncg     rms          rms(c)
DAV:   1    -0.646936892738E+03   -0.47426E-01   -0.26531E+00  3152   0.451E+00    0.562E-01
RMM:   2    -0.646939024033E+03   -0.21313E-02   -0.78148E-02  3068   0.712E-01    0.322E-01
RMM:   3    -0.646936254427E+03    0.27696E-02   -0.85190E-03  3210   0.193E-01    0.378E-01
RMM:   4    -0.646934613641E+03    0.16408E-02   -0.39824E-03  3138   0.116E-01    0.171E-01
RMM:   5    -0.646934879786E+03   -0.26615E-03   -0.75735E-04  3032   0.523E-02    0.650E-02
RMM:   6    -0.646936307898E+03   -0.14281E-02   -0.14425E-04  2800   0.232E-02    0.261E-02
RMM:   7    -0.646937370752E+03   -0.10629E-02   -0.55038E-05  2068   0.111E-02    0.113E-02
RMM:   8    -0.646938075411E+03   -0.70466E-03   -0.28135E-05  1929   0.727E-03    0.554E-03
RMM:   9    -0.646938438833E+03   -0.36342E-03   -0.16174E-05  1810   0.479E-03    0.297E-03
RMM:  10    -0.646938631028E+03   -0.19220E-03   -0.97946E-06  1397   0.337E-03    0.175E-03
RMM:  11    -0.646938696482E+03   -0.65454E-04   -0.51220E-06  1236   0.274E-03    0.893E-04
RMM:  12    -0.646938707223E+03   -0.10741E-04   -0.22246E-06  1153   0.221E-03    0.577E-04
RMM:  13    -0.646938724101E+03   -0.16878E-04   -0.12498E-06  1045   0.188E-03    0.408E-04
RMM:  14    -0.646938733862E+03   -0.97611E-05   -0.57232E-07   820   0.161E-03
   4 F= -.65333899E+03 E0= -.65332152E+03  d E =-.658243E+00  mag=     1.6659
       N       E                     dE             d eps       ncg     rms          rms(c)
DAV:   1    -0.646942122846E+03   -0.33987E-02   -0.16510E-01  3224   0.112E+00    0.140E-01
RMM:   2    -0.646942144327E+03   -0.21481E-04   -0.48584E-03  3076   0.178E-01    0.808E-02
RMM:   3    -0.646941936515E+03    0.20781E-03   -0.55906E-04  3186   0.490E-02    0.101E-01
RMM:   4    -0.646941780884E+03    0.15563E-03   -0.24526E-04  2766   0.290E-02    0.392E-02
RMM:   5    -0.646941807751E+03   -0.26867E-04   -0.44727E-05  2106   0.137E-02    0.163E-02
RMM:   6    -0.646941954226E+03   -0.14647E-03   -0.97687E-06  1792   0.753E-03    0.648E-03
RMM:   7    -0.646942070274E+03   -0.11605E-03   -0.49489E-06  1772   0.443E-03    0.288E-03
RMM:   8    -0.646942142713E+03   -0.72439E-04   -0.24693E-06  1421   0.269E-03    0.165E-03
RMM:   9    -0.646942195356E+03   -0.52643E-04   -0.18522E-06  1171   0.218E-03    0.988E-04
RMM:  10    -0.646942211815E+03   -0.16459E-04   -0.67951E-07   853   0.171E-03    0.532E-04
RMM:  11    -0.646942221589E+03   -0.97740E-05   -0.57042E-07   807   0.164E-03
   5 F= -.65334149E+03 E0= -.65332432E+03  d E =-.660743E+00  mag=     1.6874
       N       E                     dE             d eps       ncg     rms          rms(c)
DAV:   1    -0.646947640374E+03   -0.54286E-02   -0.20964E+00  3112   0.421E+00    0.434E-01
RMM:   2    -0.646954263736E+03   -0.66234E-02   -0.71148E-02  3013   0.659E-01    0.574E-01
RMM:   3    -0.646951294291E+03    0.29694E-02   -0.85538E-03  3272   0.184E-01    0.266E-01
RMM:   4    -0.646950345849E+03    0.94844E-03   -0.17776E-03  3106   0.872E-02    0.117E-01
RMM:   5    -0.646950148391E+03    0.19746E-03   -0.67175E-04  2968   0.521E-02    0.436E-02
RMM:   6    -0.646950238908E+03   -0.90517E-04   -0.59854E-05  2295   0.175E-02    0.234E-02
RMM:   7    -0.646950357731E+03   -0.11882E-03   -0.23280E-05  1864   0.962E-03    0.113E-02
RMM:   8    -0.646950450623E+03   -0.92892E-04   -0.73079E-06  1780   0.598E-03    0.437E-03
RMM:   9    -0.646950484368E+03   -0.33745E-04   -0.29212E-06  1772   0.364E-03    0.167E-03
RMM:  10    -0.646950489969E+03   -0.56012E-05   -0.67697E-07  1140   0.212E-03
   6 F= -.65335103E+03 E0= -.65333410E+03  d E =-.953991E-02  mag=     1.7091
       N       E                     dE             d eps       ncg     rms          rms(c)
DAV:   1    -0.646951983607E+03   -0.14992E-02   -0.14372E-01  3280   0.110E+00    0.113E-01
RMM:   2    -0.646952422111E+03   -0.43850E-03   -0.48957E-03  3009   0.172E-01    0.151E-01
RMM:   3    -0.646952222389E+03    0.19972E-03   -0.57282E-04  3160   0.478E-02    0.690E-02
RMM:   4    -0.646952154615E+03    0.67774E-04   -0.12034E-04  2925   0.229E-02    0.312E-02
RMM:   5    -0.646952132745E+03    0.21869E-04   -0.47397E-05  2243   0.144E-02    0.111E-02
RMM:   6    -0.646952150512E+03   -0.17766E-04   -0.49022E-06  1762   0.604E-03    0.579E-03
RMM:   7    -0.646952169852E+03   -0.19340E-04   -0.24017E-06  1725   0.363E-03    0.228E-03
RMM:   8    -0.646952181060E+03   -0.11208E-04   -0.54685E-07  1122   0.212E-03    0.138E-03
RMM:   9    -0.646952186523E+03   -0.54632E-05   -0.33595E-07   873   0.174E-03
   7 F= -.65335243E+03 E0= -.65333543E+03  d E =-.109328E-01  mag=     1.7042
       N       E                     dE             d eps       ncg     rms          rms(c)
DAV:   1    -0.646957031054E+03   -0.48500E-02   -0.63639E-01  3184   0.230E+00    0.264E-01
RMM:   2    -0.646958837813E+03   -0.18068E-02   -0.20553E-02  3012   0.349E-01    0.331E-01
RMM:   3    -0.646957720836E+03    0.11170E-02   -0.30746E-03  3150   0.114E-01    0.180E-01
RMM:   4    -0.646957271099E+03    0.44974E-03   -0.62308E-04  3017   0.521E-02    0.740E-02
RMM:   5    -0.646957231518E+03    0.39581E-04   -0.20513E-04  2945   0.309E-02    0.230E-02
RMM:   6    -0.646957353870E+03   -0.12235E-03   -0.15262E-05  1809   0.968E-03    0.109E-02
RMM:   7    -0.646957450008E+03   -0.96137E-04   -0.74128E-06  1777   0.575E-03    0.470E-03
RMM:   8    -0.646957510904E+03   -0.60896E-04   -0.32859E-06  1771   0.363E-03    0.246E-03
RMM:   9    -0.646957552054E+03   -0.41151E-04   -0.17872E-06  1281   0.233E-03    0.117E-03
RMM:  10    -0.646957567417E+03   -0.15362E-04   -0.76787E-07   992   0.184E-03    0.668E-04
RMM:  11    -0.646957573009E+03   -0.55926E-05   -0.39105E-07   754   0.166E-03
   8 F= -.65335644E+03 E0= -.65333959E+03  d E =-.401340E-02  mag=     1.7233
       N       E                     dE             d eps       ncg     rms          rms(c)
DAV:   1    -0.646957482848E+03    0.84569E-04   -0.16260E-02  3336   0.368E-01    0.424E-02
RMM:   2    -0.646957523798E+03   -0.40950E-04   -0.52757E-04  3011   0.558E-02    0.532E-02
RMM:   3    -0.646957491412E+03    0.32387E-04   -0.74544E-05  2079   0.182E-02    0.294E-02
RMM:   4    -0.646957475405E+03    0.16007E-04   -0.15748E-05  1784   0.102E-02    0.112E-02
RMM:   5    -0.646957479108E+03   -0.37028E-05   -0.74419E-06  1726   0.673E-03
   9 F= -.65335657E+03 E0= -.65333969E+03  d E =-.414647E-02  mag=     1.7209
       N       E                     dE             d eps       ncg     rms          rms(c)
DAV:   1    -0.646959328101E+03   -0.18527E-02   -0.29216E-01  3072   0.147E+00    0.129E-01
RMM:   2    -0.646959710156E+03   -0.38206E-03   -0.56182E-03  3017   0.195E-01    0.950E-02
RMM:   3    -0.646959672870E+03    0.37287E-04   -0.63360E-04  3140   0.541E-02    0.112E-01
RMM:   4    -0.646959526168E+03    0.14670E-03   -0.23016E-04  2988   0.298E-02    0.340E-02
RMM:   5    -0.646959519026E+03    0.71415E-05   -0.46104E-05  2212   0.142E-02
  10 F= -.65335831E+03 E0= -.65334158E+03  d E =-.174219E-02  mag=     1.7261
       N       E                     dE             d eps       ncg     rms          rms(c)
DAV:   1    -0.646959539587E+03   -0.13419E-04   -0.73658E-04  3296   0.734E-02    0.734E-03
RMM:   2    -0.646959563524E+03   -0.23937E-04   -0.10320E-05  1739   0.936E-03    0.466E-03
RMM:   3    -0.646959577709E+03   -0.14186E-04   -0.27302E-06  1715   0.449E-03    0.528E-03
RMM:   4    -0.646959584798E+03   -0.70886E-05   -0.10508E-06  1306   0.288E-03
  11 F= -.65335840E+03 E0= -.65334165E+03  d E =-.182338E-02  mag=     1.7268
       N       E                     dE             d eps       ncg     rms          rms(c)
DAV:   1    -0.646959872959E+03   -0.29525E-03   -0.15082E-01  3176   0.113E+00    0.109E-01
RMM:   2    -0.646960376558E+03   -0.50360E-03   -0.47722E-03  2997   0.163E-01    0.165E-01
RMM:   3    -0.646960112386E+03    0.26417E-03   -0.57826E-04  3243   0.478E-02    0.590E-02
RMM:   4    -0.646960069832E+03    0.42554E-04   -0.86312E-05  2847   0.189E-02    0.300E-02
RMM:   5    -0.646960052492E+03    0.17340E-04   -0.39068E-05  2111   0.134E-02    0.108E-02
RMM:   6    -0.646960060261E+03   -0.77687E-05   -0.43435E-06  1745   0.594E-03
  12 F= -.65335925E+03 E0= -.65334271E+03  d E =-.859101E-03  mag=     1.7278
