  71  71   0   0
  0.4011563E+02  0.1487831E-08  0.1477209E-08  0.1500000E-08  0.3000000E-15
  1.000000000000000E-004
  CAR 
 unknown system                          
      5.29262671    -48.59247412  301     -2.08280259      1.00000000
    -48.592  0.0000E+00  0.0000E+00  0.0000E+00  0.0000E+00
    -48.413  0.0000E+00  0.0000E+00  0.0000E+00  0.0000E+00
    -48.233  0.0000E+00  0.0000E+00  0.0000E+00  0.0000E+00
    -48.054  0.0000E+00  0.0000E+00  0.0000E+00  0.0000E+00
    -47.874  0.0000E+00  0.0000E+00  0.0000E+00  0.0000E+00
    -47.694  0.0000E+00  0.0000E+00  0.0000E+00  0.0000E+00
    -47.515  0.0000E+00  0.0000E+00  0.0000E+00  0.0000E+00
    -47.335  0.0000E+00  0.0000E+00  0.0000E+00  0.0000E+00
    -47.156  0.0000E+00  0.0000E+00  0.0000E+00  0.0000E+00
    -46.976  0.0000E+00  0.0000E+00  0.0000E+00  0.0000E+00
    -46.796  0.0000E+00  0.0000E+00  0.0000E+00  0.0000E+00
    -46.617  0.0000E+00  0.1482E-12  0.0000E+00  0.2663E-13
    -46.437  0.0000E+00  0.2248E-06  0.0000E+00  0.4037E-07
    -46.257  0.0000E+00  0.7374E-03  0.0000E+00  0.1325E-03
    -46.078  0.0000E+00  0.1086E-01  0.0000E+00  0.2084E-02
    -45.898  0.0000E+00  0.1315E-01  0.0000E+00  0.4447E-02
    -45.719  0.0000E+00  0.1624E-01  0.0000E+00  0.7363E-02
    -45.539  0.0000E+00  0.7629E-03  0.0000E+00  0.7500E-02
    -45.359  0.0000E+00  0.2183E-06  0.0000E+00  0.7500E-02
    -45.180  0.0000E+00  0.1410E-12  0.0000E+00  0.7500E-02
    -45.000  0.0000E+00  0.0000E+00  0.0000E+00  0.7500E-02
    -44.821  0.0000E+00  0.0000E+00  0.0000E+00  0.7500E-02
    -44.641  0.0000E+00  0.0000E+00  0.0000E+00  0.7500E-02
    -44.461  0.6842E-11  0.0000E+00  0.1229E-11  0.7500E-02
    -44.282  0.2466E-05  0.0000E+00  0.4429E-06  0.7500E-02
    -44.102  0.2101E-02  0.0000E+00  0.3778E-03  0.7500E-02
    -43.922  0.1168E-01  0.0000E+00  0.2476E-02  0.7500E-02
    -43.743  0.1265E-01  0.0000E+00  0.4748E-02  0.7500E-02
    -43.563  0.1331E-01  0.0000E+00  0.7138E-02  0.7500E-02
    -43.384  0.2014E-02  0.0000E+00  0.7500E-02  0.7500E-02
    -43.204  0.2215E-05  0.0000E+00  0.7500E-02  0.7500E-02
    -43.024  0.5738E-11  0.0000E+00  0.7500E-02  0.7500E-02
    -42.845  0.0000E+00  0.0000E+00  0.7500E-02  0.7500E-02
    -42.665  0.0000E+00  0.0000E+00  0.7500E-02  0.7500E-02
    -42.485  0.0000E+00  0.0000E+00  0.7500E-02  0.7500E-02
    -42.306  0.0000E+00  0.0000E+00  0.7500E-02  0.7500E-02
    -42.126  0.0000E+00  0.0000E+00  0.7500E-02  0.7500E-02
    -41.947  0.0000E+00  0.0000E+00  0.7500E-02  0.7500E-02
    -41.767  0.0000E+00  0.0000E+00  0.7500E-02  0.7500E-02
    -41.587  0.0000E+00  0.0000E+00  0.7500E-02  0.7500E-02
    -41.408  0.0000E+00  0.0000E+00  0.7500E-02  0.7500E-02
    -41.228  0.0000E+00  0.0000E+00  0.7500E-02  0.7500E-02
    -41.049  0.0000E+00  0.0000E+00  0.7500E-02  0.7500E-02
    -40.869  0.0000E+00  0.0000E+00  0.7500E-02  0.7500E-02
    -40.689  0.0000E+00  0.0000E+00  0.7500E-02  0.7500E-02
    -40.510  0.0000E+00  0.0000E+00  0.7500E-02  0.7500E-02
    -40.330  0.0000E+00  0.0000E+00  0.7500E-02  0.7500E-02
    -40.150  0.0000E+00  0.0000E+00  0.7500E-02  0.7500E-02
    -39.971  0.0000E+00  0.0000E+00  0.7500E-02  0.7500E-02
    -39.791  0.0000E+00  0.0000E+00  0.7500E-02  0.7500E-02
    -39.612  0.0000E+00  0.0000E+00  0.7500E-02  0.7500E-02
    -39.432  0.0000E+00  0.0000E+00  0.7500E-02  0.7500E-02
    -39.252  0.0000E+00  0.0000E+00  0.7500E-02  0.7500E-02
    -39.073  0.0000E+00  0.0000E+00  0.7500E-02  0.7500E-02
    -38.893  0.0000E+00  0.0000E+00  0.7500E-02  0.7500E-02
    -38.714  0.0000E+00  0.0000E+00  0.7500E-02  0.7500E-02
    -38.534  0.0000E+00  0.0000E+00  0.7500E-02  0.7500E-02
    -38.354  0.0000E+00  0.0000E+00  0.7500E-02  0.7500E-02
    -38.175  0.0000E+00  0.0000E+00  0.7500E-02  0.7500E-02
    -37.995  0.0000E+00  0.0000E+00  0.7500E-02  0.7500E-02
    -37.815  0.0000E+00  0.0000E+00  0.7500E-02  0.7500E-02
    -37.636  0.0000E+00  0.0000E+00  0.7500E-02  0.7500E-02
    -37.456  0.0000E+00  0.0000E+00  0.7500E-02  0.7500E-02
    -37.277  0.0000E+00  0.0000E+00  0.7500E-02  0.7500E-02
    -37.097  0.0000E+00  0.0000E+00  0.7500E-02  0.7500E-02
    -36.917  0.0000E+00  0.0000E+00  0.7500E-02  0.7500E-02
    -36.738  0.0000E+00  0.0000E+00  0.7500E-02  0.7500E-02
    -36.558  0.0000E+00  0.0000E+00  0.7500E-02  0.7500E-02
    -36.379  0.0000E+00  0.0000E+00  0.7500E-02  0.7500E-02
    -36.199  0.0000E+00  0.0000E+00  0.7500E-02  0.7500E-02
    -36.019  0.0000E+00  0.0000E+00  0.7500E-02  0.7500E-02
    -35.840  0.0000E+00  0.0000E+00  0.7500E-02  0.7500E-02
    -35.660  0.0000E+00  0.0000E+00  0.7500E-02  0.7500E-02
    -35.480  0.0000E+00  0.0000E+00  0.7500E-02  0.7500E-02
    -35.301  0.0000E+00  0.0000E+00  0.7500E-02  0.7500E-02
    -35.121  0.0000E+00  0.0000E+00  0.7500E-02  0.7500E-02
    -34.942  0.0000E+00  0.0000E+00  0.7500E-02  0.7500E-02
    -34.762  0.0000E+00  0.0000E+00  0.7500E-02  0.7500E-02
    -34.582  0.0000E+00  0.0000E+00  0.7500E-02  0.7500E-02
    -34.403  0.0000E+00  0.0000E+00  0.7500E-02  0.7500E-02
    -34.223  0.0000E+00  0.0000E+00  0.7500E-02  0.7500E-02
    -34.043  0.0000E+00  0.0000E+00  0.7500E-02  0.7500E-02
    -33.864  0.0000E+00  0.0000E+00  0.7500E-02  0.7500E-02
    -33.684  0.0000E+00  0.0000E+00  0.7500E-02  0.7500E-02
    -33.505  0.0000E+00  0.0000E+00  0.7500E-02  0.7500E-02
    -33.325  0.0000E+00  0.0000E+00  0.7500E-02  0.7500E-02
    -33.145  0.0000E+00  0.0000E+00  0.7500E-02  0.7500E-02
    -32.966  0.0000E+00  0.0000E+00  0.7500E-02  0.7500E-02
    -32.786  0.0000E+00  0.0000E+00  0.7500E-02  0.7500E-02
    -32.607  0.0000E+00  0.0000E+00  0.7500E-02  0.7500E-02
    -32.427  0.0000E+00  0.0000E+00  0.7500E-02  0.7500E-02
    -32.247  0.0000E+00  0.0000E+00  0.7500E-02  0.7500E-02
    -32.068  0.0000E+00  0.0000E+00  0.7500E-02  0.7500E-02
    -31.888  0.0000E+00  0.0000E+00  0.7500E-02  0.7500E-02
    -31.708  0.0000E+00  0.0000E+00  0.7500E-02  0.7500E-02
    -31.529  0.0000E+00  0.0000E+00  0.7500E-02  0.7500E-02
    -31.349  0.0000E+00  0.0000E+00  0.7500E-02  0.7500E-02
    -31.170  0.0000E+00  0.0000E+00  0.7500E-02  0.7500E-02
    -30.990  0.0000E+00  0.0000E+00  0.7500E-02  0.7500E-02
    -30.810  0.0000E+00  0.0000E+00  0.7500E-02  0.7500E-02
    -30.631  0.0000E+00  0.0000E+00  0.7500E-02  0.7500E-02
    -30.451  0.0000E+00  0.0000E+00  0.7500E-02  0.7500E-02
    -30.272  0.0000E+00  0.0000E+00  0.7500E-02  0.7500E-02
    -30.092  0.0000E+00  0.0000E+00  0.7500E-02  0.7500E-02
    -29.912  0.0000E+00  0.0000E+00  0.7500E-02  0.7500E-02
    -29.733  0.0000E+00  0.0000E+00  0.7500E-02  0.7500E-02
    -29.553  0.0000E+00  0.0000E+00  0.7500E-02  0.7500E-02
    -29.373  0.0000E+00  0.0000E+00  0.7500E-02  0.7500E-02
    -29.194  0.0000E+00  0.0000E+00  0.7500E-02  0.7500E-02
    -29.014  0.0000E+00  0.0000E+00  0.7500E-02  0.7500E-02
    -28.835  0.0000E+00  0.0000E+00  0.7500E-02  0.7500E-02
    -28.655  0.0000E+00  0.0000E+00  0.7500E-02  0.7500E-02
    -28.475  0.0000E+00  0.0000E+00  0.7500E-02  0.7500E-02
    -28.296  0.0000E+00  0.0000E+00  0.7500E-02  0.7500E-02
    -28.116  0.0000E+00  0.0000E+00  0.7500E-02  0.7500E-02
    -27.937  0.0000E+00  0.0000E+00  0.7500E-02  0.7500E-02
    -27.757  0.0000E+00  0.0000E+00  0.7500E-02  0.7500E-02
    -27.577  0.0000E+00  0.0000E+00  0.7500E-02  0.7500E-02
    -27.398  0.0000E+00  0.0000E+00  0.7500E-02  0.7500E-02
    -27.218  0.0000E+00  0.0000E+00  0.7500E-02  0.7500E-02
    -27.038  0.0000E+00  0.0000E+00  0.7500E-02  0.7500E-02
    -26.859  0.0000E+00  0.0000E+00  0.7500E-02  0.7500E-02
    -26.679  0.0000E+00  0.0000E+00  0.7500E-02  0.7500E-02
    -26.500  0.0000E+00  0.0000E+00  0.7500E-02  0.7500E-02
    -26.320  0.0000E+00  0.0000E+00  0.7500E-02  0.7500E-02
    -26.140  0.0000E+00  0.0000E+00  0.7500E-02  0.7500E-02
    -25.961  0.0000E+00  0.0000E+00  0.7500E-02  0.7500E-02
    -25.781  0.0000E+00  0.0000E+00  0.7500E-02  0.7500E-02
    -25.601  0.0000E+00  0.0000E+00  0.7500E-02  0.7500E-02
    -25.422  0.0000E+00  0.0000E+00  0.7500E-02  0.7500E-02
    -25.242  0.0000E+00  0.0000E+00  0.7500E-02  0.7500E-02
    -25.063  0.0000E+00  0.0000E+00  0.7500E-02  0.7500E-02
    -24.883  0.0000E+00  0.0000E+00  0.7500E-02  0.7500E-02
    -24.703  0.0000E+00  0.0000E+00  0.7500E-02  0.7500E-02
    -24.524  0.1952E-13  0.6930E-14  0.7500E-02  0.7500E-02
    -24.344  0.6060E-07  0.3071E-07  0.7500E-02  0.7500E-02
    -24.165  0.3934E-03  0.2804E-03  0.7571E-02  0.7550E-02
    -23.985  0.9861E-02  0.9292E-02  0.9342E-02  0.9219E-02
    -23.805  0.3654E-02  0.4329E-02  0.9998E-02  0.9997E-02
    -23.626  0.1048E-04  0.1704E-04  0.1000E-01  0.1000E-01
    -23.446  0.7694E-10  0.1775E-09  0.1000E-01  0.1000E-01
    -23.266  0.0000E+00  0.3091E-17  0.1000E-01  0.1000E-01
    -23.087  0.0000E+00  0.0000E+00  0.1000E-01  0.1000E-01
    -22.907  0.0000E+00  0.0000E+00  0.1000E-01  0.1000E-01
    -22.728  0.0000E+00  0.0000E+00  0.1000E-01  0.1000E-01
    -22.548  0.0000E+00  0.0000E+00  0.1000E-01  0.1000E-01
    -22.368  0.0000E+00  0.0000E+00  0.1000E-01  0.1000E-01
    -22.189  0.0000E+00  0.0000E+00  0.1000E-01  0.1000E-01
    -22.009  0.1021E-13  0.7332E-14  0.1000E-01  0.1000E-01
    -21.830  0.3175E-07  0.2556E-07  0.1000E-01  0.1000E-01
    -21.650  0.2239E-03  0.2005E-03  0.1004E-01  0.1004E-01
    -21.470  0.8163E-02  0.7926E-02  0.1151E-01  0.1146E-01
    -21.291  0.1282E-01  0.1286E-01  0.1381E-01  0.1377E-01
    -21.111  0.1199E-01  0.1184E-01  0.1596E-01  0.1590E-01
    -20.931  0.1636E-01  0.1631E-01  0.1890E-01  0.1883E-01
    -20.752  0.7666E-02  0.7866E-02  0.2028E-01  0.2024E-01
    -20.572  0.1258E-01  0.1206E-01  0.2254E-01  0.2241E-01
    -20.393  0.2141E-01  0.2159E-01  0.2638E-01  0.2628E-01
    -20.213  0.1001E-01  0.1008E-01  0.2818E-01  0.2809E-01
    -20.033  0.9254E-02  0.9370E-02  0.2984E-01  0.2978E-01
    -19.854  0.1414E-01  0.1368E-01  0.3239E-01  0.3223E-01
    -19.674  0.2007E-01  0.2033E-01  0.3599E-01  0.3589E-01
    -19.495  0.1156E-01  0.1169E-01  0.3807E-01  0.3799E-01
    -19.315  0.1177E-01  0.1154E-01  0.4018E-01  0.4006E-01
    -19.135  0.1327E-01  0.1312E-01  0.4256E-01  0.4241E-01
    -18.956  0.1544E-01  0.1557E-01  0.4534E-01  0.4521E-01
    -18.776  0.1213E-01  0.1213E-01  0.4752E-01  0.4739E-01
    -18.596  0.1448E-01  0.1470E-01  0.5012E-01  0.5003E-01
    -18.417  0.1419E-01  0.1429E-01  0.5267E-01  0.5260E-01
    -18.237  0.1699E-01  0.1599E-01  0.5572E-01  0.5547E-01
    -18.058  0.1617E-01  0.1692E-01  0.5862E-01  0.5851E-01
    -17.878  0.1181E-01  0.1188E-01  0.6074E-01  0.6064E-01
    -17.698  0.7043E-02  0.7234E-02  0.6201E-01  0.6194E-01
    -17.519  0.1869E-01  0.1793E-01  0.6537E-01  0.6516E-01
    -17.339  0.1701E-01  0.1742E-01  0.6842E-01  0.6829E-01
    -17.159  0.1880E-01  0.1869E-01  0.7180E-01  0.7165E-01
    -16.980  0.1418E-01  0.1425E-01  0.7434E-01  0.7421E-01
    -16.800  0.1899E-01  0.1864E-01  0.7775E-01  0.7756E-01
    -16.621  0.1340E-01  0.1406E-01  0.8016E-01  0.8008E-01
    -16.441  0.9463E-02  0.8763E-02  0.8186E-01  0.8166E-01
    -16.261  0.1612E-01  0.1672E-01  0.8476E-01  0.8466E-01
    -16.082  0.1402E-01  0.1327E-01  0.8727E-01  0.8704E-01
    -15.902  0.1614E-01  0.1668E-01  0.9017E-01  0.9004E-01
    -15.723  0.1133E-01  0.1125E-01  0.9221E-01  0.9206E-01
    -15.543  0.8666E-02  0.8588E-02  0.9377E-01  0.9360E-01
    -15.363  0.9348E-02  0.9778E-02  0.9544E-01  0.9536E-01
    -15.184  0.1068E-01  0.1036E-01  0.9736E-01  0.9722E-01
    -15.004  0.1570E-01  0.1587E-01  0.1002E+00  0.1001E+00
    -14.824  0.1679E-01  0.1627E-01  0.1032E+00  0.1030E+00
    -14.645  0.1709E-01  0.1752E-01  0.1063E+00  0.1061E+00
    -14.465  0.1574E-01  0.1589E-01  0.1091E+00  0.1090E+00
    -14.286  0.1326E-01  0.1322E-01  0.1115E+00  0.1114E+00
    -14.106  0.1409E-01  0.1404E-01  0.1140E+00  0.1139E+00
    -13.926  0.1700E-01  0.1641E-01  0.1171E+00  0.1168E+00
    -13.747  0.1931E-01  0.1993E-01  0.1205E+00  0.1204E+00
    -13.567  0.1206E-01  0.1182E-01  0.1227E+00  0.1225E+00
    -13.388  0.1660E-01  0.1640E-01  0.1257E+00  0.1255E+00
    -13.208  0.1265E-01  0.1279E-01  0.1280E+00  0.1278E+00
    -13.028  0.9031E-02  0.9276E-02  0.1296E+00  0.1294E+00
    -12.849  0.1418E-01  0.1435E-01  0.1321E+00  0.1320E+00
    -12.669  0.2181E-01  0.2112E-01  0.1360E+00  0.1358E+00
    -12.489  0.1251E-01  0.1315E-01  0.1383E+00  0.1382E+00
    -12.310  0.1073E-01  0.1084E-01  0.1402E+00  0.1401E+00
    -12.130  0.1012E-01  0.9998E-02  0.1420E+00  0.1419E+00
    -11.951  0.1539E-01  0.1525E-01  0.1448E+00  0.1447E+00
    -11.771  0.2493E-01  0.2472E-01  0.1493E+00  0.1491E+00
    -11.591  0.2283E-01  0.2260E-01  0.1534E+00  0.1532E+00
    -11.412  0.1799E-01  0.1874E-01  0.1566E+00  0.1565E+00
    -11.232  0.8900E-02  0.8720E-02  0.1582E+00  0.1581E+00
    -11.053  0.1761E-01  0.1753E-01  0.1614E+00  0.1612E+00
    -10.873  0.1357E-01  0.1386E-01  0.1638E+00  0.1637E+00
    -10.693  0.1380E-01  0.1337E-01  0.1663E+00  0.1661E+00
    -10.514  0.2010E-01  0.1994E-01  0.1699E+00  0.1697E+00
    -10.334  0.2969E-01  0.2903E-01  0.1752E+00  0.1749E+00
    -10.154  0.2486E-01  0.2582E-01  0.1797E+00  0.1796E+00
     -9.975  0.2507E-01  0.2485E-01  0.1842E+00  0.1840E+00
     -9.795  0.2023E-01  0.2057E-01  0.1878E+00  0.1877E+00
     -9.616  0.2158E-01  0.2139E-01  0.1917E+00  0.1916E+00
     -9.436  0.3102E-01  0.3092E-01  0.1973E+00  0.1971E+00
     -9.256  0.3103E-01  0.3089E-01  0.2029E+00  0.2027E+00
     -9.077  0.2826E-01  0.2838E-01  0.2079E+00  0.2078E+00
     -8.897  0.3778E-01  0.3779E-01  0.2147E+00  0.2146E+00
     -8.717  0.3534E-01  0.3519E-01  0.2211E+00  0.2209E+00
     -8.538  0.4620E-01  0.4540E-01  0.2294E+00  0.2290E+00
     -8.358  0.5394E-01  0.5440E-01  0.2390E+00  0.2388E+00
     -8.179  0.3035E-01  0.3095E-01  0.2445E+00  0.2444E+00
     -7.999  0.2987E-01  0.2910E-01  0.2499E+00  0.2496E+00
     -7.819  0.2851E-01  0.2935E-01  0.2550E+00  0.2549E+00
     -7.640  0.2549E-01  0.2549E-01  0.2596E+00  0.2594E+00
     -7.460  0.3569E-01  0.3477E-01  0.2660E+00  0.2657E+00
     -7.281  0.3614E-01  0.3673E-01  0.2725E+00  0.2723E+00
     -7.101  0.3211E-01  0.3306E-01  0.2782E+00  0.2782E+00
     -6.921  0.3233E-01  0.3174E-01  0.2840E+00  0.2839E+00
     -6.742  0.2221E-01  0.2217E-01  0.2880E+00  0.2879E+00
     -6.562  0.2004E-01  0.2030E-01  0.2916E+00  0.2915E+00
     -6.382  0.1821E-01  0.1922E-01  0.2949E+00  0.2950E+00
     -6.203  0.3118E-01  0.3170E-01  0.3005E+00  0.3007E+00
     -6.023  0.3452E-01  0.3293E-01  0.3067E+00  0.3066E+00
     -5.844  0.2936E-01  0.2955E-01  0.3120E+00  0.3119E+00
     -5.664  0.2078E-01  0.2323E-01  0.3157E+00  0.3161E+00
     -5.484  0.1750E-01  0.1550E-01  0.3189E+00  0.3189E+00
     -5.305  0.1626E-01  0.1766E-01  0.3218E+00  0.3220E+00
     -5.125  0.1842E-01  0.1933E-01  0.3251E+00  0.3255E+00
     -4.946  0.2287E-01  0.3125E-01  0.3292E+00  0.3311E+00
     -4.766  0.3680E-01  0.3067E-01  0.3358E+00  0.3366E+00
     -4.586  0.3290E-01  0.3244E-01  0.3417E+00  0.3425E+00
     -4.407  0.1616E-01  0.1210E-01  0.3446E+00  0.3446E+00
     -4.227  0.4244E-02  0.5644E-02  0.3454E+00  0.3456E+00
     -4.047  0.9602E-02  0.1468E-01  0.3471E+00  0.3483E+00
     -3.868  0.1722E-01  0.2679E-01  0.3502E+00  0.3531E+00
     -3.688  0.1435E-01  0.1214E-01  0.3528E+00  0.3553E+00
     -3.509  0.1975E-01  0.9403E-02  0.3563E+00  0.3570E+00
     -3.329  0.1428E-01  0.1715E-01  0.3589E+00  0.3601E+00
     -3.149  0.8943E-02  0.1692E-01  0.3605E+00  0.3631E+00
     -2.970  0.5271E-02  0.4255E-02  0.3614E+00  0.3639E+00
     -2.790  0.2365E-02  0.1045E-01  0.3619E+00  0.3657E+00
     -2.611  0.6875E-04  0.4720E-02  0.3619E+00  0.3666E+00
     -2.431  0.3012E-03  0.1801E-02  0.3619E+00  0.3669E+00
     -2.251  0.4068E-02  0.2871E-02  0.3627E+00  0.3674E+00
     -2.072  0.9229E-02  0.5256E-02  0.3643E+00  0.3684E+00
     -1.892  0.6451E-02  0.3332E-02  0.3655E+00  0.3690E+00
     -1.712  0.8303E-03  0.8965E-02  0.3656E+00  0.3706E+00
     -1.533  0.1057E-02  0.1349E-01  0.3658E+00  0.3730E+00
     -1.353  0.5633E-02  0.1361E-01  0.3668E+00  0.3754E+00
     -1.174  0.6736E-02  0.7309E-02  0.3680E+00  0.3768E+00
     -0.994  0.7883E-02  0.8153E-02  0.3695E+00  0.3782E+00
     -0.814  0.2926E-01  0.1560E-01  0.3747E+00  0.3810E+00
     -0.635  0.2826E-01  0.2036E-01  0.3798E+00  0.3847E+00
     -0.455  0.2560E-01  0.1263E-01  0.3844E+00  0.3869E+00
     -0.276  0.2321E-01  0.1910E-01  0.3886E+00  0.3904E+00
     -0.096  0.1723E-01  0.1283E-01  0.3916E+00  0.3927E+00
      0.084  0.1047E-01  0.1022E-01  0.3935E+00  0.3945E+00
      0.263  0.1914E-01  0.2144E-01  0.3970E+00  0.3984E+00
      0.443  0.2491E-01  0.1758E-01  0.4014E+00  0.4015E+00
      0.623  0.1717E-01  0.1590E-01  0.4045E+00  0.4044E+00
      0.802  0.7444E-02  0.1386E-01  0.4059E+00  0.4069E+00
      0.982  0.1372E-01  0.1546E-01  0.4083E+00  0.4096E+00
      1.161  0.1804E-01  0.1294E-01  0.4116E+00  0.4120E+00
      1.341  0.1415E-01  0.1752E-01  0.4141E+00  0.4151E+00
      1.521  0.1857E-01  0.1627E-01  0.4174E+00  0.4180E+00
      1.700  0.2413E-01  0.2600E-01  0.4218E+00  0.4227E+00
      1.880  0.2717E-01  0.2723E-01  0.4267E+00  0.4276E+00
      2.060  0.3119E-01  0.3294E-01  0.4323E+00  0.4335E+00
      2.239  0.2729E-01  0.2896E-01  0.4372E+00  0.4387E+00
      2.419  0.2029E-01  0.2145E-01  0.4408E+00  0.4426E+00
      2.598  0.4223E-01  0.3899E-01  0.4484E+00  0.4496E+00
      2.778  0.5135E-01  0.4635E-01  0.4576E+00  0.4579E+00
      2.958  0.1297E-01  0.1152E-01  0.4599E+00  0.4600E+00
      3.137  0.3054E-03  0.1487E-03  0.4600E+00  0.4600E+00
      3.317  0.6571E-07  0.1358E-07  0.4600E+00  0.4600E+00
      3.496  0.3897E-13  0.3340E-14  0.4600E+00  0.4600E+00
      3.676  0.0000E+00  0.0000E+00  0.4600E+00  0.4600E+00
      3.856  0.0000E+00  0.0000E+00  0.4600E+00  0.4600E+00
      4.035  0.0000E+00  0.0000E+00  0.4600E+00  0.4600E+00
      4.215  0.0000E+00  0.0000E+00  0.4600E+00  0.4600E+00
      4.395  0.0000E+00  0.0000E+00  0.4600E+00  0.4600E+00
      4.574  0.0000E+00  0.0000E+00  0.4600E+00  0.4600E+00
      4.754  0.0000E+00  0.0000E+00  0.4600E+00  0.4600E+00
      4.933  0.0000E+00  0.0000E+00  0.4600E+00  0.4600E+00
      5.113  0.0000E+00  0.0000E+00  0.4600E+00  0.4600E+00
      5.293  0.0000E+00  0.0000E+00  0.4600E+00  0.4600E+00
