       N       E                     dE             d eps       ncg     rms          rms(c)
DAV:   1     0.273562290873E+04    0.27356E+04   -0.11740E+05  3256   0.127E+03
DAV:   2    -0.173313713887E+03   -0.29089E+04   -0.27803E+04  4304   0.295E+02
DAV:   3    -0.684452983195E+03   -0.51114E+03   -0.50828E+03  3560   0.129E+02
DAV:   4    -0.703819875700E+03   -0.19367E+02   -0.19220E+02  3528   0.311E+01
DAV:   5    -0.704445097357E+03   -0.62522E+00   -0.62322E+00  4056   0.480E+00    0.466E+01
RMM:   6    -0.731800333377E+03   -0.27355E+02   -0.53234E+02  4102   0.397E+01    0.835E+01
RMM:   7    -0.662293727273E+03    0.69507E+02   -0.57105E+01  3052   0.140E+01    0.319E+01
RMM:   8    -0.662327880385E+03   -0.34153E-01   -0.21809E+01  3123   0.713E+00    0.283E+01
RMM:   9    -0.647163595608E+03    0.15164E+02   -0.20023E+01  2968   0.841E+00    0.115E+01
RMM:  10    -0.647630927819E+03   -0.46733E+00   -0.30486E+00  2997   0.312E+00    0.144E+01
RMM:  11    -0.646574041294E+03    0.10569E+01   -0.40852E-01  3115   0.104E+00    0.762E+00
RMM:  12    -0.646459706826E+03    0.11433E+00   -0.16764E-01  2944   0.949E-01    0.680E+00
RMM:  13    -0.646539274799E+03   -0.79568E-01   -0.24970E-02  3001   0.331E-01    0.726E+00
RMM:  14    -0.646361784255E+03    0.17749E+00   -0.25216E-02  2967   0.354E-01    0.709E+00
RMM:  15    -0.646395442365E+03   -0.33658E-01   -0.28408E-03  3134   0.944E-02    0.710E+00
RMM:  16    -0.646369206340E+03    0.26236E-01   -0.29252E-03  3028   0.772E-02    0.623E+00
RMM:  17    -0.646385876120E+03   -0.16670E-01   -0.86788E-02  2945   0.480E-01    0.519E+00
RMM:  18    -0.646192199213E+03    0.19368E+00   -0.32433E-01  2956   0.801E-01    0.548E+00
RMM:  19    -0.646444162138E+03   -0.25196E+00   -0.67248E-02  3014   0.482E-01    0.691E+00
RMM:  20    -0.646500147118E+03   -0.55985E-01   -0.34719E-02  3070   0.316E-01    0.616E+00
RMM:  21    -0.646642295204E+03   -0.14215E+00   -0.65791E-02  2954   0.354E-01    0.559E+00
RMM:  22    -0.646635992390E+03    0.63028E-02   -0.17910E-01  2965   0.580E-01    0.528E+00
RMM:  23    -0.646534146883E+03    0.10185E+00   -0.70065E-02  3029   0.285E-01    0.542E+00
RMM:  24    -0.646516084194E+03    0.18063E-01   -0.10914E-02  3214   0.121E-01    0.526E+00
RMM:  25    -0.646498306585E+03    0.17778E-01   -0.27124E-03  3170   0.660E-02    0.525E+00
RMM:  26    -0.646305049293E+03    0.19326E+00   -0.72881E-02  3003   0.404E-01    0.312E+00
RMM:  27    -0.646374020099E+03   -0.68971E-01   -0.17434E-02  3034   0.272E-01    0.193E+00
RMM:  28    -0.646416382013E+03   -0.42362E-01   -0.25795E-02  2975   0.315E-01    0.260E+00
RMM:  29    -0.646426625375E+03   -0.10243E-01   -0.32911E-03  3072   0.102E-01    0.302E+00
RMM:  30    -0.646429333110E+03   -0.27077E-02   -0.10855E-03  2954   0.679E-02    0.326E+00
RMM:  31    -0.646460241896E+03   -0.30909E-01   -0.83914E-03  2973   0.140E-01    0.375E+00
RMM:  32    -0.646464719453E+03   -0.44776E-02   -0.31261E-02  2974   0.259E-01    0.330E+00
RMM:  33    -0.646545090523E+03   -0.80371E-01   -0.33863E-02  3066   0.239E-01    0.385E+00
RMM:  34    -0.646562305616E+03   -0.17215E-01   -0.86232E-03  3289   0.984E-02    0.425E+00
RMM:  35    -0.646536317711E+03    0.25988E-01   -0.23121E-03  2981   0.764E-02    0.400E+00
RMM:  36    -0.646526200880E+03    0.10117E-01   -0.18191E-03  2972   0.614E-02    0.381E+00
RMM:  37    -0.646571073138E+03   -0.44872E-01   -0.38387E-03  2977   0.995E-02    0.433E+00
RMM:  38    -0.646669339752E+03   -0.98267E-01   -0.26693E-02  2976   0.237E-01    0.517E+00
RMM:  39    -0.646643461592E+03    0.25878E-01   -0.55997E-03  3064   0.122E-01    0.528E+00
RMM:  40    -0.646618558912E+03    0.24903E-01   -0.13624E-03  2904   0.470E-02    0.524E+00
RMM:  41    -0.646616211577E+03    0.23473E-02   -0.58009E-04  2776   0.351E-02    0.515E+00
RMM:  42    -0.646618961328E+03   -0.27498E-02   -0.88433E-05  2003   0.120E-02    0.514E+00
RMM:  43    -0.646583221008E+03    0.35740E-01   -0.39163E-03  2976   0.878E-02    0.486E+00
RMM:  44    -0.646553522819E+03    0.29698E-01   -0.89736E-03  3010   0.125E-01    0.432E+00
RMM:  45    -0.646576475676E+03   -0.22953E-01   -0.25554E-03  3024   0.947E-02    0.415E+00
RMM:  46    -0.646593499579E+03   -0.17024E-01   -0.82140E-04  2852   0.536E-02    0.422E+00
RMM:  47    -0.646548359683E+03    0.45140E-01   -0.36645E-03  2990   0.875E-02    0.385E+00
RMM:  48    -0.646546875200E+03    0.14845E-02   -0.17670E-02  2966   0.197E-01    0.437E+00
RMM:  49    -0.646611860852E+03   -0.64986E-01   -0.23012E-02  2989   0.197E-01    0.539E+00
RMM:  50    -0.646607023999E+03    0.48369E-02   -0.46270E-03  3002   0.121E-01
   1 F= -.65300237E+03 E0= -.65298977E+03  d E =-.653002E+03  mag=    -0.4759
       N       E                     dE             d eps       ncg     rms          rms(c)
DAV:   1    -0.646596406360E+03    0.15454E-01   -0.16794E+01  3224   0.124E+01    0.616E+00
RMM:   2    -0.648514495131E+03   -0.19181E+01   -0.25017E+00  3020   0.305E+00    0.165E+01
RMM:   3    -0.646862593433E+03    0.16519E+01   -0.20091E+00  3147   0.214E+00    0.396E+00
RMM:   4    -0.646673757727E+03    0.18884E+00   -0.12087E-01  3250   0.639E-01    0.235E+00
RMM:   5    -0.646638103281E+03    0.35654E-01   -0.59458E-02  3165   0.260E-01    0.182E+00
RMM:   6    -0.646695082088E+03   -0.56979E-01   -0.36304E-02  3092   0.243E-01    0.136E+00
RMM:   7    -0.646747096758E+03   -0.52015E-01   -0.37730E-02  3105   0.236E-01    0.605E-01
RMM:   8    -0.646804293700E+03   -0.57197E-01   -0.18681E-02  3095   0.154E-01    0.303E-01
RMM:   9    -0.646864228688E+03   -0.59935E-01   -0.12016E-02  3018   0.111E-01    0.222E-01
RMM:  10    -0.646916637446E+03   -0.52409E-01   -0.12771E-02  2969   0.101E-01    0.144E-01
RMM:  11    -0.646932071160E+03   -0.15434E-01   -0.44040E-03  2914   0.522E-02    0.783E-02
RMM:  12    -0.646939872537E+03   -0.78014E-02   -0.97542E-04  2399   0.269E-02    0.717E-02
RMM:  13    -0.646943826009E+03   -0.39535E-02   -0.58826E-04  2303   0.241E-02    0.427E-02
RMM:  14    -0.646945510871E+03   -0.16849E-02   -0.12613E-04  2213   0.133E-02    0.290E-02
RMM:  15    -0.646945984749E+03   -0.47388E-03   -0.46598E-05  2090   0.774E-03    0.148E-02
RMM:  16    -0.646946026217E+03   -0.41468E-04   -0.25461E-05  1821   0.567E-03    0.518E-03
RMM:  17    -0.646946568209E+03   -0.54199E-03   -0.26573E-05  1620   0.545E-03    0.371E-03
RMM:  18    -0.646946652330E+03   -0.84121E-04   -0.99570E-06  1272   0.340E-03    0.218E-03
RMM:  19    -0.646946712399E+03   -0.60069E-04   -0.78253E-06  1240   0.294E-03    0.269E-03
RMM:  20    -0.646946762822E+03   -0.50422E-04   -0.77495E-06  1191   0.273E-03    0.198E-03
RMM:  21    -0.646946789505E+03   -0.26683E-04   -0.20383E-06   957   0.190E-03    0.768E-04
RMM:  22    -0.646946802767E+03   -0.13262E-04   -0.11121E-06   870   0.169E-03    0.686E-04
RMM:  23    -0.646946809064E+03   -0.62971E-05   -0.63518E-07   769   0.155E-03
   2 F= -.65333664E+03 E0= -.65332079E+03  d E =-.334268E+00  mag=    -1.4523
       N       E                     dE             d eps       ncg     rms          rms(c)
DAV:   1    -0.646972706081E+03   -0.25903E-01   -0.20749E-01  3424   0.136E+00    0.204E-01
RMM:   2    -0.646974970531E+03   -0.22644E-02   -0.15198E-02  3002   0.257E-01    0.488E-01
RMM:   3    -0.646972607131E+03    0.23634E-02   -0.26755E-03  3250   0.906E-02    0.815E-02
RMM:   4    -0.646972327974E+03    0.27916E-03   -0.36007E-04  3079   0.329E-02    0.471E-02
RMM:   5    -0.646972215778E+03    0.11220E-03   -0.10156E-04  2791   0.193E-02    0.209E-02
RMM:   6    -0.646972404328E+03   -0.18855E-03   -0.16630E-05  1849   0.897E-03    0.867E-03
RMM:   7    -0.646972623937E+03   -0.21961E-03   -0.83454E-06  1788   0.517E-03    0.451E-03
RMM:   8    -0.646972761516E+03   -0.13758E-03   -0.49668E-06  1514   0.337E-03    0.278E-03
RMM:   9    -0.646972876414E+03   -0.11490E-03   -0.49517E-06  1325   0.275E-03    0.165E-03
RMM:  10    -0.646972906962E+03   -0.30548E-04   -0.17205E-06  1131   0.206E-03    0.762E-04
RMM:  11    -0.646972915093E+03   -0.81311E-05   -0.73570E-07   871   0.168E-03
   3 F= -.65336348E+03 E0= -.65334722E+03  d E =-.361111E+00  mag=    -1.4897
       N       E                     dE             d eps       ncg     rms          rms(c)
DAV:   1    -0.647031054160E+03   -0.58147E-01   -0.32408E+00  3216   0.537E+00    0.818E-01
RMM:   2    -0.647070357190E+03   -0.39303E-01   -0.25093E-01  2999   0.103E+00    0.201E+00
RMM:   3    -0.647031401254E+03    0.38956E-01   -0.41509E-02  3222   0.358E-01    0.327E-01
RMM:   4    -0.647028076126E+03    0.33251E-02   -0.50013E-03  3194   0.128E-01    0.188E-01
RMM:   5    -0.647027048413E+03    0.10277E-02   -0.15000E-03  2974   0.739E-02    0.842E-02
RMM:   6    -0.647028884315E+03   -0.18359E-02   -0.28427E-04  2989   0.331E-02    0.338E-02
RMM:   7    -0.647030966029E+03   -0.20817E-02   -0.12075E-04  2221   0.147E-02    0.198E-02
RMM:   8    -0.647032353921E+03   -0.13879E-02   -0.73659E-05  2103   0.104E-02    0.109E-02
RMM:   9    -0.647033119419E+03   -0.76550E-03   -0.44580E-05  2008   0.687E-03    0.699E-03
RMM:  10    -0.647033370007E+03   -0.25059E-03   -0.15634E-05  1575   0.438E-03    0.309E-03
RMM:  11    -0.647033417267E+03   -0.47260E-04   -0.57148E-06  1451   0.314E-03    0.127E-03
RMM:  12    -0.647033434213E+03   -0.16946E-04   -0.17684E-06  1164   0.217E-03    0.630E-04
RMM:  13    -0.647033444374E+03   -0.10161E-04   -0.87443E-07   988   0.176E-03    0.492E-04
RMM:  14    -0.647033455375E+03   -0.11001E-04   -0.43993E-07   725   0.155E-03    0.388E-04
RMM:  15    -0.647033467901E+03   -0.12526E-04   -0.82564E-07   846   0.164E-03    0.254E-04
RMM:  16    -0.647033472670E+03   -0.47690E-05   -0.24937E-07   644   0.146E-03
   4 F= -.65342665E+03 E0= -.65341018E+03  d E =-.424278E+00  mag=    -1.6476
       N       E                     dE             d eps       ncg     rms          rms(c)
DAV:   1    -0.647038097317E+03   -0.46294E-02   -0.34444E-01  3280   0.176E+00    0.262E-01
RMM:   2    -0.647041787256E+03   -0.36899E-02   -0.25476E-02  3003   0.332E-01    0.628E-01
RMM:   3    -0.647037956146E+03    0.38311E-02   -0.40594E-03  3234   0.113E-01    0.109E-01
RMM:   4    -0.647037490391E+03    0.46576E-03   -0.55603E-04  3077   0.422E-02    0.613E-02
RMM:   5    -0.647037327637E+03    0.16275E-03   -0.16511E-04  2934   0.247E-02    0.270E-02
RMM:   6    -0.647037625222E+03   -0.29759E-03   -0.26498E-05  1903   0.111E-02    0.107E-02
RMM:   7    -0.647037963154E+03   -0.33793E-03   -0.13431E-05  1844   0.621E-03    0.575E-03
RMM:   8    -0.647038170358E+03   -0.20720E-03   -0.76034E-06  1768   0.407E-03    0.364E-03
RMM:   9    -0.647038325781E+03   -0.15542E-03   -0.65786E-06  1317   0.309E-03    0.202E-03
RMM:  10    -0.647038365484E+03   -0.39704E-04   -0.23870E-06  1112   0.226E-03    0.120E-03
RMM:  11    -0.647038378139E+03   -0.12655E-04   -0.97868E-07  1002   0.189E-03    0.524E-04
RMM:  12    -0.647038380689E+03   -0.25493E-05   -0.31504E-07   723   0.160E-03
   5 F= -.65343230E+03 E0= -.65341624E+03  d E =-.429931E+00  mag=    -1.6973
       N       E                     dE             d eps       ncg     rms          rms(c)
DAV:   1    -0.647038327992E+03    0.50148E-04   -0.42389E+00  3248   0.647E+00    0.101E+00
RMM:   2    -0.647070594396E+03   -0.32266E-01   -0.23722E-01  3054   0.105E+00    0.164E+00
RMM:   3    -0.647044343926E+03    0.26250E-01   -0.48187E-02  3128   0.390E-01    0.579E-01
RMM:   4    -0.647039757830E+03    0.45861E-02   -0.56216E-03  3116   0.153E-01    0.235E-01
RMM:   5    -0.647038967993E+03    0.78984E-03   -0.17129E-03  2950   0.912E-02    0.792E-02
RMM:   6    -0.647040154022E+03   -0.11860E-02   -0.21373E-04  3000   0.309E-02    0.349E-02
RMM:   7    -0.647041208886E+03   -0.10549E-02   -0.75042E-05  2224   0.143E-02    0.221E-02
RMM:   8    -0.647041827720E+03   -0.61883E-03   -0.23634E-05  1940   0.867E-03    0.121E-02
RMM:   9    -0.647042273671E+03   -0.44595E-03   -0.19613E-05  1930   0.694E-03    0.432E-03
RMM:  10    -0.647042355731E+03   -0.82060E-04   -0.44525E-06  1663   0.384E-03    0.265E-03
RMM:  11    -0.647042423293E+03   -0.67563E-04   -0.29382E-06  1371   0.286E-03    0.151E-03
RMM:  12    -0.647042451915E+03   -0.28622E-04   -0.26249E-06  1328   0.252E-03    0.933E-04
RMM:  13    -0.647042460882E+03   -0.89664E-05   -0.93676E-07  1051   0.188E-03
   6 F= -.65344346E+03 E0= -.65342695E+03  d E =-.111535E-01  mag=    -1.5959
       N       E                     dE             d eps       ncg     rms          rms(c)
DAV:   1    -0.647051894624E+03   -0.94427E-02   -0.63396E-01  3368   0.250E+00    0.385E-01
RMM:   2    -0.647056541114E+03   -0.46465E-02   -0.35236E-02  3043   0.403E-01    0.615E-01
RMM:   3    -0.647052545027E+03    0.39961E-02   -0.70332E-03  3127   0.151E-01    0.209E-01
RMM:   4    -0.647051818562E+03    0.72646E-03   -0.81968E-04  3114   0.573E-02    0.938E-02
RMM:   5    -0.647051589822E+03    0.22874E-03   -0.27013E-04  2947   0.363E-02    0.295E-02
RMM:   6    -0.647051815741E+03   -0.22592E-03   -0.26667E-05  1883   0.119E-02    0.132E-02
RMM:   7    -0.647052070908E+03   -0.25517E-03   -0.13253E-05  1803   0.718E-03    0.754E-03
RMM:   8    -0.647052231163E+03   -0.16025E-03   -0.58749E-06  1776   0.459E-03    0.463E-03
RMM:   9    -0.647052397824E+03   -0.16666E-03   -0.77812E-06  1687   0.361E-03    0.166E-03
RMM:  10    -0.647052440282E+03   -0.42458E-04   -0.23645E-06  1230   0.222E-03    0.958E-04
RMM:  11    -0.647052466014E+03   -0.25732E-04   -0.13197E-06  1023   0.184E-03    0.644E-04
RMM:  12    -0.647052475920E+03   -0.99064E-05   -0.85973E-07   879   0.171E-03
   7 F= -.65345089E+03 E0= -.65343446E+03  d E =-.185861E-01  mag=    -1.6373
       N       E                     dE             d eps       ncg     rms          rms(c)
DAV:   1    -0.647052937299E+03   -0.47129E-03   -0.16038E+00  3296   0.392E+00    0.591E-01
RMM:   2    -0.647067891357E+03   -0.14954E-01   -0.99089E-02  3008   0.669E-01    0.117E+00
RMM:   3    -0.647054485885E+03    0.13405E-01   -0.19000E-02  3230   0.240E-01    0.256E-01
RMM:   4    -0.647053682404E+03    0.80348E-03   -0.18511E-03  3216   0.849E-02    0.135E-01
RMM:   5    -0.647053454381E+03    0.22802E-03   -0.69702E-04  2944   0.559E-02    0.452E-02
RMM:   6    -0.647053554414E+03   -0.10003E-03   -0.65773E-05  2253   0.176E-02    0.208E-02
RMM:   7    -0.647053647607E+03   -0.93193E-04   -0.23888E-05  1834   0.970E-03    0.135E-02
RMM:   8    -0.647053694170E+03   -0.46563E-04   -0.61341E-06  1779   0.599E-03    0.802E-03
RMM:   9    -0.647053737681E+03   -0.43511E-04   -0.39001E-06  1774   0.419E-03    0.233E-03
RMM:  10    -0.647053743780E+03   -0.60992E-05   -0.89813E-07  1258   0.235E-03
   8 F= -.65345546E+03 E0= -.65343916E+03  d E =-.457361E-02  mag=    -1.6589
       N       E                     dE             d eps       ncg     rms          rms(c)
DAV:   1    -0.647058826749E+03   -0.50891E-02   -0.26125E-01  3400   0.158E+00    0.238E-01
RMM:   2    -0.647061199083E+03   -0.23723E-02   -0.15986E-02  2997   0.269E-01    0.465E-01
RMM:   3    -0.647059024185E+03    0.21749E-02   -0.30338E-03  3237   0.968E-02    0.995E-02
RMM:   4    -0.647058891701E+03    0.13248E-03   -0.30986E-04  3118   0.344E-02    0.555E-02
RMM:   5    -0.647058842929E+03    0.48772E-04   -0.11984E-04  2920   0.233E-02    0.178E-02
RMM:   6    -0.647058886408E+03   -0.43479E-04   -0.10249E-05  1812   0.748E-03    0.795E-03
RMM:   7    -0.647058921564E+03   -0.35156E-04   -0.46185E-06  1766   0.467E-03    0.412E-03
RMM:   8    -0.647058934340E+03   -0.12776E-04   -0.13458E-06  1668   0.283E-03    0.286E-03
RMM:   9    -0.647058945403E+03   -0.11063E-04   -0.56877E-07  1001   0.188E-03    0.118E-03
RMM:  10    -0.647058949012E+03   -0.36089E-05   -0.30581E-07   784   0.163E-03
   9 F= -.65345939E+03 E0= -.65344303E+03  d E =-.849849E-02  mag=    -1.6505
       N       E                     dE             d eps       ncg     rms          rms(c)
DAV:   1    -0.647060798875E+03   -0.18535E-02   -0.24978E-01  3408   0.162E+00    0.155E-01
RMM:   2    -0.647061856460E+03   -0.10576E-02   -0.11581E-02  3020   0.228E-01    0.182E-01
RMM:   3    -0.647061565554E+03    0.29091E-03   -0.12240E-03  3245   0.684E-02    0.106E-01
RMM:   4    -0.647061451147E+03    0.11441E-03   -0.16843E-04  2962   0.268E-02    0.451E-02
RMM:   5    -0.647061424530E+03    0.26617E-04   -0.70096E-05  2626   0.174E-02    0.188E-02
RMM:   6    -0.647061449127E+03   -0.24598E-04   -0.96211E-06  1787   0.825E-03    0.581E-03
RMM:   7    -0.647061469415E+03   -0.20288E-04   -0.29623E-06  1759   0.434E-03    0.293E-03
RMM:   8    -0.647061479913E+03   -0.10497E-04   -0.94146E-07  1244   0.253E-03    0.172E-03
RMM:   9    -0.647061486715E+03   -0.68021E-05   -0.59546E-07   986   0.196E-03
  10 F= -.65346178E+03 E0= -.65344533E+03  d E =-.238818E-02  mag=    -1.6550
       N       E                     dE             d eps       ncg     rms          rms(c)
DAV:   1    -0.647061578704E+03   -0.98791E-04   -0.12570E-02  3456   0.363E-01    0.349E-02
RMM:   2    -0.647061626083E+03   -0.47379E-04   -0.58921E-04  3021   0.512E-02    0.415E-02
RMM:   3    -0.647061612996E+03    0.13087E-04   -0.58036E-05  1960   0.154E-02    0.240E-02
RMM:   4    -0.647061607356E+03    0.56396E-05   -0.95719E-06  1774   0.821E-03
  11 F= -.65346186E+03 E0= -.65344540E+03  d E =-.247178E-02  mag=    -1.6559
       N       E                     dE             d eps       ncg     rms          rms(c)
DAV:   1    -0.647062514571E+03   -0.90158E-03   -0.16478E-01  3352   0.129E+00    0.125E-01
RMM:   2    -0.647063278633E+03   -0.76406E-03   -0.73835E-03  3003   0.184E-01    0.189E-01
RMM:   3    -0.647062921272E+03    0.35736E-03   -0.84340E-04  3269   0.549E-02    0.664E-02
RMM:   4    -0.647062851946E+03    0.69326E-04   -0.92024E-05  2646   0.195E-02    0.351E-02
RMM:   5    -0.647062820777E+03    0.31168E-04   -0.38946E-05  2059   0.137E-02    0.139E-02
RMM:   6    -0.647062850659E+03   -0.29882E-04   -0.64958E-06  1777   0.710E-03    0.483E-03
RMM:   7    -0.647062880143E+03   -0.29484E-04   -0.19153E-06  1729   0.376E-03    0.243E-03
RMM:   8    -0.647062903145E+03   -0.23002E-04   -0.67908E-07  1076   0.220E-03    0.133E-03
RMM:   9    -0.647062919409E+03   -0.16264E-04   -0.44883E-07   921   0.186E-03    0.814E-04
RMM:  10    -0.647062927631E+03   -0.82215E-05   -0.27845E-07   714   0.164E-03
  12 F= -.65346299E+03 E0= -.65344650E+03  d E =-.113510E-02  mag=    -1.6461
       N       E                     dE             d eps       ncg     rms          rms(c)
DAV:   1    -0.647062958045E+03   -0.38636E-04   -0.16578E-03  3400   0.129E-01    0.126E-02
RMM:   2    -0.647062963250E+03   -0.52048E-05   -0.69299E-05  2027   0.185E-02
  13 F= -.65346301E+03 E0= -.65344652E+03  d E =-.115118E-02  mag=    -1.6458
       N       E                     dE             d eps       ncg     rms          rms(c)
DAV:   1    -0.647062809952E+03    0.14809E-03   -0.96380E-02  3232   0.943E-01    0.919E-02
RMM:   2    -0.647063052980E+03   -0.24303E-03   -0.32691E-03  3041   0.135E-01    0.742E-02
RMM:   3    -0.647063009904E+03    0.43076E-04   -0.38336E-04  3042   0.397E-02    0.804E-02
RMM:   4    -0.647062933979E+03    0.75925E-04   -0.72699E-05  2022   0.175E-02    0.308E-02
RMM:   5    -0.647062919123E+03    0.14856E-04   -0.34759E-05  1967   0.129E-02    0.118E-02
RMM:   6    -0.647062950313E+03   -0.31190E-04   -0.49403E-06  1740   0.622E-03    0.410E-03
RMM:   7    -0.647062983624E+03   -0.33311E-04   -0.18315E-06  1715   0.356E-03    0.210E-03
RMM:   8    -0.647063001859E+03   -0.18235E-04   -0.57939E-07  1051   0.205E-03    0.118E-03
RMM:   9    -0.647063018263E+03   -0.16405E-04   -0.48274E-07   933   0.179E-03    0.528E-04
RMM:  10    -0.647063024902E+03   -0.66392E-05   -0.23321E-07   705   0.156E-03
  14 F= -.65346356E+03 E0= -.65344703E+03  d E =-.545727E-03  mag=    -1.6362
