 vasp.5.4.4.18Apr17-6-g9f103f2a35 (build Sep 02 2021 13:24:58) complex          
  
 executed on             LinuxIFC date 2023.01.15  13:02:12
 running on   48 total cores
 distrk:  each k-point on   48 cores,    1 groups
 distr:  one band on NCORES_PER_BAND=  12 cores,    4 groups


--------------------------------------------------------------------------------------------------------


 INCAR:
 POTCAR:    PAW_PBE C 08Apr2002                   
 POTCAR:    PAW_PBE N 08Apr2002                   
 POTCAR:    PAW_PBE C 08Apr2002                   
 POTCAR:    PAW_PBE Cr_pv 02Aug2007               
 POTCAR:    PAW_PBE C 08Apr2002                   
   SHA256 =  253f7b50bb8d59471dbedb8285d89021f4a42ed1a2c5d38a03a736e69125dd95 C/
   COPYR  = (c) Copyright 08Apr2002 Georg Kresse                                
   COPYR  = This file is part of the software VASP. Any use, copying, and all ot
   COPYR  = If you do not have a valid VASP license, you may not use, copy or di
   VRHFIN =C: s2p2                                                              
   LEXCH  = PE                                                                  
   EATOM  =   147.1560 eV,   10.8157 Ry                                         
                                                                                
   TITEL  = PAW_PBE C 08Apr2002                                                 
   LULTRA =        F    use ultrasoft PP ?                                      
   IUNSCR =        1    unscreen: 0-lin 1-nonlin 2-no                           
   RPACOR =    1.200    partial core radius                                     
   POMASS =   12.011; ZVAL   =    4.000    mass and valenz                      
   RCORE  =    1.500    outmost cutoff radius                                   
   RWIGS  =    1.630; RWIGS  =    0.863    wigner-seitz radius (au A)           
   ENMAX  =  400.000; ENMIN  =  300.000 eV                                      
   ICORE  =        2    local potential                                         
   LCOR   =        T    correct aug charges                                     
   LPAW   =        T    paw PP                                                  
   EAUG   =  644.873                                                            
   DEXC   =    0.000                                                            
   RMAX   =    1.529    core radius for proj-oper                               
   RAUG   =    1.300    factor for augmentation sphere                          
   RDEP   =    1.501    radius for radial grids                                 
   RDEPT  =    1.300    core radius for aug-charge                              
                                                                                
   Atomic configuration                                                         
    4 entries                                                                   
     n  l   j            E        occ.                                          
     1  0  0.50      -273.3789   2.0000                                         
     2  0  0.50       -13.7508   2.0000                                         
     2  1  0.50        -5.2854   2.0000                                         
     3  2  1.50        -5.4423   0.0000                                         
   Description                                                                  
     l       E           TYP  RCUT    TYP  RCUT                                 
     0    -13.7508458     23  1.200                                             
     0     -8.2022199     23  1.200                                             
     1     -5.2854383     23  1.500                                             
     1     34.0145650     23  1.500                                             
     2     -5.4423304      7  1.500                                             
  local pseudopotential read in
  partial core-charges read in
  partial kinetic energy density read in
  atomic valenz-charges read in
  non local Contribution for L=           0  read in
    real space projection operators read in
  non local Contribution for L=           0  read in
    real space projection operators read in
  non local Contribution for L=           1  read in
    real space projection operators read in
  non local Contribution for L=           1  read in
    real space projection operators read in
    PAW grid and wavefunctions read in
 
   number of l-projection  operators is LMAX  =           4
   number of lm-projection operators is LMMAX =           8
 
 POTCAR:    PAW_PBE N 08Apr2002                   
   SHA256 =  e053789ff3a61a86a1b75d8a110fcc91f86041011e7b0817c7c99e4e8a6349d7 N/
   COPYR  = (c) Copyright 08Apr2002 Georg Kresse                                
   COPYR  = This file is part of the software VASP. Any use, copying, and all ot
   COPYR  = If you do not have a valid VASP license, you may not use, copy or di
   VRHFIN =N: s2p3                                                              
   LEXCH  = PE                                                                  
   EATOM  =   264.5486 eV,   19.4438 Ry                                         
                                                                                
   TITEL  = PAW_PBE N 08Apr2002                                                 
   LULTRA =        F    use ultrasoft PP ?                                      
   IUNSCR =        1    unscreen: 0-lin 1-nonlin 2-no                           
   RPACOR =    1.200    partial core radius                                     
   POMASS =   14.001; ZVAL   =    5.000    mass and valenz                      
   RCORE  =    1.500    outmost cutoff radius                                   
   RWIGS  =    1.400; RWIGS  =    0.741    wigner-seitz radius (au A)           
   ENMAX  =  400.000; ENMIN  =  300.000 eV                                      
   ICORE  =        2    local potential                                         
   LCOR   =        T    correct aug charges                                     
   LPAW   =        T    paw PP                                                  
   EAUG   =  627.112                                                            
   DEXC   =    0.000                                                            
   RMAX   =    1.529    core radius for proj-oper                               
   RAUG   =    1.300    factor for augmentation sphere                          
   RDEP   =    1.514    radius for radial grids                                 
   RDEPT  =    1.338    core radius for aug-charge                              
                                                                                
   Atomic configuration                                                         
    4 entries                                                                   
     n  l   j            E        occ.                                          
     1  0  0.50      -384.7179   2.0000                                         
     2  0  0.50       -18.5828   2.0000                                         
     2  1  0.50        -7.0898   3.0000                                         
     3  2  1.50        -6.8029   0.0000                                         
   Description                                                                  
     l       E           TYP  RCUT    TYP  RCUT                                 
     0    -18.5828119     23  1.200                                             
     0    -13.5018863     23  1.200                                             
     1     -7.0897853     23  1.500                                             
     1      9.5240782     23  1.500                                             
     2     -6.8029130      7  1.500                                             
  local pseudopotential read in
  partial core-charges read in
  partial kinetic energy density read in
  atomic valenz-charges read in
  non local Contribution for L=           0  read in
    real space projection operators read in
  non local Contribution for L=           0  read in
    real space projection operators read in
  non local Contribution for L=           1  read in
    real space projection operators read in
  non local Contribution for L=           1  read in
    real space projection operators read in
    PAW grid and wavefunctions read in
 
   number of l-projection  operators is LMAX  =           4
   number of lm-projection operators is LMMAX =           8
 
 POTCAR:    PAW_PBE C 08Apr2002                   
   SHA256 =  253f7b50bb8d59471dbedb8285d89021f4a42ed1a2c5d38a03a736e69125dd95 C/
   COPYR  = (c) Copyright 08Apr2002 Georg Kresse                                
   COPYR  = This file is part of the software VASP. Any use, copying, and all ot
   COPYR  = If you do not have a valid VASP license, you may not use, copy or di
   VRHFIN =C: s2p2                                                              
   LEXCH  = PE                                                                  
   EATOM  =   147.1560 eV,   10.8157 Ry                                         
                                                                                
   TITEL  = PAW_PBE C 08Apr2002                                                 
   LULTRA =        F    use ultrasoft PP ?                                      
   IUNSCR =        1    unscreen: 0-lin 1-nonlin 2-no                           
   RPACOR =    1.200    partial core radius                                     
   POMASS =   12.011; ZVAL   =    4.000    mass and valenz                      
   RCORE  =    1.500    outmost cutoff radius                                   
   RWIGS  =    1.630; RWIGS  =    0.863    wigner-seitz radius (au A)           
   ENMAX  =  400.000; ENMIN  =  300.000 eV                                      
   ICORE  =        2    local potential                                         
   LCOR   =        T    correct aug charges                                     
   LPAW   =        T    paw PP                                                  
   EAUG   =  644.873                                                            
   DEXC   =    0.000                                                            
   RMAX   =    1.529    core radius for proj-oper                               
   RAUG   =    1.300    factor for augmentation sphere                          
   RDEP   =    1.501    radius for radial grids                                 
   RDEPT  =    1.300    core radius for aug-charge                              
                                                                                
   Atomic configuration                                                         
    4 entries                                                                   
     n  l   j            E        occ.                                          
     1  0  0.50      -273.3789   2.0000                                         
     2  0  0.50       -13.7508   2.0000                                         
     2  1  0.50        -5.2854   2.0000                                         
     3  2  1.50        -5.4423   0.0000                                         
   Description                                                                  
     l       E           TYP  RCUT    TYP  RCUT                                 
     0    -13.7508458     23  1.200                                             
     0     -8.2022199     23  1.200                                             
     1     -5.2854383     23  1.500                                             
     1     34.0145650     23  1.500                                             
     2     -5.4423304      7  1.500                                             
  local pseudopotential read in
  partial core-charges read in
  partial kinetic energy density read in
  atomic valenz-charges read in
  non local Contribution for L=           0  read in
    real space projection operators read in
  non local Contribution for L=           0  read in
    real space projection operators read in
  non local Contribution for L=           1  read in
    real space projection operators read in
  non local Contribution for L=           1  read in
    real space projection operators read in
    PAW grid and wavefunctions read in
 
   number of l-projection  operators is LMAX  =           4
   number of lm-projection operators is LMMAX =           8
 
 POTCAR:    PAW_PBE Cr_pv 02Aug2007               
   SHA256 =  c9a7df34d3cdbacf1090e328ef39c0b420964e11c23f63548d1ac9dd218cdba0 Cr
   COPYR  = (c) Copyright 02Aug2007 Georg Kresse                                
   COPYR  = This file is part of the software VASP. Any use, copying, and all ot
   COPYR  = If you do not have a valid VASP license, you may not use, copy or di
   VRHFIN =Cr : p6d5s1                                                          
   LEXCH  = PE                                                                  
   EATOM  =  1647.9177 eV,  121.1185 Ry                                         
                                                                                
   TITEL  = PAW_PBE Cr_pv 02Aug2007                                             
   LULTRA =        F    use ultrasoft PP ?                                      
   IUNSCR =        1    unscreen: 0-lin 1-nonlin 2-no                           
   RPACOR =    2.080    partial core radius                                     
   POMASS =   51.996; ZVAL   =   12.000    mass and valenz                      
   RCORE  =    2.300    outmost cutoff radius                                   
   RWIGS  =    2.500; RWIGS  =    1.323    wigner-seitz radius (au A)           
   ENMAX  =  265.681; ENMIN  =  199.261 eV                                      
   ICORE  =        3    local potential                                         
   LCOR   =        T    correct aug charges                                     
   LPAW   =        T    paw PP                                                  
   EAUG   =  519.424                                                            
   DEXC   =    0.000                                                            
   RMAX   =    2.356    core radius for proj-oper                               
   RAUG   =    1.300    factor for augmentation sphere                          
   RDEP   =    2.447    radius for radial grids                                 
   RDEPT  =    1.882    core radius for aug-charge                              
                                                                                
   Atomic configuration                                                         
    8 entries                                                                   
     n  l   j            E        occ.                                          
     1  0  0.50     -5880.4963   2.0000                                         
     2  0  0.50      -667.0865   2.0000                                         
     2  1  1.50      -560.6250   6.0000                                         
     3  0  0.50       -73.9860   2.0000                                         
     3  1  1.50       -45.4378   6.0000                                         
     3  2  2.50        -2.9137   5.0000                                         
     4  0  0.50        -4.0071   1.0000                                         
     4  3  2.50        -1.3606   0.0000                                         
   Description                                                                  
     l       E           TYP  RCUT    TYP  RCUT                                 
     1    -45.4377911     23  2.000                                             
     1      1.3605826     23  2.000                                             
     2     -2.9136672     23  2.300                                             
     2     -4.2742498     23  2.300                                             
     0     -4.0071320     23  2.300                                             
     0      9.4498803     23  2.300                                             
     3      2.7211652     23  2.300                                             
  local pseudopotential read in
  partial core-charges read in
  partial kinetic energy density read in
  atomic valenz-charges read in
  non local Contribution for L=           1  read in
    real space projection operators read in
  non local Contribution for L=           1  read in
    real space projection operators read in
  non local Contribution for L=           2  read in
    real space projection operators read in
  non local Contribution for L=           2  read in
    real space projection operators read in
  non local Contribution for L=           0  read in
    real space projection operators read in
  non local Contribution for L=           0  read in
    real space projection operators read in
    PAW grid and wavefunctions read in
 
   number of l-projection  operators is LMAX  =           6
   number of lm-projection operators is LMMAX =          18
 
 Optimization of the real space projectors (new method)

 maximal supplied QI-value         = 25.13
 optimisation between [QCUT,QGAM] = [ 11.81, 23.88] = [ 39.08,159.64] Ry 
 Optimized for a Real-space Cutoff    1.18 Angstroem

   l    n(q)    QCUT    max X(q) W(low)/X(q) W(high)/X(q)  e(spline) 
   0      8    11.813   115.676    0.10E-03    0.16E-03    0.35E-06
   0      8    11.813    87.132    0.10E-03    0.16E-03    0.35E-06
   1      8    11.813     4.429    0.16E-03    0.13E-04    0.22E-06
   1      8    11.813     2.733    0.13E-03    0.10E-04    0.18E-06
 Optimization of the real space projectors (new method)

 maximal supplied QI-value         = 25.13
 optimisation between [QCUT,QGAM] = [ 11.81, 23.88] = [ 39.08,159.64] Ry 
 Optimized for a Real-space Cutoff    1.41 Angstroem

   l    n(q)    QCUT    max X(q) W(low)/X(q) W(high)/X(q)  e(spline) 
   0     10    11.813    79.467    0.48E-04    0.30E-04    0.67E-06
   0     10    11.813    66.151    0.47E-04    0.30E-04    0.67E-06
   1     10    11.813    20.169    0.11E-03    0.17E-03    0.11E-05
   1     10    11.813    14.454    0.11E-03    0.17E-03    0.11E-05
 Optimization of the real space projectors (new method)

 maximal supplied QI-value         = 25.13
 optimisation between [QCUT,QGAM] = [ 11.81, 23.88] = [ 39.08,159.64] Ry 
 Optimized for a Real-space Cutoff    1.18 Angstroem

   l    n(q)    QCUT    max X(q) W(low)/X(q) W(high)/X(q)  e(spline) 
   0      8    11.813   115.676    0.10E-03    0.16E-03    0.35E-06
   0      8    11.813    87.132    0.10E-03    0.16E-03    0.35E-06
   1      8    11.813     4.429    0.16E-03    0.13E-04    0.22E-06
   1      8    11.813     2.733    0.13E-03    0.10E-04    0.18E-06
 Optimization of the real space projectors (new method)

 maximal supplied QI-value         = 16.25
 optimisation between [QCUT,QGAM] = [ 11.86, 23.89] = [ 39.41,159.82] Ry 
 Optimized for a Real-space Cutoff    1.33 Angstroem

   l    n(q)    QCUT    max X(q) W(low)/X(q) W(high)/X(q)  e(spline) 
   1      9    11.864     3.262    0.48E-04    0.16E-03    0.14E-06
   1      9    11.864     5.741    0.74E-04    0.40E-03    0.35E-06
   2      9    11.864    60.438    0.17E-03    0.21E-03    0.26E-06
   2      9    11.864    55.380    0.17E-03    0.21E-03    0.27E-06
   0      9    11.864    80.273    0.40E-04    0.47E-04    0.12E-06
   0      9    11.864    36.654    0.35E-04    0.41E-04    0.11E-06
  PAW_PBE C 08Apr2002                   :
 energy of atom  1       EATOM= -147.1560
 kinetic energy error for atom=    0.0066 (will be added to EATOM!!)
  PAW_PBE N 08Apr2002                   :
 energy of atom  2       EATOM= -264.5486
 kinetic energy error for atom=    0.0116 (will be added to EATOM!!)
  PAW_PBE C 08Apr2002                   :
 energy of atom  3       EATOM= -147.1560
 kinetic energy error for atom=    0.0066 (will be added to EATOM!!)
  PAW_PBE Cr_pv 02Aug2007               :
 energy of atom  4       EATOM=-1647.9177
 kinetic energy error for atom=    0.0054 (will be added to EATOM!!)
 
 
 POSCAR: POSCAR-clean                            
  positions in cartesian coordinates
  No initial velocities read in
 exchange correlation table for  LEXCH =        8
   RHO(1)=    0.500       N(1)  =     2000
   RHO(2)=  100.500       N(2)  =     4000
 


--------------------------------------------------------------------------------------------------------


 ion  position               nearest neighbor table
   1  0.000  1.000  0.498-   2 1.42  60 1.42  70 1.43
   2  0.056  0.111  0.498-   1 1.42  13 1.42  15 1.43
   3  0.168  0.002  0.498-   4 1.42  62 1.43  60 1.43
   4  0.224  0.113  0.498-   3 1.42  15 1.42  17 1.44
   5  0.334  0.002  0.498-   6 1.42  62 1.43  64 1.43
   6  0.390  0.113  0.498-   5 1.42  19 1.42  17 1.44
   7  0.500  1.000  0.498-   8 1.42  64 1.42  66 1.43
   8  0.556  0.111  0.498-   7 1.42  21 1.42  19 1.43
   9  0.666  0.998  0.498-  10 1.42  66 1.42  68 1.44
  10  0.722  0.109  0.498-   9 1.42  23 1.43  21 1.43
  11  0.832  0.998  0.498-  12 1.42  70 1.42  68 1.44
  12  0.888  0.109  0.498-  11 1.42  23 1.43  13 1.43
  13  0.999  0.165  0.498-  14 1.42   2 1.42  12 1.43
  14  0.054  0.277  0.499-  13 1.42  25 1.42  27 1.43
  15  0.167  0.168  0.498-  16 1.42   4 1.42   2 1.43
  16  0.223  0.280  0.500-  15 1.42  27 1.43  29 1.44
  17  0.335  0.170  0.499-  18 1.42   4 1.44   6 1.44
  18  0.391  0.281  0.503-  17 1.42  31 1.44  29 1.44
  19  0.501  0.168  0.498-  20 1.42   6 1.42   8 1.43
  20  0.557  0.280  0.500-  19 1.42  33 1.43  31 1.44
  21  0.667  0.165  0.498-  22 1.42   8 1.42  10 1.43
  22  0.723  0.277  0.498-  21 1.42  35 1.42  33 1.43
  23  0.833  0.165  0.498-  24 1.42  10 1.43  12 1.43
  24  0.888  0.276  0.498-  23 1.42  25 1.42  35 1.43
  25  0.999  0.332  0.498-  14 1.42  26 1.42  24 1.42
  26  0.054  0.444  0.499-  39 1.42  37 1.42  25 1.42
  27  0.165  0.333  0.500-  28 1.42  16 1.43  14 1.43
  28  0.219  0.444  0.502-  41 1.41  27 1.42  39 1.42
  29  0.335  0.338  0.503-  30 1.41  18 1.44  16 1.44
  30  0.387  0.448  0.510-  41 1.41  29 1.41  71 2.00
  31  0.503  0.338  0.504-  32 1.41  18 1.44  20 1.44
  32  0.562  0.448  0.510-  43 1.41  31 1.41  71 2.00
  33  0.668  0.333  0.500-  34 1.42  20 1.43  22 1.43
  34  0.725  0.444  0.501-  43 1.41  33 1.42  45 1.42
  35  0.833  0.332  0.498-  22 1.42  36 1.42  24 1.43
  36  0.890  0.444  0.498-  45 1.42  37 1.42  35 1.42
  37  0.000  0.500  0.498-  36 1.42  26 1.42  38 1.42
  38  0.056  0.611  0.498-  47 1.42  49 1.42  37 1.42
  39  0.165  0.500  0.500-  26 1.42  28 1.42  40 1.42
  40  0.220  0.611  0.500-  49 1.42  51 1.42  39 1.42
  41  0.329  0.499  0.505-  30 1.41  28 1.41  42 1.44
  42  0.385  0.612  0.505-  53 1.41  51 1.41  41 1.44
  43  0.671  0.499  0.505-  32 1.41  34 1.41  44 1.44
  44  0.727  0.612  0.505-  55 1.41  57 1.41  43 1.44
  45  0.836  0.500  0.499-  36 1.42  34 1.42  46 1.42
  46  0.891  0.611  0.499-  47 1.42  57 1.42  45 1.42
  47  0.001  0.667  0.498-  46 1.42  38 1.42  48 1.42
  48  0.057  0.779  0.498-  59 1.42  47 1.42  61 1.43
  49  0.166  0.667  0.499-  40 1.42  38 1.42  50 1.42
  50  0.222  0.779  0.498-  63 1.42  49 1.42  61 1.42
  51  0.331  0.667  0.502-  42 1.41  52 1.42  40 1.42
  52  0.388  0.778  0.500-  51 1.42  65 1.43  63 1.43
  53  0.494  0.663  0.510-  42 1.41  54 1.41  71 2.00
  54  0.553  0.773  0.503-  53 1.41  67 1.44  65 1.44
  55  0.669  0.663  0.510-  44 1.41  56 1.41  71 2.00
  56  0.721  0.773  0.504-  55 1.41  67 1.44  69 1.44
  57  0.837  0.667  0.501-  44 1.41  58 1.42  46 1.42
  58  0.891  0.778  0.500-  57 1.42  69 1.42  59 1.43
  59  0.002  0.835  0.498-  60 1.42  48 1.42  58 1.43
  60  0.057  0.946  0.498-  59 1.42   1 1.42   3 1.43
  61  0.168  0.835  0.498-  62 1.42  50 1.42  48 1.43
  62  0.223  0.946  0.498-  61 1.42   3 1.43   5 1.43
  63  0.333  0.835  0.499-  64 1.42  50 1.42  52 1.43
  64  0.389  0.946  0.498-  63 1.42   7 1.42   5 1.43
  65  0.499  0.832  0.500-  66 1.42  52 1.43  54 1.44
  66  0.555  0.943  0.498-  65 1.42   9 1.42   7 1.43
  67  0.665  0.830  0.503-  68 1.42  56 1.44  54 1.44
  68  0.721  0.941  0.499-  67 1.42   9 1.44  11 1.44
  69  0.833  0.832  0.500-  70 1.42  58 1.42  56 1.44
  70  0.889  0.943  0.498-  69 1.42  11 1.42   1 1.43
  71  0.528  0.556  0.554-  55 2.00  32 2.00  53 2.00  30 2.00
 

IMPORTANT INFORMATION: All symmetrisations will be switched off!
NOSYMM: (Re-)initialisation of all symmetry stuff for point group C_1.

 
 
 KPOINTS: K-Points                                

Automatic generation of k-mesh.
Space group operators:
 irot       det(A)        alpha          n_x          n_y          n_z        tau_x        tau_y        tau_z
    1     1.000000     0.000000     1.000000     0.000000     0.000000     0.000000     0.000000     0.000000
 
 Subroutine IBZKPT returns following result:
 ===========================================
 
 Found      4 irreducible k-points:
 
 Following reciprocal coordinates:
            Coordinates               Weight
  0.000000  0.000000  0.000000      1.000000
  0.500000  0.000000  0.000000      1.000000
 -0.000000  0.500000  0.000000      1.000000
  0.500000  0.500000  0.000000      1.000000
 
 Following cartesian coordinates:
            Coordinates               Weight
  0.000000  0.000000  0.000000      1.000000
  0.033606  0.019589  0.000000      1.000000
 -0.000000  0.039178  0.000000      1.000000
  0.033606  0.058767  0.000000      1.000000
 


--------------------------------------------------------------------------------------------------------




 Dimension of arrays:
   k-points           NKPTS =      4   k-points in BZ     NKDIM =      4   number of bands    NBANDS=    184
   number of dos      NEDOS =    301   number of ions     NIONS =     71
   non local maximal  LDIM  =      6   non local SUM 2l+1 LMDIM =     18
   total plane-waves  NPLWV = ******
   max r-space proj   IRMAX =   7110   max aug-charges    IRDMAX=  21308
   dimension x,y,z NGX =   120 NGY =  120 NGZ =  120
   dimension x,y,z NGXF=   240 NGYF=  240 NGZF=  240
   support grid    NGXF=   240 NGYF=  240 NGZF=  240
   ions per type =               8   1  61   1
   NGX,Y,Z   is equivalent  to a cutoff of  13.41, 13.50, 13.30 a.u.
   NGXF,Y,Z  is equivalent  to a cutoff of  26.82, 27.01, 26.60 a.u.

 SYSTEM =  unknown system                          
 POSCAR =  POSCAR-clean                            

 Startparameter for this run:
   NWRITE =      2    write-flag & timer
   PREC   = accura    normal or accurate (medium, high low for compatibility)
   ISTART =      0    job   : 0-new  1-cont  2-samecut
   ICHARG =      2    charge: 1-file 2-atom 10-const
   ISPIN  =      2    spin polarized calculation?
   LNONCOLLINEAR =      F non collinear calculations
   LSORBIT =      F    spin-orbit coupling
   INIWAV =      1    electr: 0-lowe 1-rand  2-diag
   LASPH  =      F    aspherical Exc in radial PAW
   METAGGA=      F    non-selfconsistent MetaGGA calc.

 Electronic Relaxation 1
   ENCUT  =  550.0 eV  40.42 Ry    6.36 a.u.  28.45 28.25 28.68*2*pi/ulx,y,z
   ENINI  =  550.0     initial cutoff
   ENAUG  =  644.9 eV  augmentation charge cutoff
   NELM   =     50;   NELMIN=  2; NELMDL= -5     # of ELM steps 
   EDIFF  = 0.1E-04   stopping-criterion for ELM
   LREAL  =      T    real-space projection
   NLSPLINE    = F    spline interpolate recip. space projectors
   LCOMPAT=      F    compatible to vasp.4.4
   GGA_COMPAT  = T    GGA compatible to vasp.4.4-vasp.4.6
   LMAXPAW     = -100 max onsite density
   LMAXMIX     =    2 max onsite mixed and CHGCAR
   VOSKOWN=      0    Vosko Wilk Nusair interpolation
   ROPT   =   -0.00025  -0.00025  -0.00025  -0.00025
 Ionic relaxation
   EDIFFG = -.5E-01   stopping-criterion for IOM
   NSW    =    400    number of steps for IOM
   NBLOCK =      1;   KBLOCK =    400    inner block; outer block 
   IBRION =      2    ionic relax: 0-MD 1-quasi-New 2-CG
   NFREE  =      1    steps in history (QN), initial steepest desc. (CG)
   ISIF   =      3    stress and relaxation
   IWAVPR =     11    prediction:  0-non 1-charg 2-wave 3-comb
   ISYM   =      0    0-nonsym 1-usesym 2-fastsym
   LCORR  =      T    Harris-Foulkes like correction to forces

   POTIM  = 0.3000    time-step for ionic-motion
   TEIN   =    0.0    initial temperature
   TEBEG  =    0.0;   TEEND  =   0.0 temperature during run
   SMASS  =  -3.00    Nose mass-parameter (am)
   estimated Nose-frequenzy (Omega)   =  0.10E-29 period in steps =****** mass=  -0.506E-26a.u.
   SCALEE = 1.0000    scale energy and forces
   NPACO  =    256;   APACO  = 16.0  distance and # of slots for P.C.
   PSTRESS=    0.0 pullay stress

  Mass of Ions in am
   POMASS =  12.01 14.00 12.01 52.00
  Ionic Valenz
   ZVAL   =   4.00  5.00  4.00 12.00
  Atomic Wigner-Seitz radii
   RWIGS  =  -1.00 -1.00 -1.00 -1.00
  virtual crystal weights 
   VCA    =   1.00  1.00  1.00  1.00
   NELECT =     293.0000    total number of electrons
   NUPDOWN=      -1.0000    fix difference up-down

 DOS related values:
   EMIN   =  10.00;   EMAX   =-10.00  energy-range for DOS
   EFERMI =   0.00
   ISMEAR =     0;   SIGMA  =   0.10  broadening in eV -4-tet -1-fermi 0-gaus

 Electronic relaxation 2 (details)
   IALGO  =     68    algorithm
   LDIAG  =      T    sub-space diagonalisation (order eigenvalues)
   LSUBROT=      F    optimize rotation matrix (better conditioning)
   TURBO    =      0    0=normal 1=particle mesh
   IRESTART =      0    0=no restart 2=restart with 2 vectors
   NREBOOT  =      0    no. of reboots
   NMIN     =      0    reboot dimension
   EREF     =   0.00    reference energy to select bands
   IMIX   =      4    mixing-type and parameters
     AMIX     =   0.40;   BMIX     =  1.00
     AMIX_MAG =   1.60;   BMIX_MAG =  1.00
     AMIN     =   0.10
     WC   =   100.;   INIMIX=   1;  MIXPRE=   1;  MAXMIX= -45

 Intra band minimization:
   WEIMIN = 0.0010     energy-eigenvalue tresh-hold
   EBREAK =  0.14E-07  absolut break condition
   DEPER  =   0.30     relativ break condition  

   TIME   =   0.40     timestep for ELM

  volume/ion in A,a.u.               =      40.12       270.71
  Fermi-wavevector in a.u.,A,eV,Ry     =   0.767079  1.449569  8.005805  0.588410
  Thomas-Fermi vector in A             =   1.867557
 
 Write flags
   LWAVE        =      F    write WAVECAR
   LDOWNSAMPLE  =      F    k-point downsampling of WAVECAR
   LCHARG       =      F    write CHGCAR
   LVTOT        =      F    write LOCPOT, total local potential
   LVHAR        =      F    write LOCPOT, Hartree potential only
   LELF         =      F    write electronic localiz. function (ELF)
   LORBIT       =      0    0 simple, 1 ext, 2 COOP (PROOUT), +10 PAW based schemes


 Dipole corrections
   LMONO  =      F    monopole corrections only (constant potential shift)
   LDIPOL =      F    correct potential (dipole corrections)
   IDIPOL =      0    1-x, 2-y, 3-z, 4-all directions 
   EPSILON=  1.0000000 bulk dielectric constant

 Exchange correlation treatment:
   GGA     =    --    GGA type
   LEXCH   =     8    internal setting for exchange type
   VOSKOWN=      0    Vosko Wilk Nusair interpolation
   LHFCALC =     F    Hartree Fock is set to
   LHFONE  =     F    Hartree Fock one center treatment
   AEXX    =    0.0000 exact exchange contribution

 Linear response parameters
   LEPSILON=     F    determine dielectric tensor
   LRPA    =     F    only Hartree local field effects (RPA)
   LNABLA  =     F    use nabla operator in PAW spheres
   LVEL    =     F    velocity operator in full k-point grid
   LINTERFAST=   F  fast interpolation
   KINTER  =     0    interpolate to denser k-point grid
   CSHIFT  =0.1000    complex shift for real part using Kramers Kronig
   OMEGAMAX=  -1.0    maximum frequency
   DEG_THRESHOLD= 0.2000000E-02 threshold for treating states as degnerate
   RTIME   =   -0.100 relaxation time in fs
  (WPLASMAI=    0.000 imaginary part of plasma frequency in eV, 0.658/RTIME)
   DFIELD  = 0.0000000 0.0000000 0.0000000 field for delta impulse in time
 
 Orbital magnetization related:
   ORBITALMAG=     F  switch on orbital magnetization
   LCHIMAG   =     F  perturbation theory with respect to B field
   DQ        =  0.001000  dq finite difference perturbation B field
   LLRAUG    =     F  two centre corrections for induced B field



--------------------------------------------------------------------------------------------------------


 conjugate gradient relaxation of ions
 charge density and potential will be updated during run
 spin polarized calculation
 RMM-DIIS sequential band-by-band and
  variant of blocked Davidson during initial phase
 perform sub-space diagonalisation
    before iterative eigenvector-optimisation
 modified Broyden-mixing scheme, WC =      100.0
 initial mixing is a Kerker type mixing with AMIX =  0.4000 and BMIX =      1.0000
 Hartree-type preconditioning will be used
 using additional bands           37
 real space projection scheme for non local part
 use partial core corrections
 calculate Harris-corrections to forces 
   (improved forces if not selfconsistent)
 use gradient corrections 
 use of overlap-Matrix (Vanderbilt PP)
 Gauss-broadening in eV      SIGMA  =   0.10


--------------------------------------------------------------------------------------------------------


  energy-cutoff  :      550.00
  volume of cell :     2848.21
      direct lattice vectors                 reciprocal lattice vectors
    14.878307727  0.000105424  0.000000000     0.067211667  0.039178051  0.000000000
    -7.439153864 12.762195204  0.000000000    -0.000000555  0.078356102  0.000000000
     0.000000000  0.000000000 15.000000000     0.000000000  0.000000000  0.066666667

  length of vectors
    14.878307728 14.772089786 15.000000000     0.077796709  0.078356102  0.066666667


 
 k-points in units of 2pi/SCALE and weight: K-Points                                
   0.00000000  0.00000000  0.00000000       0.250
   0.03360583  0.01958903  0.00000000       0.250
  -0.00000028  0.03917805  0.00000000       0.250
   0.03360556  0.05876708  0.00000000       0.250
 
 k-points in reciprocal lattice and weights: K-Points                                
   0.00000000  0.00000000  0.00000000       0.250
   0.50000000  0.00000000  0.00000000       0.250
  -0.00000000  0.50000000  0.00000000       0.250
   0.50000000  0.50000000  0.00000000       0.250
 
 position of ions in fractional coordinates (direct lattice) 
   0.00014703  0.99993181  0.49766807
   0.05571316  0.11129367  0.49774774
   0.16803225  0.00210520  0.49753985
   0.22355821  0.11343998  0.49825115
   0.33432830  0.00207694  0.49777234
   0.39014706  0.11341551  0.49841838
   0.50002407  0.99989044  0.49775648
   0.55582710  0.11125266  0.49767590
   0.66571506  0.99774295  0.49825147
   0.72152612  0.10907882  0.49753824
   0.83231512  0.99776674  0.49841003
   0.88783929  0.10910686  0.49776801
   0.99908442  0.16549374  0.49784405
   0.05430809  0.27667161  0.49853746
   0.16734775  0.16806595  0.49834347
   0.22284185  0.27957445  0.49997583
   0.33528932  0.17029644  0.49941211
   0.39084341  0.28141813  0.50254970
   0.50097822  0.16802960  0.49842000
   0.55697129  0.27954076  0.49998817
   0.66664919  0.16545038  0.49752014
   0.72257294  0.27663324  0.49802908
   0.83255361  0.16485921  0.49764969
   0.88821716  0.27620991  0.49780056
   0.99906908  0.33222521  0.49838447
   0.05442247  0.44382388  0.49884723
   0.16531768  0.33288444  0.50001215
   0.21898612  0.44382270  0.50165224
   0.33514858  0.33773328  0.50339031
   0.38694525  0.44827387  0.50958670
   0.50284791  0.33770682  0.50360105
   0.56160602  0.44823797  0.50998391
   0.66778145  0.33285443  0.49963749
   0.72504010  0.44380782  0.50114295
   0.83335701  0.33221195  0.49791518
   0.88957865  0.44380677  0.49825237
   0.00003314  0.49990030  0.49835048
   0.05573614  0.61130743  0.49834565
   0.16452790  0.49985599  0.50032235
   0.22027264  0.61134265  0.50031499
   0.32877881  0.49923631  0.50514604
   0.38513300  0.61194665  0.50514739
   0.67071104  0.49923365  0.50517220
   0.72707059  0.61195035  0.50517224
   0.83551700  0.49986026  0.49948453
   0.89125350  0.61133457  0.49948422
   0.00136430  0.66739252  0.49824937
   0.05673614  0.77898562  0.49790902
   0.16620335  0.66738054  0.49883406
   0.22244721  0.77897560  0.49837060
   0.33076298  0.66736579  0.50164604
   0.38803591  0.77830247  0.50000539
   0.49425975  0.66291375  0.50958718
   0.55300964  0.77344715  0.50338828
   0.66896610  0.66295341  0.50998288
   0.72073432  0.77348097  0.50359479
   0.83682433  0.66738081  0.50114212
   0.89051054  0.77833045  0.49963539
   0.00151950  0.83455528  0.49802741
   0.05677874  0.94573836  0.49751926
   0.16759972  0.83498348  0.49779087
   0.22328727  0.94632847  0.49764984
   0.33324173  0.83452222  0.49853136
   0.38919606  0.94569806  0.49784785
   0.49886656  0.83160652  0.49997424
   0.55488261  0.94311446  0.49834783
   0.66501623  0.82976534  0.50254304
   0.72058356  0.94088512  0.49940688
   0.83301728  0.83164625  0.49998031
   0.88852543  0.94315192  0.49840894
   0.52788678  0.55561308  0.55407295
 
 position of ions in cartesian coordinates  (Angst):
  -7.43645893 12.76132490  7.46502101
   0.00098677  1.42035737  7.46621609
   2.48437460  0.02688469  7.46309769
   2.48227038  1.44776676  7.47376727
   4.95878870  0.02654158  7.46658504
   4.96101252  1.44747206  7.47627575
   0.00117320 12.76084966  7.46634727
   7.44214093  1.41988678  7.46513856
   2.48235028 12.73346045  7.47377203
   9.92363354  1.39216125  7.46307356
   4.96090025 12.73378160  7.47615045
  12.39788345  1.39253665  7.46652020
  13.63355202  2.11216869  7.46766080
  -1.25019027  3.53094287  7.47806186
   1.23958287  2.14490807  7.47515208
   1.23571236  3.56800714  7.49963746
   3.72167632  2.17339173  7.49118168
   3.72157576  3.59155433  7.53824552
   6.20371007  2.14447940  7.47630003
   6.20724356  3.56761241  7.49982262
   8.68780104  2.11158030  7.46280215
   8.69274532  3.53052356  7.47043619
  11.16057575  2.10405319  7.46474541
  11.16040021  3.52513843  7.46700843
  12.39298273  4.24002833  7.47576708
  -2.49195986  5.66417272  7.48270852
  -0.01673121  4.24835367  7.50018218
  -0.04352248  5.66417505  7.52478359
   2.47399392  4.31025334  7.55085470
   2.42231217  5.72099937  7.64380057
   4.96927299  4.30993342  7.55401582
   5.02123589  5.72055973  7.64975858
   7.45930259  4.24802358  7.49456242
   7.48581505  5.66403852  7.51714419
   9.92756627  4.23984160  7.46872767
   9.93387816  5.66404236  7.47378561
  -3.71834223  6.37982525  7.47525727
  -3.71835051  7.80163060  7.47518475
  -1.27060894  6.37927707  7.50483528
  -1.27058799  7.80209747  7.50472492
   1.17777658  6.37138591  7.57719062
   1.17776199  7.80982318  7.57721079
   6.26516932  6.37138797  7.57758296
   6.26518706  7.80990654  7.57758361
   8.71254167  6.37940228  7.49226792
   8.71253189  7.80206507  7.49226324
  -4.94453714  8.51739379  7.47374059
  -4.95085604  9.94157246  7.46863529
  -2.49192199  8.51725823  7.48251084
  -2.48528121  9.94146208  7.47555906
  -0.04344336  8.51708741  7.52469062
  -0.01659412  9.93288892  7.50008080
   2.42223119  8.46028680  7.64380763
   2.47405524  9.87094181  7.55082413
   5.02127100  8.46081135  7.64974323
   4.96926315  9.87139105  7.55392179
   7.48578134  8.51733237  7.51713176
   7.45916989  9.93329897  7.49453080
  -6.18577746 10.65075751  7.47041111
  -6.19072161 12.06970350  7.46278894
  -3.71797037 10.65623981  7.46686302
  -3.71774635 12.07725221  7.46474766
  -1.25006613 10.65037063  7.47797042
  -1.24461459 12.06922431  7.46771775
   1.23584141 10.61317732  7.49961357
   1.23974067 12.03626939  7.47521740
   3.72156413 10.58969736  7.53814562
   3.72167477 12.00783549  7.49110317
   6.20714301 10.61371955  7.49970466
   6.20350242 12.03678263  7.47613410
   3.72077071  7.09089829  8.31109430
 


--------------------------------------------------------------------------------------------------------


 k-point  1 :   0.0000 0.0000 0.0000  plane waves:   83445
 k-point  2 :   0.5000 0.0000 0.0000  plane waves:   83448
 k-point  3 :  -0.0000 0.5000 0.0000  plane waves:   83436
 k-point  4 :   0.5000 0.5000 0.0000  plane waves:   83444

 maximum and minimum number of plane-waves per node :      6984     6935

 maximum number of plane-waves:     83448
 maximum index in each direction: 
   IXMAX=   28   IYMAX=   28   IZMAX=   28
   IXMIN=  -28   IYMIN=  -28   IZMIN=  -28


 real space projection operators:
  total allocation   :      18578.98 KBytes
  max/ min on nodes  :       1558.05       1535.09


 parallel 3D FFT for wavefunctions:
    minimum data exchange during FFTs selected (reduces bandwidth)
 parallel 3D FFT for charge:
    minimum data exchange during FFTs selected (reduces bandwidth)


 total amount of memory used by VASP MPI-rank0   135451. kBytes
=======================================================================

   base      :      30000. kBytes
   nonlr-proj:      10462. kBytes
   fftplans  :      14072. kBytes
   grid      :      39398. kBytes
   one-center:        186. kBytes
   wavefun   :      41333. kBytes
 
     INWAV:  cpu time    0.0000: real time    0.0000
 Broyden mixing: mesh for mixing (old mesh)
   NGX = 57   NGY = 57   NGZ = 57
  (NGX  =240   NGY  =240   NGZ  =240)
  gives a total of 185193 points

 initial charge density was supplied:
 charge density of overlapping atoms calculated
 number of electron     293.0000000 magnetization       1.0000000
 keeping initial charge density in first step


--------------------------------------------------------------------------------------------------------


 Maximum index for non-local projection operator          607
 Maximum index for augmentation-charges          402 (set IRDMAX)


--------------------------------------------------------------------------------------------------------


 First call to EWALD:  gamma=   0.125
 Maximum number of real-space cells 3x 3x 3
 Maximum number of reciprocal cells 3x 3x 3

    FEWALD:  cpu time    0.0040: real time    0.0042


--------------------------------------- Iteration      1(   1)  ---------------------------------------


    POTLOK:  cpu time    0.5506: real time    0.5746
    SETDIJ:  cpu time    0.0172: real time    0.0247
     EDDAV:  cpu time   16.9624: real time   17.1450
       DOS:  cpu time    0.0012: real time    0.0021
    --------------------------------------------
      LOOP:  cpu time   17.5314: real time   17.7464

 eigenvalue-minimisations  :  3256
 total energy-change (2. order) : 0.2735623E+04  (-0.1174002E+05)
 number of electron     293.0000000 magnetization       1.0000000
 augmentation part      293.0000000 magnetization       1.0000000

 Free energy of the ion-electron system (eV)
  ---------------------------------------------------
  alpha Z        PSCENC =       156.95040625
  Ewald energy   TEWEN  =     30374.43991131
  -Hartree energ DENC   =    -39540.46611250
  -exchange      EXHF   =         0.00000000
  -V(xc)+E(xc)   XCENC  =       982.53731022
  PAW double counting   =      9000.30529238    -9089.18527416
  entropy T*S    EENTRO =        -0.11489719
  eigenvalues    EBANDS =     -1214.60164207
  atomic energy  EATOM  =     12065.75791449
  Solvation  Ediel_sol  =         0.00000000
  ---------------------------------------------------
  free energy    TOTEN  =      2735.62290873 eV

  energy without entropy =     2735.73780592  energy(sigma->0) =     2735.68035733


--------------------------------------------------------------------------------------------------------




--------------------------------------- Iteration      1(   2)  ---------------------------------------


     EDDAV:  cpu time   22.1313: real time   22.3700
       DOS:  cpu time    0.0009: real time    0.0009
    --------------------------------------------
      LOOP:  cpu time   22.1322: real time   22.3709

 eigenvalue-minimisations  :  4304
 total energy-change (2. order) :-0.2908937E+04  (-0.2780307E+04)
 number of electron     293.0000000 magnetization       1.0000000
 augmentation part      293.0000000 magnetization       1.0000000

 Free energy of the ion-electron system (eV)
  ---------------------------------------------------
  alpha Z        PSCENC =       156.95040625
  Ewald energy   TEWEN  =     30374.43991131
  -Hartree energ DENC   =    -39540.46611250
  -exchange      EXHF   =         0.00000000
  -V(xc)+E(xc)   XCENC  =       982.53731022
  PAW double counting   =      9000.30529238    -9089.18527416
  entropy T*S    EENTRO =        -0.02586286
  eigenvalues    EBANDS =     -4123.62729901
  atomic energy  EATOM  =     12065.75791449
  Solvation  Ediel_sol  =         0.00000000
  ---------------------------------------------------
  free energy    TOTEN  =      -173.31371389 eV

  energy without entropy =     -173.28785102  energy(sigma->0) =     -173.30078246


--------------------------------------------------------------------------------------------------------




--------------------------------------- Iteration      1(   3)  ---------------------------------------


     EDDAV:  cpu time   18.4184: real time   18.6331
       DOS:  cpu time    0.0010: real time    0.0010
    --------------------------------------------
      LOOP:  cpu time   18.4193: real time   18.6341

 eigenvalue-minimisations  :  3560
 total energy-change (2. order) :-0.5111393E+03  (-0.5082765E+03)
 number of electron     293.0000000 magnetization       1.0000000
 augmentation part      293.0000000 magnetization       1.0000000

 Free energy of the ion-electron system (eV)
  ---------------------------------------------------
  alpha Z        PSCENC =       156.95040625
  Ewald energy   TEWEN  =     30374.43991131
  -Hartree energ DENC   =    -39540.46611250
  -exchange      EXHF   =         0.00000000
  -V(xc)+E(xc)   XCENC  =       982.53731022
  PAW double counting   =      9000.30529238    -9089.18527416
  entropy T*S    EENTRO =        -0.03733350
  eigenvalues    EBANDS =     -4634.75509768
  atomic energy  EATOM  =     12065.75791449
  Solvation  Ediel_sol  =         0.00000000
  ---------------------------------------------------
  free energy    TOTEN  =      -684.45298320 eV

  energy without entropy =     -684.41564969  energy(sigma->0) =     -684.43431644


--------------------------------------------------------------------------------------------------------




--------------------------------------- Iteration      1(   4)  ---------------------------------------


     EDDAV:  cpu time   18.7652: real time   18.9969
       DOS:  cpu time    0.0008: real time    0.0008
    --------------------------------------------
      LOOP:  cpu time   18.7660: real time   18.9977

 eigenvalue-minimisations  :  3528
 total energy-change (2. order) :-0.1936689E+02  (-0.1922039E+02)
 number of electron     293.0000000 magnetization       1.0000000
 augmentation part      293.0000000 magnetization       1.0000000

 Free energy of the ion-electron system (eV)
  ---------------------------------------------------
  alpha Z        PSCENC =       156.95040625
  Ewald energy   TEWEN  =     30374.43991131
  -Hartree energ DENC   =    -39540.46611250
  -exchange      EXHF   =         0.00000000
  -V(xc)+E(xc)   XCENC  =       982.53731022
  PAW double counting   =      9000.30529238    -9089.18527416
  entropy T*S    EENTRO =        -0.03558533
  eigenvalues    EBANDS =     -4654.12373836
  atomic energy  EATOM  =     12065.75791449
  Solvation  Ediel_sol  =         0.00000000
  ---------------------------------------------------
  free energy    TOTEN  =      -703.81987570 eV

  energy without entropy =     -703.78429037  energy(sigma->0) =     -703.80208304


--------------------------------------------------------------------------------------------------------




--------------------------------------- Iteration      1(   5)  ---------------------------------------


     EDDAV:  cpu time   20.5402: real time   20.7764
       DOS:  cpu time    0.0010: real time    0.0010
    CHARGE:  cpu time    0.9964: real time    1.0116
    MIXING:  cpu time    0.0115: real time    0.0147
    --------------------------------------------
      LOOP:  cpu time   21.5490: real time   21.8037

 eigenvalue-minimisations  :  4056
 total energy-change (2. order) :-0.6252217E+00  (-0.6232224E+00)
 number of electron     292.9999997 magnetization       0.7754350
 augmentation part       11.6656662 magnetization       0.7580066

 Broyden mixing:
  rms(total) = 0.46558E+01    rms(broyden)= 0.46554E+01
  rms(prec ) = 0.54216E+01
  weight for this iteration     100.00

 Free energy of the ion-electron system (eV)
  ---------------------------------------------------
  alpha Z        PSCENC =       156.95040625
  Ewald energy   TEWEN  =     30374.43991131
  -Hartree energ DENC   =    -39540.46611250
  -exchange      EXHF   =         0.00000000
  -V(xc)+E(xc)   XCENC  =       982.53731022
  PAW double counting   =      9000.30529238    -9089.18527416
  entropy T*S    EENTRO =        -0.03591615
  eigenvalues    EBANDS =     -4654.74862920
  atomic energy  EATOM  =     12065.75791449
  Solvation  Ediel_sol  =         0.00000000
  ---------------------------------------------------
  free energy    TOTEN  =      -704.44509736 eV

  energy without entropy =     -704.40918121  energy(sigma->0) =     -704.42713928


--------------------------------------------------------------------------------------------------------




--------------------------------------- Iteration      1(   6)  ---------------------------------------


    POTLOK:  cpu time    0.5249: real time    0.5375
    SETDIJ:  cpu time    0.0147: real time    0.0156
    EDDIAG:  cpu time    3.3040: real time    3.3407
  RMM-DIIS:  cpu time   17.7473: real time   17.8928
    ORTHCH:  cpu time    0.3928: real time    0.3938
       DOS:  cpu time    0.0009: real time    0.0009
    CHARGE:  cpu time    0.9895: real time    1.0046
    MIXING:  cpu time    0.0091: real time    0.0101
    --------------------------------------------
      LOOP:  cpu time   22.9832: real time   23.1961

 eigenvalue-minimisations  :  4102
 total energy-change (2. order) :-0.2735524E+02  (-0.5323433E+02)
 number of electron     293.0000006 magnetization       0.7212759
 augmentation part       17.3261438 magnetization       0.9188303

 Broyden mixing:
  rms(total) = 0.83509E+01    rms(broyden)= 0.83508E+01
  rms(prec ) = 0.92296E+01
  weight for this iteration     100.00

 eigenvalues of (default mixing * dielectric matrix)
  average eigenvalue GAMMA=   0.2180
  0.2180

 Free energy of the ion-electron system (eV)
  ---------------------------------------------------
  alpha Z        PSCENC =       156.95040625
  Ewald energy   TEWEN  =     30374.43991131
  -Hartree energ DENC   =    -39832.89280543
  -exchange      EXHF   =         0.00000000
  -V(xc)+E(xc)   XCENC  =       996.32203084
  PAW double counting   =     15150.54170987   -15239.25379791
  entropy T*S    EENTRO =        -0.04210756
  eigenvalues    EBANDS =     -4403.62359524
  atomic energy  EATOM  =     12065.75791449
  Solvation  Ediel_sol  =         0.00000000
  ---------------------------------------------------
  free energy    TOTEN  =      -731.80033338 eV

  energy without entropy =     -731.75822582  energy(sigma->0) =     -731.77927960


--------------------------------------------------------------------------------------------------------




--------------------------------------- Iteration      1(   7)  ---------------------------------------


    POTLOK:  cpu time    0.5473: real time    0.5602
    SETDIJ:  cpu time    0.0145: real time    0.0148
    EDDIAG:  cpu time    3.2408: real time    3.2689
  RMM-DIIS:  cpu time   13.3548: real time   13.4620
    ORTHCH:  cpu time    0.3428: real time    0.3435
       DOS:  cpu time    0.0008: real time    0.0008
    CHARGE:  cpu time    0.9596: real time    0.9744
    MIXING:  cpu time    0.0092: real time    0.0098
    --------------------------------------------
      LOOP:  cpu time   18.4696: real time   18.6346

 eigenvalue-minimisations  :  3052
 total energy-change (2. order) : 0.6950661E+02  (-0.5710488E+01)
 number of electron     293.0000004 magnetization       0.6171126
 augmentation part       15.2532173 magnetization       0.6255512

 Broyden mixing:
  rms(total) = 0.31904E+01    rms(broyden)= 0.31903E+01
  rms(prec ) = 0.38334E+01
  weight for this iteration     100.00

 eigenvalues of (default mixing * dielectric matrix)
  average eigenvalue GAMMA=   0.4658
  0.4658  0.4658

 Free energy of the ion-electron system (eV)
  ---------------------------------------------------
  alpha Z        PSCENC =       156.95040625
  Ewald energy   TEWEN  =     30374.43991131
  -Hartree energ DENC   =    -39955.35839984
  -exchange      EXHF   =         0.00000000
  -V(xc)+E(xc)   XCENC  =      1000.88745051
  PAW double counting   =     16749.60062270   -16845.15438478
  entropy T*S    EENTRO =        -0.00004046
  eigenvalues    EBANDS =     -4209.41720745
  atomic energy  EATOM  =     12065.75791449
  Solvation  Ediel_sol  =         0.00000000
  ---------------------------------------------------
  free energy    TOTEN  =      -662.29372727 eV

  energy without entropy =     -662.29368681  energy(sigma->0) =     -662.29370704


--------------------------------------------------------------------------------------------------------




--------------------------------------- Iteration      1(   8)  ---------------------------------------


    POTLOK:  cpu time    0.5596: real time    0.5642
    SETDIJ:  cpu time    0.0147: real time    0.0148
    EDDIAG:  cpu time    3.2401: real time    3.2633
  RMM-DIIS:  cpu time   13.5311: real time   13.6462
    ORTHCH:  cpu time    0.4635: real time    0.4786
       DOS:  cpu time    0.0010: real time    0.0010
    CHARGE:  cpu time    0.9784: real time    0.9906
    MIXING:  cpu time    0.0099: real time    0.0102
    --------------------------------------------
      LOOP:  cpu time   18.7984: real time   18.9690

 eigenvalue-minimisations  :  3123
 total energy-change (2. order) :-0.3415311E-01  (-0.2180907E+01)
 number of electron     292.9999998 magnetization       0.3500413
 augmentation part       11.2324094 magnetization       0.3070102

 Broyden mixing:
  rms(total) = 0.28312E+01    rms(broyden)= 0.28309E+01
  rms(prec ) = 0.34751E+01
  weight for this iteration     100.00

 eigenvalues of (default mixing * dielectric matrix)
  average eigenvalue GAMMA=   0.8510
  1.8712  0.3408  0.3408

 Free energy of the ion-electron system (eV)
  ---------------------------------------------------
  alpha Z        PSCENC =       156.95040625
  Ewald energy   TEWEN  =     30374.43991131
  -Hartree energ DENC   =    -40135.82778204
  -exchange      EXHF   =         0.00000000
  -V(xc)+E(xc)   XCENC  =      1007.59984752
  PAW double counting   =     19658.85368961   -19758.40282950
  entropy T*S    EENTRO =        -0.02619672
  eigenvalues    EBANDS =     -4031.67284131
  atomic energy  EATOM  =     12065.75791449
  Solvation  Ediel_sol  =         0.00000000
  ---------------------------------------------------
  free energy    TOTEN  =      -662.32788039 eV

  energy without entropy =     -662.30168366  energy(sigma->0) =     -662.31478202


--------------------------------------------------------------------------------------------------------




--------------------------------------- Iteration      1(   9)  ---------------------------------------


    POTLOK:  cpu time    0.5240: real time    0.5292
    SETDIJ:  cpu time    0.0148: real time    0.0151
    EDDIAG:  cpu time    3.2192: real time    3.2470
  RMM-DIIS:  cpu time   13.0868: real time   13.1835
    ORTHCH:  cpu time    0.4743: real time    0.4822
       DOS:  cpu time    0.0009: real time    0.0009
    CHARGE:  cpu time    0.9754: real time    0.9866
    MIXING:  cpu time    0.0115: real time    0.0116
    --------------------------------------------
      LOOP:  cpu time   18.3069: real time   18.4561

 eigenvalue-minimisations  :  2968
 total energy-change (2. order) : 0.1516428E+02  (-0.2002282E+01)
 number of electron     293.0000001 magnetization       0.2638313
 augmentation part       12.1964970 magnetization       0.2768218

 Broyden mixing:
  rms(total) = 0.11511E+01    rms(broyden)= 0.11509E+01
  rms(prec ) = 0.12953E+01
  weight for this iteration     100.00

 eigenvalues of (default mixing * dielectric matrix)
  average eigenvalue GAMMA=   0.9112
  2.2118  0.7284  0.3523  0.3523

 Free energy of the ion-electron system (eV)
  ---------------------------------------------------
  alpha Z        PSCENC =       156.95040625
  Ewald energy   TEWEN  =     30374.43991131
  -Hartree energ DENC   =    -40439.03253151
  -exchange      EXHF   =         0.00000000
  -V(xc)+E(xc)   XCENC  =      1020.37055079
  PAW double counting   =     27794.61895835   -27896.90159159
  entropy T*S    EENTRO =        -0.00743349
  eigenvalues    EBANDS =     -3723.35978021
  atomic energy  EATOM  =     12065.75791449
  Solvation  Ediel_sol  =         0.00000000
  ---------------------------------------------------
  free energy    TOTEN  =      -647.16359561 eV

  energy without entropy =     -647.15616212  energy(sigma->0) =     -647.15987886


--------------------------------------------------------------------------------------------------------




--------------------------------------- Iteration      1(  10)  ---------------------------------------


    POTLOK:  cpu time    0.5548: real time    0.5591
    SETDIJ:  cpu time    0.0146: real time    0.0146
    EDDIAG:  cpu time    3.2403: real time    3.2666
  RMM-DIIS:  cpu time   13.1746: real time   13.2845
    ORTHCH:  cpu time    0.6750: real time    0.6766
       DOS:  cpu time    0.0009: real time    0.0009
    CHARGE:  cpu time    0.9745: real time    0.9866
    MIXING:  cpu time    0.0120: real time    0.0121
    --------------------------------------------
      LOOP:  cpu time   18.6467: real time   18.8011

 eigenvalue-minimisations  :  2997
 total energy-change (2. order) :-0.4673322E+00  (-0.3048609E+00)
 number of electron     293.0000004 magnetization       0.2095805
 augmentation part       13.7635815 magnetization       0.2337987

 Broyden mixing:
  rms(total) = 0.14411E+01    rms(broyden)= 0.14407E+01
  rms(prec ) = 0.17954E+01
  weight for this iteration     100.00

 eigenvalues of (default mixing * dielectric matrix)
  average eigenvalue GAMMA=   0.9185
  2.3357  1.0776  0.3484  0.3484  0.4823

 Free energy of the ion-electron system (eV)
  ---------------------------------------------------
  alpha Z        PSCENC =       156.95040625
  Ewald energy   TEWEN  =     30374.43991131
  -Hartree energ DENC   =    -40483.32282795
  -exchange      EXHF   =         0.00000000
  -V(xc)+E(xc)   XCENC  =      1021.35265148
  PAW double counting   =     29320.26458461   -29421.44199255
  entropy T*S    EENTRO =        -0.00269843
  eigenvalues    EBANDS =     -3681.62887702
  atomic energy  EATOM  =     12065.75791449
  Solvation  Ediel_sol  =         0.00000000
  ---------------------------------------------------
  free energy    TOTEN  =      -647.63092782 eV

  energy without entropy =     -647.62822939  energy(sigma->0) =     -647.62957860


--------------------------------------------------------------------------------------------------------




--------------------------------------- Iteration      1(  11)  ---------------------------------------


    POTLOK:  cpu time    0.5311: real time    0.5355
    SETDIJ:  cpu time    0.0146: real time    0.0147
    EDDIAG:  cpu time    3.2455: real time    3.2717
  RMM-DIIS:  cpu time   13.5110: real time   13.6140
    ORTHCH:  cpu time    0.4957: real time    0.4970
       DOS:  cpu time    0.0010: real time    0.0010
    CHARGE:  cpu time    0.9644: real time    0.9768
    MIXING:  cpu time    0.0105: real time    0.0111
    --------------------------------------------
      LOOP:  cpu time   18.7737: real time   18.9220

 eigenvalue-minimisations  :  3115
 total energy-change (2. order) : 0.1056887E+01  (-0.4085236E-01)
 number of electron     293.0000002 magnetization       0.1486232
 augmentation part       12.5356630 magnetization       0.1173725

 Broyden mixing:
  rms(total) = 0.76208E+00    rms(broyden)= 0.76151E+00
  rms(prec ) = 0.81197E+00
  weight for this iteration     100.00

 eigenvalues of (default mixing * dielectric matrix)
  average eigenvalue GAMMA=   0.9724
  2.0701  2.0701  0.6371  0.3463  0.3463  0.3646

 Free energy of the ion-electron system (eV)
  ---------------------------------------------------
  alpha Z        PSCENC =       156.95040625
  Ewald energy   TEWEN  =     30374.43991131
  -Hartree energ DENC   =    -40516.58705576
  -exchange      EXHF   =         0.00000000
  -V(xc)+E(xc)   XCENC  =      1021.79060293
  PAW double counting   =     29981.40454820   -30081.91463291
  entropy T*S    EENTRO =        -0.03390679
  eigenvalues    EBANDS =     -3648.38182902
  atomic energy  EATOM  =     12065.75791449
  Solvation  Ediel_sol  =         0.00000000
  ---------------------------------------------------
  free energy    TOTEN  =      -646.57404129 eV

  energy without entropy =     -646.54013451  energy(sigma->0) =     -646.55708790


--------------------------------------------------------------------------------------------------------




--------------------------------------- Iteration      1(  12)  ---------------------------------------


    POTLOK:  cpu time    0.5550: real time    0.5602
    SETDIJ:  cpu time    0.0142: real time    0.0150
    EDDIAG:  cpu time    3.2503: real time    3.2764
  RMM-DIIS:  cpu time   12.9124: real time   13.0019
    ORTHCH:  cpu time    0.5432: real time    0.5442
       DOS:  cpu time    0.0010: real time    0.0010
    CHARGE:  cpu time    0.9640: real time    0.9726
    MIXING:  cpu time    0.0128: real time    0.0129
    --------------------------------------------
      LOOP:  cpu time   18.2529: real time   18.3842

 eigenvalue-minimisations  :  2944
 total energy-change (2. order) : 0.1143345E+00  (-0.1676422E-01)
 number of electron     293.0000002 magnetization       0.1638428
 augmentation part       12.9153381 magnetization      -0.2355461

 Broyden mixing:
  rms(total) = 0.67955E+00    rms(broyden)= 0.67926E+00
  rms(prec ) = 0.70441E+00
  weight for this iteration     100.00

 eigenvalues of (default mixing * dielectric matrix)
  average eigenvalue GAMMA=   0.8530
  2.1063  2.1063  0.5726  0.3471  0.3471  0.3683  0.1234

 Free energy of the ion-electron system (eV)
  ---------------------------------------------------
  alpha Z        PSCENC =       156.95040625
  Ewald energy   TEWEN  =     30374.43991131
  -Hartree energ DENC   =    -40542.92057017
  -exchange      EXHF   =         0.00000000
  -V(xc)+E(xc)   XCENC  =      1021.38084747
  PAW double counting   =     30433.85839364   -30532.82547876
  entropy T*S    EENTRO =        -0.04581313
  eigenvalues    EBANDS =     -3623.05531793
  atomic energy  EATOM  =     12065.75791449
  Solvation  Ediel_sol  =         0.00000000
  ---------------------------------------------------
  free energy    TOTEN  =      -646.45970683 eV

  energy without entropy =     -646.41389370  energy(sigma->0) =     -646.43680026


--------------------------------------------------------------------------------------------------------




--------------------------------------- Iteration      1(  13)  ---------------------------------------


    POTLOK:  cpu time    0.5475: real time    0.5570
    SETDIJ:  cpu time    0.0146: real time    0.0149
    EDDIAG:  cpu time    3.2231: real time    3.2463
  RMM-DIIS:  cpu time   13.0399: real time   13.1257
    ORTHCH:  cpu time    0.4442: real time    0.4454
       DOS:  cpu time    0.0010: real time    0.0010
    CHARGE:  cpu time    0.9964: real time    1.0076
    MIXING:  cpu time    0.0128: real time    0.0128
    --------------------------------------------
      LOOP:  cpu time   18.2794: real time   18.4108

 eigenvalue-minimisations  :  3001
 total energy-change (2. order) :-0.7956797E-01  (-0.2496965E-02)
 number of electron     293.0000002 magnetization       0.0659567
 augmentation part       12.9406242 magnetization      -0.4132673

 Broyden mixing:
  rms(total) = 0.72571E+00    rms(broyden)= 0.72567E+00
  rms(prec ) = 0.75281E+00
  weight for this iteration     100.00

 eigenvalues of (default mixing * dielectric matrix)
  average eigenvalue GAMMA=   0.8551
  2.1668  2.1668  0.6672  0.3473  0.3473  0.4705  0.3214  0.3538

 Free energy of the ion-electron system (eV)
  ---------------------------------------------------
  alpha Z        PSCENC =       156.95040625
  Ewald energy   TEWEN  =     30374.43991131
  -Hartree energ DENC   =    -40544.45815598
  -exchange      EXHF   =         0.00000000
  -V(xc)+E(xc)   XCENC  =      1021.39586665
  PAW double counting   =     30437.06314714   -30535.95232039
  entropy T*S    EENTRO =        -0.02914340
  eigenvalues    EBANDS =     -3621.70690087
  atomic energy  EATOM  =     12065.75791449
  Solvation  Ediel_sol  =         0.00000000
  ---------------------------------------------------
  free energy    TOTEN  =      -646.53927480 eV

  energy without entropy =     -646.51013140  energy(sigma->0) =     -646.52470310


--------------------------------------------------------------------------------------------------------




--------------------------------------- Iteration      1(  14)  ---------------------------------------


    POTLOK:  cpu time    0.5284: real time    0.5324
    SETDIJ:  cpu time    0.0150: real time    0.0151
    EDDIAG:  cpu time    3.2137: real time    3.2366
  RMM-DIIS:  cpu time   13.0490: real time   13.1424
    ORTHCH:  cpu time    0.5291: real time    0.5311
       DOS:  cpu time    0.0010: real time    0.0010
    CHARGE:  cpu time    1.0216: real time    1.0348
    MIXING:  cpu time    0.0124: real time    0.0125
    --------------------------------------------
      LOOP:  cpu time   18.3703: real time   18.5061

 eigenvalue-minimisations  :  2967
 total energy-change (2. order) : 0.1774905E+00  (-0.2521569E-02)
 number of electron     293.0000002 magnetization       0.0908791
 augmentation part       12.9820877 magnetization      -0.2752329

 Broyden mixing:
  rms(total) = 0.70930E+00    rms(broyden)= 0.70928E+00
  rms(prec ) = 0.74635E+00
  weight for this iteration     100.00

 eigenvalues of (default mixing * dielectric matrix)
  average eigenvalue GAMMA=   0.8330
  2.2199  2.2199  0.4362  0.4362  0.6861  0.3467  0.3467  0.4750  0.3301

 Free energy of the ion-electron system (eV)
  ---------------------------------------------------
  alpha Z        PSCENC =       156.95040625
  Ewald energy   TEWEN  =     30374.43991131
  -Hartree energ DENC   =    -40547.74240147
  -exchange      EXHF   =         0.00000000
  -V(xc)+E(xc)   XCENC  =      1021.40356709
  PAW double counting   =     30526.95561265   -30625.70509659
  entropy T*S    EENTRO =        -0.05055377
  eigenvalues    EBANDS =     -3618.37114423
  atomic energy  EATOM  =     12065.75791449
  Solvation  Ediel_sol  =         0.00000000
  ---------------------------------------------------
  free energy    TOTEN  =      -646.36178425 eV

  energy without entropy =     -646.31123049  energy(sigma->0) =     -646.33650737


--------------------------------------------------------------------------------------------------------




--------------------------------------- Iteration      1(  15)  ---------------------------------------


    POTLOK:  cpu time    0.5268: real time    0.5365
    SETDIJ:  cpu time    0.0205: real time    0.0207
    EDDIAG:  cpu time    3.2204: real time    3.2436
  RMM-DIIS:  cpu time   13.7121: real time   13.8186
    ORTHCH:  cpu time    0.4553: real time    0.4563
       DOS:  cpu time    0.0010: real time    0.0010
    CHARGE:  cpu time    0.9763: real time    0.9854
    MIXING:  cpu time    0.0124: real time    0.0124
    --------------------------------------------
      LOOP:  cpu time   18.9249: real time   19.0746

 eigenvalue-minimisations  :  3134
 total energy-change (2. order) :-0.3365811E-01  (-0.2840831E-03)
 number of electron     293.0000002 magnetization       0.0433752
 augmentation part       12.9821877 magnetization      -0.3258103

 Broyden mixing:
  rms(total) = 0.70985E+00    rms(broyden)= 0.70985E+00
  rms(prec ) = 0.74675E+00
  weight for this iteration     100.00

 eigenvalues of (default mixing * dielectric matrix)
  average eigenvalue GAMMA=   0.7516
  2.2199  2.2199  0.6859  0.4748  0.3467  0.3467  0.3300  0.4415  0.4415  0.0094

 Free energy of the ion-electron system (eV)
  ---------------------------------------------------
  alpha Z        PSCENC =       156.95040625
  Ewald energy   TEWEN  =     30374.43991131
  -Hartree energ DENC   =    -40547.13626387
  -exchange      EXHF   =         0.00000000
  -V(xc)+E(xc)   XCENC  =      1021.38081431
  PAW double counting   =     30527.71464663   -30626.47077496
  entropy T*S    EENTRO =        -0.05050959
  eigenvalues    EBANDS =     -3618.98158694
  atomic energy  EATOM  =     12065.75791449
  Solvation  Ediel_sol  =         0.00000000
  ---------------------------------------------------
  free energy    TOTEN  =      -646.39544237 eV

  energy without entropy =     -646.34493278  energy(sigma->0) =     -646.37018757


--------------------------------------------------------------------------------------------------------




--------------------------------------- Iteration      1(  16)  ---------------------------------------


    POTLOK:  cpu time    0.5283: real time    0.5332
    SETDIJ:  cpu time    0.0205: real time    0.0207
    EDDIAG:  cpu time    3.3060: real time    3.3412
  RMM-DIIS:  cpu time   13.2169: real time   13.3105
    ORTHCH:  cpu time    0.4220: real time    0.4231
       DOS:  cpu time    0.0009: real time    0.0009
    CHARGE:  cpu time    0.9728: real time    0.9797
    MIXING:  cpu time    0.0138: real time    0.0140
    --------------------------------------------
      LOOP:  cpu time   18.4813: real time   18.6233

 eigenvalue-minimisations  :  3028
 total energy-change (2. order) : 0.2623603E-01  (-0.2925244E-03)
 number of electron     293.0000002 magnetization      -0.1454632
 augmentation part       12.9714998 magnetization      -0.4172906

 Broyden mixing:
  rms(total) = 0.62333E+00    rms(broyden)= 0.62332E+00
  rms(prec ) = 0.66156E+00
  weight for this iteration     100.00

 eigenvalues of (default mixing * dielectric matrix)
  average eigenvalue GAMMA=   0.8915
  2.2240  2.2240  0.8831  0.8834  0.8834  0.7392  0.3463  0.3463  0.5334  0.3343
  0.4092

 Free energy of the ion-electron system (eV)
  ---------------------------------------------------
  alpha Z        PSCENC =       156.95040625
  Ewald energy   TEWEN  =     30374.43991131
  -Hartree energ DENC   =    -40548.08939198
  -exchange      EXHF   =         0.00000000
  -V(xc)+E(xc)   XCENC  =      1021.38755520
  PAW double counting   =     30533.93140413   -30632.66844863
  entropy T*S    EENTRO =        -0.06237730
  eigenvalues    EBANDS =     -3618.01617980
  atomic energy  EATOM  =     12065.75791449
  Solvation  Ediel_sol  =         0.00000000
  ---------------------------------------------------
  free energy    TOTEN  =      -646.36920634 eV

  energy without entropy =     -646.30682904  energy(sigma->0) =     -646.33801769


--------------------------------------------------------------------------------------------------------




--------------------------------------- Iteration      1(  17)  ---------------------------------------


    POTLOK:  cpu time    0.5305: real time    0.5345
    SETDIJ:  cpu time    0.0147: real time    0.0148
    EDDIAG:  cpu time    3.2296: real time    3.2615
  RMM-DIIS:  cpu time   12.8157: real time   12.9033
    ORTHCH:  cpu time    0.2264: real time    0.2313
       DOS:  cpu time    0.0011: real time    0.0010
    CHARGE:  cpu time    0.9519: real time    0.9633
    MIXING:  cpu time    0.0126: real time    0.0130
    --------------------------------------------
      LOOP:  cpu time   17.7825: real time   17.9227

 eigenvalue-minimisations  :  2945
 total energy-change (2. order) :-0.1666978E-01  (-0.8678810E-02)
 number of electron     293.0000002 magnetization      -0.4070453
 augmentation part       12.9996128 magnetization      -0.6850293

 Broyden mixing:
  rms(total) = 0.51878E+00    rms(broyden)= 0.51871E+00
  rms(prec ) = 0.57718E+00
  weight for this iteration     100.00

 eigenvalues of (default mixing * dielectric matrix)
  average eigenvalue GAMMA=   0.8418
  2.2171  2.2171  0.9179  0.9477  0.9477  0.7278  0.3463  0.3463  0.5082  0.3412
  0.3791  0.2058

 Free energy of the ion-electron system (eV)
  ---------------------------------------------------
  alpha Z        PSCENC =       156.95040625
  Ewald energy   TEWEN  =     30374.43991131
  -Hartree energ DENC   =    -40566.27095019
  -exchange      EXHF   =         0.00000000
  -V(xc)+E(xc)   XCENC  =      1021.72564160
  PAW double counting   =     30510.36273792   -30609.10981734
  entropy T*S    EENTRO =        -0.06209327
  eigenvalues    EBANDS =     -3600.17962689
  atomic energy  EATOM  =     12065.75791449
  Solvation  Ediel_sol  =         0.00000000
  ---------------------------------------------------
  free energy    TOTEN  =      -646.38587612 eV

  energy without entropy =     -646.32378285  energy(sigma->0) =     -646.35482949


--------------------------------------------------------------------------------------------------------




--------------------------------------- Iteration      1(  18)  ---------------------------------------


    POTLOK:  cpu time    0.5637: real time    0.5680
    SETDIJ:  cpu time    0.0152: real time    0.0152
    EDDIAG:  cpu time    3.2307: real time    3.2526
  RMM-DIIS:  cpu time   12.9150: real time   13.0196
    ORTHCH:  cpu time    0.5522: real time    0.5536
       DOS:  cpu time    0.0010: real time    0.0010
    CHARGE:  cpu time    0.9600: real time    0.9676
    MIXING:  cpu time    0.0147: real time    0.0147
    --------------------------------------------
      LOOP:  cpu time   18.2524: real time   18.3924

 eigenvalue-minimisations  :  2956
 total energy-change (2. order) : 0.1936769E+00  (-0.3243274E-01)
 number of electron     293.0000002 magnetization      -0.4587474
 augmentation part       12.8672462 magnetization      -0.2480425

 Broyden mixing:
  rms(total) = 0.54751E+00    rms(broyden)= 0.54693E+00
  rms(prec ) = 0.56231E+00
  weight for this iteration     100.00

 eigenvalues of (default mixing * dielectric matrix)
  average eigenvalue GAMMA=   0.8439
  2.1736  2.1736  0.9619  0.9586  0.9586  0.6309  0.6309  0.5417  0.5417  0.3463
  0.3463  0.3324  0.3750

 Free energy of the ion-electron system (eV)
  ---------------------------------------------------
  alpha Z        PSCENC =       156.95040625
  Ewald energy   TEWEN  =     30374.43991131
  -Hartree energ DENC   =    -40587.89143155
  -exchange      EXHF   =         0.00000000
  -V(xc)+E(xc)   XCENC  =      1022.23854281
  PAW double counting   =     30441.91099733   -30540.63573664
  entropy T*S    EENTRO =        -0.05736688
  eigenvalues    EBANDS =     -3578.90543633
  atomic energy  EATOM  =     12065.75791449
  Solvation  Ediel_sol  =         0.00000000
  ---------------------------------------------------
  free energy    TOTEN  =      -646.19219921 eV

  energy without entropy =     -646.13483233  energy(sigma->0) =     -646.16351577


--------------------------------------------------------------------------------------------------------




--------------------------------------- Iteration      1(  19)  ---------------------------------------


    POTLOK:  cpu time    0.5255: real time    0.5329
    SETDIJ:  cpu time    0.0148: real time    0.0149
    EDDIAG:  cpu time    3.2408: real time    3.2649
  RMM-DIIS:  cpu time   13.2796: real time   13.3739
    ORTHCH:  cpu time    0.4563: real time    0.4662
       DOS:  cpu time    0.0010: real time    0.0010
    CHARGE:  cpu time    0.9792: real time    0.9916
    MIXING:  cpu time    0.0129: real time    0.0136
    --------------------------------------------
      LOOP:  cpu time   18.5101: real time   18.6588

 eigenvalue-minimisations  :  3014
 total energy-change (2. order) :-0.2519629E+00  (-0.6724823E-02)
 number of electron     293.0000002 magnetization      -0.5091959
 augmentation part       12.8973324 magnetization      -0.1611987

 Broyden mixing:
  rms(total) = 0.69105E+00    rms(broyden)= 0.69094E+00
  rms(prec ) = 0.70762E+00
  weight for this iteration     100.00

 eigenvalues of (default mixing * dielectric matrix)
  average eigenvalue GAMMA=   0.8167
  2.1454  2.1454  0.9689  0.9285  0.9285  0.7089  0.7089  0.6319  0.3461  0.3461
  0.4499  0.3318  0.3965  0.3965

 Free energy of the ion-electron system (eV)
  ---------------------------------------------------
  alpha Z        PSCENC =       156.95040625
  Ewald energy   TEWEN  =     30374.43991131
  -Hartree energ DENC   =    -40595.19894031
  -exchange      EXHF   =         0.00000000
  -V(xc)+E(xc)   XCENC  =      1022.30376544
  PAW double counting   =     30427.17445574   -30525.90084513
  entropy T*S    EENTRO =        -0.03415631
  eigenvalues    EBANDS =     -3571.93667362
  atomic energy  EATOM  =     12065.75791449
  Solvation  Ediel_sol  =         0.00000000
  ---------------------------------------------------
  free energy    TOTEN  =      -646.44416214 eV

  energy without entropy =     -646.41000583  energy(sigma->0) =     -646.42708398


--------------------------------------------------------------------------------------------------------




--------------------------------------- Iteration      1(  20)  ---------------------------------------


    POTLOK:  cpu time    0.5306: real time    0.5354
    SETDIJ:  cpu time    0.0150: real time    0.0150
    EDDIAG:  cpu time    3.2469: real time    3.2727
  RMM-DIIS:  cpu time   13.4948: real time   13.5920
    ORTHCH:  cpu time    0.3783: real time    0.3795
       DOS:  cpu time    0.0009: real time    0.0009
    CHARGE:  cpu time    0.9675: real time    0.9769
    MIXING:  cpu time    0.0153: real time    0.0154
    --------------------------------------------
      LOOP:  cpu time   18.6492: real time   18.7879

 eigenvalue-minimisations  :  3070
 total energy-change (2. order) :-0.5598498E-01  (-0.3471897E-02)
 number of electron     293.0000002 magnetization      -0.5223468
 augmentation part       12.8261053 magnetization      -0.1422262

 Broyden mixing:
  rms(total) = 0.61607E+00    rms(broyden)= 0.61606E+00
  rms(prec ) = 0.62280E+00
  weight for this iteration     100.00

 eigenvalues of (default mixing * dielectric matrix)
  average eigenvalue GAMMA=   0.8447
  2.1018  2.1018  0.9651  1.1610  1.1610  0.7294  0.7294  0.5828  0.5828  0.3462
  0.3462  0.5682  0.5682  0.3320  0.3946

 Free energy of the ion-electron system (eV)
  ---------------------------------------------------
  alpha Z        PSCENC =       156.95040625
  Ewald energy   TEWEN  =     30374.43991131
  -Hartree energ DENC   =    -40605.35182488
  -exchange      EXHF   =         0.00000000
  -V(xc)+E(xc)   XCENC  =      1022.44165877
  PAW double counting   =     30411.89262755   -30510.58611106
  entropy T*S    EENTRO =        -0.03456534
  eigenvalues    EBANDS =     -3562.01016422
  atomic energy  EATOM  =     12065.75791449
  Solvation  Ediel_sol  =         0.00000000
  ---------------------------------------------------
  free energy    TOTEN  =      -646.50014712 eV

  energy without entropy =     -646.46558178  energy(sigma->0) =     -646.48286445


[...]
  E(xc)   -1111.08093 -1110.72729 -1150.17799    -0.01574    -0.00160    -0.00087
  Local  -83754.26028-83762.10129 86098.57642     9.72025    14.46344    -2.34894
  n-local  -289.64169  -287.05906  -269.98850     0.16392     0.01230     0.03105
  augment    66.67030    64.81300    65.49552     0.02884     0.02815    -0.02030
  Kinetic  4384.10404  4370.26461  4985.79863     0.49280     0.43127    -0.11751
  Fock        0.00000     0.00000     0.00000     0.00000     0.00000     0.00000
  vdW        -1.50134    -1.65077    -0.04113    -0.00375     0.00001    -0.00076
  -------------------------------------------------------------------------------------
  Total       0.05036     0.12575    -0.74375    -0.06245     0.00058     0.01467
  in kB       0.02839     0.07089    -0.41926    -0.03521     0.00033     0.00827
  external pressure =       -0.11 kB  Pullay stress =        0.00 kB


 VOLUME and BASIS-vectors are now :
 -----------------------------------------------------------------------------
  energy-cutoff  :      550.00
  volume of cell :     2842.15
      direct lattice vectors                 reciprocal lattice vectors
    14.857142946  0.007480851  0.000000000     0.067287951  0.039205712  0.000000000
    -7.428571473 12.749503263  0.000000000    -0.000039482  0.078411424  0.000000000
     0.000000000  0.000000000 15.000000000     0.000000000  0.000000000  0.066666667

  length of vectors
    14.857144830 14.755795728 15.000000000     0.077876545  0.078411434  0.066666667


 FORCES acting on ions
    electron-ion (+dipol)            ewald-force                    non-local-force                 convergence-correction
 -----------------------------------------------------------------------------------------------
   -.149E+00 0.103E+01 0.790E+01   0.295E+00 -.106E+01 -.792E+01   -.139E+00 0.278E-01 0.252E-01   -.117E-04 -.306E-04 0.112E-04
   -.438E+01 -.114E+01 0.764E+01   0.463E+01 0.118E+01 -.766E+01   -.247E+00 -.441E-01 0.207E-01   0.148E-05 -.419E-04 0.438E-05
   0.483E+00 0.763E+00 0.740E+01   -.478E+00 -.648E+00 -.742E+01   -.849E-02 -.125E+00 0.248E-01   -.200E-04 -.282E-04 -.188E-06
   -.185E+01 0.359E+00 0.767E+01   0.190E+01 -.278E+00 -.768E+01   -.596E-01 -.884E-01 0.107E-01   -.300E-04 -.528E-05 0.695E-05
   0.193E+01 0.181E+01 0.665E+01   -.215E+01 -.167E+01 -.668E+01   0.216E+00 -.154E+00 0.190E-01   0.248E-04 -.616E-04 0.131E-04
   0.396E+01 -.786E+00 0.699E+01   -.419E+01 0.896E+00 -.700E+01   0.235E+00 -.115E+00 0.306E-02   0.111E-04 -.115E-04 0.247E-04
   0.847E+01 0.123E+01 0.782E+01   -.971E+01 -.850E+00 -.785E+01   0.126E+01 -.379E+00 0.232E-01   0.170E-03 -.211E-05 0.126E-04
   0.804E+01 -.417E+01 0.787E+01   -.883E+01 0.462E+01 -.791E+01   0.806E+00 -.456E+00 0.368E-01   0.160E-03 -.714E-04 0.116E-04
   -.176E+01 -.141E+01 0.930E+01   0.204E+01 0.105E+01 -.940E+01   -.277E+00 0.371E+00 0.108E+00   -.377E-04 0.425E-04 0.717E-05
   0.323E+00 -.267E+02 0.712E+01   -.313E+00 0.328E+02 -.715E+01   -.198E-01 -.605E+01 0.346E-01   -.223E-04 -.744E-04 -.915E-06
   -.816E+01 0.119E+01 0.740E+01   0.944E+01 -.884E+00 -.743E+01   -.129E+01 -.307E+00 0.330E-01   -.144E-03 -.490E-04 0.277E-04
   -.731E+01 -.518E+01 0.674E+01   0.802E+01 0.547E+01 -.676E+01   -.709E+00 -.276E+00 0.183E-01   -.133E-03 -.305E-04 0.152E-04
   -.152E+01 0.159E+01 0.685E+01   0.191E+01 -.139E+01 -.686E+01   -.395E+00 -.191E+00 0.124E-02   -.952E-04 -.327E-04 0.115E-04
   -.332E+00 0.203E+01 0.643E+01   0.483E+00 -.190E+01 -.645E+01   -.149E+00 -.124E+00 0.194E-01   -.725E-04 -.554E-04 0.112E-04
   0.169E+01 0.438E+01 0.874E+01   -.152E+01 -.423E+01 -.876E+01   -.176E+00 -.175E+00 0.276E-01   -.140E-04 -.539E-04 0.651E-05
   -.224E+01 0.629E+01 0.997E+01   0.277E+01 -.602E+01 -.101E+02   -.539E+00 -.273E+00 0.974E-01   0.555E-05 0.159E-05 0.363E-04
   0.481E+00 0.574E+01 0.733E+01   -.574E+00 -.532E+01 -.736E+01   0.999E-01 -.440E+00 0.275E-01   0.200E-04 -.107E-04 0.343E-04
   -.136E+00 0.671E+01 0.586E+01   0.960E-01 -.603E+01 -.550E+01   0.453E-01 -.687E+00 -.366E+00   0.263E-04 -.519E-05 0.927E-04
   0.202E+01 0.208E+01 0.846E+01   -.248E+01 -.171E+01 -.848E+01   0.465E+00 -.373E+00 0.223E-01   0.669E-04 -.115E-04 0.310E-04
   0.375E+01 0.606E+01 0.981E+01   -.435E+01 -.565E+01 -.989E+01   0.587E+00 -.413E+00 0.813E-01   -.134E-06 -.201E-05 0.656E-04
   0.325E+01 -.580E+01 0.770E+01   -.425E+01 0.669E+01 -.770E+01   0.100E+01 -.894E+00 0.354E-02   0.104E-03 -.129E-03 0.173E-05
   0.105E+01 -.107E+00 0.806E+01   -.114E+01 0.714E+00 -.808E+01   0.735E-01 -.590E+00 0.275E-01   0.522E-04 -.900E-04 0.111E-04
   -.492E+01 -.816E+01 0.598E+01   0.594E+01 0.904E+01 -.597E+01   -.101E+01 -.877E+00 -.126E-01   -.722E-04 -.836E-04 0.572E-05
   -.323E+01 -.386E+00 0.607E+01   0.325E+01 0.991E+00 -.610E+01   -.731E-02 -.596E+00 0.215E-01   -.199E-04 -.116E-03 0.957E-05
   0.181E+01 0.146E+01 0.525E+01   -.160E+01 -.130E+01 -.523E+01   -.194E+00 -.146E+00 -.250E-01   -.728E-04 -.942E-04 0.171E-04
   0.249E+01 0.342E+01 0.556E+01   -.242E+01 -.332E+01 -.559E+01   -.768E-01 -.911E-01 0.275E-01   -.556E-04 -.197E-04 0.206E-04
   0.316E+01 0.963E+01 0.686E+01   -.288E+01 -.959E+01 -.683E+01   -.282E+00 -.395E-01 -.278E-01   0.766E-05 0.382E-05 0.166E-04
   0.103E+02 0.681E+01 0.577E+01   -.100E+02 -.667E+01 -.588E+01   -.235E+00 -.133E+00 0.110E+00   0.631E-04 -.369E-04 0.199E-04
   -.455E+00 0.172E+02 0.124E+02   0.743E+00 -.162E+02 -.126E+02   -.298E+00 -.987E+00 0.222E+00   -.142E-04 0.315E-04 0.967E-04
   -.763E+01 0.356E+02 0.268E+02   0.138E+02 -.320E+02 -.259E+02   -.620E+01 -.355E+01 -.833E+00   -.230E-04 -.365E-04 0.111E-03
   0.205E+01 0.179E+02 0.111E+02   -.239E+01 -.169E+02 -.113E+02   0.346E+00 -.104E+01 0.215E+00   0.505E-04 -.142E-04 0.119E-03
   0.770E+01 0.345E+02 0.238E+02   -.139E+02 -.310E+02 -.229E+02   0.617E+01 -.356E+01 -.906E+00   0.427E-04 -.554E-05 0.161E-03
   -.437E+01 0.777E+01 0.796E+01   0.401E+01 -.762E+01 -.792E+01   0.367E+00 -.141E+00 -.368E-01   0.453E-04 -.920E-06 0.386E-04
   -.112E+02 0.604E+01 0.732E+01   0.109E+02 -.583E+01 -.743E+01   0.286E+00 -.201E+00 0.122E+00   0.111E-04 -.424E-04 0.505E-04
   -.115E+01 -.179E+01 0.667E+01   0.110E+01 0.206E+01 -.665E+01   0.414E-01 -.271E+00 -.197E-01   -.520E-05 -.986E-04 0.110E-04
   -.327E+01 0.363E+01 0.748E+01   0.323E+01 -.346E+01 -.752E+01   0.405E-01 -.178E+00 0.383E-01   -.162E-04 -.180E-04 0.142E-04
   -.461E+00 -.648E+00 0.628E+01   0.484E+00 0.732E+00 -.629E+01   -.104E-01 -.686E-01 0.971E-02   -.184E-04 0.330E-04 0.218E-04
   -.701E+00 -.347E+00 0.631E+01   0.671E+00 0.356E+00 -.632E+01   0.415E-01 -.131E-01 0.128E-01   -.546E-05 -.183E-04 0.181E-04
   0.613E+01 0.537E-01 0.410E+01   -.603E+01 -.530E-01 -.406E+01   -.104E+00 0.670E-02 -.376E-01   -.346E-04 -.780E-05 0.149E-04
   0.503E+01 0.543E+00 0.413E+01   -.502E+01 -.615E+00 -.410E+01   0.125E-02 0.714E-01 -.344E-01   0.605E-05 0.411E-04 0.178E-04
   0.253E+02 0.105E+02 0.138E+02   -.244E+02 -.110E+02 -.144E+02   -.878E+00 0.526E+00 0.567E+00   0.123E-04 -.579E-04 0.519E-04
   0.248E+02 -.710E+01 0.141E+02   -.239E+02 0.739E+01 -.146E+02   -.837E+00 -.294E+00 0.544E+00   0.263E-04 0.917E-04 0.437E-04
   -.251E+02 0.817E+01 0.133E+02   0.242E+02 -.860E+01 -.138E+02   0.854E+00 0.443E+00 0.555E+00   0.215E-05 -.274E-04 0.124E-03
   -.246E+02 -.773E+01 0.137E+02   0.238E+02 0.814E+01 -.143E+02   0.805E+00 -.415E+00 0.538E+00   -.391E-04 0.697E-04 0.141E-03
   -.441E+01 -.466E-01 0.672E+01   0.430E+01 0.114E+00 -.669E+01   0.878E-01 -.582E-01 -.265E-01   0.234E-05 -.204E-04 0.171E-04
   -.478E+01 -.986E+00 0.663E+01   0.471E+01 0.101E+01 -.660E+01   0.464E-01 -.237E-01 -.266E-01   -.180E-04 0.319E-04 0.203E-04
   -.292E+01 -.450E+01 0.740E+01   0.288E+01 0.451E+01 -.744E+01   0.376E-01 -.141E-01 0.366E-01   -.106E-04 -.193E-04 0.979E-05
   -.159E+01 -.302E+01 0.661E+01   0.153E+01 0.303E+01 -.659E+01   0.475E-01 0.648E-04 -.175E-01   -.250E-04 0.352E-04 0.522E-05
   0.458E+01 -.318E+01 0.555E+01   -.457E+01 0.313E+01 -.558E+01   -.215E-01 0.234E-01 0.271E-01   -.658E-04 -.360E-04 0.170E-04
   0.236E+01 -.309E+01 0.515E+01   -.246E+01 0.304E+01 -.513E+01   0.110E+00 0.613E-01 -.237E-01   0.821E-06 0.734E-04 0.125E-04
   0.133E+02 -.554E+01 0.622E+01   -.131E+02 0.521E+01 -.634E+01   -.173E+00 0.318E+00 0.111E+00   0.335E-04 0.724E-04 0.253E-04
   0.471E+01 -.623E+01 0.710E+01   -.503E+01 0.593E+01 -.707E+01   0.322E+00 0.270E+00 -.323E-01   0.723E-04 0.691E-04 0.229E-04
   -.702E+01 -.295E+02 0.256E+02   0.133E+02 0.255E+02 -.247E+02   -.627E+01 0.405E+01 -.868E+00   0.365E-04 0.111E-03 0.805E-04
   -.118E+01 -.105E+02 0.115E+02   0.144E+01 0.857E+01 -.117E+02   -.271E+00 0.191E+01 0.203E+00   0.143E-04 0.981E-04 0.583E-04
   0.615E+01 -.328E+02 0.247E+02   -.123E+02 0.290E+02 -.238E+02   0.619E+01 0.379E+01 -.875E+00   0.113E-04 0.750E-04 0.187E-03
   -.261E+00 -.146E+02 0.112E+02   0.519E+00 0.133E+02 -.115E+02   -.258E+00 0.134E+01 0.246E+00   -.383E-04 0.661E-04 0.126E-03
   -.125E+02 -.571E+01 0.763E+01   0.123E+02 0.555E+01 -.775E+01   0.236E+00 0.138E+00 0.124E+00   0.166E-04 0.203E-05 0.653E-04
   -.555E+01 -.935E+01 0.799E+01   0.547E+01 0.930E+01 -.796E+01   0.822E-01 0.444E-01 -.309E-01   -.251E-04 0.137E-04 0.506E-04
   -.233E+01 -.250E+01 0.796E+01   0.235E+01 0.252E+01 -.799E+01   -.149E-03 -.285E-01 0.316E-01   0.143E-04 -.840E-05 0.129E-04
   -.247E+01 -.470E+01 0.769E+01   0.259E+01 0.472E+01 -.770E+01   -.125E+00 -.114E-01 0.434E-02   -.420E-04 0.214E-04 0.379E-05
   0.850E+00 -.198E+01 0.607E+01   -.923E+00 0.200E+01 -.609E+01   0.605E-01 -.300E-01 0.230E-01   -.118E-04 0.169E-04 0.424E-05
   0.236E+00 -.269E+01 0.602E+01   -.343E+00 0.272E+01 -.600E+01   0.112E+00 -.241E-01 -.165E-01   0.398E-04 0.343E-06 0.444E-05
   0.611E+01 -.125E+01 0.647E+01   -.631E+01 0.114E+01 -.650E+01   0.206E+00 0.111E+00 0.213E-01   0.373E-04 0.672E-04 0.152E-04
   0.562E+01 -.446E+01 0.688E+01   -.621E+01 0.422E+01 -.689E+01   0.563E+00 0.243E+00 0.492E-02   0.536E-04 0.995E-05 0.145E-04
   0.525E+01 0.254E+01 0.105E+02   -.497E+01 -.417E+01 -.105E+02   -.280E+00 0.162E+01 0.590E-01   0.737E-04 0.132E-03 0.277E-04
   0.254E+02 0.768E+01 0.890E+01   -.306E+02 -.109E+02 -.894E+01   0.524E+01 0.325E+01 0.380E-01   0.783E-04 0.701E-04 0.139E-04
   -.641E+01 0.237E+01 0.523E+01   0.669E+01 -.444E+01 -.481E+01   -.276E+00 0.207E+01 -.422E+00   -.452E-05 0.111E-03 0.719E-04
   -.234E+02 0.644E+01 0.669E+01   0.287E+02 -.997E+01 -.663E+01   -.526E+01 0.354E+01 -.528E-01   -.368E-04 0.343E-04 0.295E-04
   -.174E+01 -.507E+01 0.988E+01   0.148E+01 0.466E+01 -.997E+01   0.255E+00 0.421E+00 0.793E-01   -.963E-04 0.453E-04 0.761E-04
   -.591E+01 -.511E+01 0.842E+01   0.641E+01 0.466E+01 -.844E+01   -.481E+00 0.461E+00 0.173E-01   -.870E-04 -.286E-04 0.364E-04
   -.108E+01 0.447E+01 -.633E+03   0.106E+01 -.452E+01 0.615E+03   0.371E-01 0.593E-01 0.182E+02   0.337E-03 0.301E-03 0.888E-03
 -----------------------------------------------------------------------------------------------
   0.173E+00 -.204E+00 -.182E+02   -.775E-13 0.421E-12 0.000E+00   -.182E+00 0.212E+00 0.182E+02   0.312E-03 0.186E-03 0.346E-02
 
 
 POSITION                                       TOTAL-FORCE (eV/Angst)
 -----------------------------------------------------------------------------------
     -0.00389     -0.00211      7.46459         0.008554      0.004062      0.000065
     -0.00016      1.41835      7.46584         0.005172     -0.005763      0.000463
      2.48120      0.02589      7.46292        -0.003341     -0.009401     -0.001403
      2.47949      1.44658      7.47354        -0.007602     -0.006651      0.002258
      4.95776      0.02820      7.46582        -0.000322     -0.014599     -0.004703
      4.95425      1.44598      7.47558        -0.002897     -0.004373     -0.000718
      7.44297      0.00424      7.46563         0.017824      0.002943     -0.001351
      7.42797      1.42424      7.46488         0.014751     -0.015024      0.000793
      2.48001     12.72628      7.47447        -0.000096      0.011716      0.006065
      9.90971      1.38465      7.46449        -0.009136      0.020517      0.003006
      4.94122     12.73163      7.47487        -0.012629      0.001178      0.000427
     12.38155      1.39842      7.46579        -0.007349      0.008126     -0.003952
     13.61244      2.11625      7.46714         0.000730      0.008450     -0.004583
     -1.24962      3.52933      7.47726         0.002254      0.000915     -0.001296
      1.23816      2.14403      7.47545        -0.003698     -0.016905      0.002055
      1.23610      3.56764      7.50119        -0.001516      0.004827     -0.001655
      3.71671      2.17102      7.49101         0.007983     -0.018127     -0.000388
      3.71601      3.59040      7.53801         0.005163      0.006454     -0.005374
      6.19713      2.14464      7.47592        -0.000072      0.000705     -0.000908
      6.19853      3.57080      7.50088        -0.012644     -0.002536     -0.001740
      8.67958      2.10270      7.46344         0.005121     -0.005789      0.002594
      8.68573      3.52560      7.47032        -0.021118      0.017285      0.004500
     11.13966      2.09546      7.46458        -0.000967     -0.001311     -0.000396
     11.13736      3.52259      7.46624         0.019051      0.009245     -0.003338
     12.37271      4.23933      7.47454         0.006426      0.003006     -0.005664
     -2.48874      5.65636      7.48131        -0.001836      0.006906     -0.006235
     -0.01739      4.24633      7.50025         0.000336     -0.001720      0.003495
     -0.04210      5.66265      7.52582         0.017439     -0.001522      0.003648
      2.47424      4.31063      7.55069         0.002370      0.009860      0.002342
      2.42921      5.72694      7.64022         0.014060      0.000290      0.007638
      4.96164      4.31221      7.55421        -0.002121     -0.014587     -0.000571
      5.00522      5.72458      7.64668        -0.009491     -0.007689      0.001889
      7.45026      4.24467      7.49469         0.005915      0.004493      0.006168
      7.47260      5.66323      7.51877        -0.010138      0.003787      0.008182
      9.91374      4.23839      7.46851        -0.006378      0.002630     -0.000855
      9.91927      5.66466      7.47366        -0.002872     -0.001804     -0.000535
     -3.71359      6.37199      7.47403         0.013343      0.013494     -0.006325
     -3.71340      7.79436      7.47395         0.011270     -0.002558     -0.005275
     -1.26743      6.37421      7.50429        -0.004134      0.005828     -0.001797
     -1.26642      7.79834      7.50402         0.010202      0.001060     -0.003086
      1.17932      6.37268      7.57850         0.008321     -0.005446      0.002908
      1.17769      7.80476      7.57797         0.010715      0.008281      0.005137
      6.25377      6.37201      7.57838        -0.013800      0.007817      0.001878
      6.25069      7.80922      7.57709        -0.022083      0.001158     -0.001402
      8.70023      6.37887      7.49321        -0.018184      0.006767      0.007447
      8.69908      7.80003      7.49323        -0.023180      0.004144      0.005723
     -4.93768      8.50788      7.47372         0.000514     -0.007934      0.000262
     -4.94391      9.93188      7.46848        -0.011406      0.010671     -0.000732
     -2.48593      8.51116      7.48128        -0.011466     -0.028596     -0.006805
     -2.47992      9.93274      7.47462         0.011446      0.009031     -0.006426
     -0.03776      8.51497      7.52486         0.012570     -0.004866      0.000188
     -0.01266      9.93485      7.49934         0.002374     -0.024074     -0.000138
      2.43052      8.45305      7.64254         0.020724     -0.024710      0.016178
      2.47266      9.85806      7.55325         0.004872      0.026683      0.006453
      4.99957      8.45815      7.64423        -0.010877     -0.008299     -0.007775
      4.95608      9.87333      7.55286        -0.012938     -0.011741     -0.001008
      7.47002      8.51471      7.51780        -0.002734     -0.022435      0.003831
      7.44529      9.93043      7.49429        -0.003913      0.004913      0.000881
     -6.17890     10.63934      7.47028         0.013362     -0.008233      0.001544
     -6.18488     12.05686      7.46295        -0.008221      0.003859     -0.000886
     -3.71151     10.64522      7.46605        -0.012249     -0.004467     -0.003918
     -3.71044     12.06600      7.46403         0.005277      0.005752     -0.003639
     -1.24334     10.64231      7.47702         0.007095      0.002492     -0.004926
     -1.23218     12.05855      7.46707        -0.024866      0.001066     -0.005603
      1.24714     10.61468      7.50033         0.005513      0.002455     -0.000247
      1.25121     12.03231      7.47528        -0.019940      0.001217      0.002109
      3.70652     10.59499      7.53883         0.003824      0.002010      0.000912
      3.70328     12.00748      7.49205         0.012962      0.010063      0.004376
      6.19320     10.60868      7.50033        -0.009049      0.011714     -0.007363
      6.18392     12.02956      7.47592         0.023292      0.009327     -0.002924
      3.71716      7.08846      8.32860         0.014439      0.003966      0.000522
 -----------------------------------------------------------------------------------
    total drift:                               -0.009351      0.007389     -0.022584


--------------------------------------------------------------------------------------------------------



  FREE ENERGIE OF THE ION-ELECTRON SYSTEM (eV)
  ---------------------------------------------------
  free  energy   TOTEN  =      -653.46355672 eV

  energy  without entropy=     -653.43049588  energy(sigma->0) =     -653.44702630
 
 d Force = 0.4725882E-03[ 0.752E-04, 0.870E-03]  d Energy = 0.5457274E-03-0.731E-04
 d Force =-0.3572718E-01[-0.393E-01,-0.322E-01]  d Ewald  =-0.1175263E+02 0.117E+02


--------------------------------------------------------------------------------------------------------


    POTLOK:  cpu time    0.6015: real time    0.6045


--------------------------------------------------------------------------------------------------------


 Conjugate gradient step on ions:
 trial-energy change:   -0.000546  1 .order   -0.000549   -0.001050   -0.000049
  (g-gl).g = 0.139E-02      g.g   = 0.137E-02  gl.gl    = 0.269E-02
 g(Force)  = 0.105E-02   g(Stress)= 0.320E-03 ortho     =-0.356E-04
 gamma     =   0.51843
 trial     =   0.77914
 opt step  =   0.81707  (harmonic =   0.81707) maximal distance =0.00122510
 next E    =  -653.463562   (d E  =  -0.00055)


--------------------------------------------------------------------------------------------------------


  
 reached required accuracy - stopping structural energy minimisation
     LOOP+:  cpu time  165.4106: real time  166.7060
    4ORBIT:  cpu time    0.0000: real time    0.0000

 total amount of memory used by VASP MPI-rank0   135451. kBytes
=======================================================================

   base      :      30000. kBytes
   nonlr-proj:      10462. kBytes
   fftplans  :      14072. kBytes
   grid      :      39398. kBytes
   one-center:        186. kBytes
   wavefun   :      41333. kBytes
 
  
  
 General timing and accounting informations for this job:
 ========================================================
  
                  Total CPU time used (sec):     3440.000
                            User time (sec):     3407.289
                          System time (sec):       32.711
                         Elapsed time (sec):     3474.731
  
                   Maximum memory used (kb):      637140.
                   Average memory used (kb):           0.
  
                          Minor page faults:      6125645
                          Major page faults:           37
                 Voluntary context switches:        28555
