  71  71   0   0
  0.4004115E+02  0.1486155E-08  0.1475848E-08  0.1500000E-08  0.3000000E-15
  1.000000000000000E-004
  CAR 
 unknown system                          
      5.22985366    -48.02319078  301     -2.04197365      1.00000000
    -48.023  0.0000E+00  0.0000E+00  0.0000E+00  0.0000E+00
    -47.846  0.0000E+00  0.0000E+00  0.0000E+00  0.0000E+00
    -47.668  0.0000E+00  0.0000E+00  0.0000E+00  0.0000E+00
    -47.491  0.0000E+00  0.0000E+00  0.0000E+00  0.0000E+00
    -47.313  0.0000E+00  0.0000E+00  0.0000E+00  0.0000E+00
    -47.136  0.0000E+00  0.0000E+00  0.0000E+00  0.0000E+00
    -46.958  0.0000E+00  0.0000E+00  0.0000E+00  0.0000E+00
    -46.781  0.0000E+00  0.0000E+00  0.0000E+00  0.0000E+00
    -46.603  0.0000E+00  0.0000E+00  0.0000E+00  0.0000E+00
    -46.426  0.0000E+00  0.0000E+00  0.0000E+00  0.0000E+00
    -46.248  0.0000E+00  0.0000E+00  0.0000E+00  0.0000E+00
    -46.071  0.2557E-12  0.1605E-14  0.4539E-13  0.2850E-15
    -45.893  0.2810E-06  0.1006E-07  0.4988E-07  0.1787E-08
    -45.716  0.7752E-03  0.1469E-03  0.1377E-03  0.2608E-04
    -45.538  0.1076E-01  0.8143E-02  0.2048E-02  0.1471E-02
    -45.361  0.2540E-02  0.1369E-01  0.2499E-02  0.3901E-02
    -45.183  0.3011E-03  0.6138E-02  0.2553E-02  0.4991E-02
    -45.006  0.1436E-01  0.4267E-03  0.5102E-02  0.5066E-02
    -44.828  0.1329E-01  0.9733E-02  0.7460E-02  0.6794E-02
    -44.650  0.2239E-03  0.3963E-02  0.7500E-02  0.7497E-02
    -44.473  0.1864E-07  0.1428E-04  0.7500E-02  0.7500E-02
    -44.295  0.3932E-14  0.1540E-09  0.7500E-02  0.7500E-02
    -44.118  0.0000E+00  0.3127E-17  0.7500E-02  0.7500E-02
    -43.940  0.0000E+00  0.0000E+00  0.7500E-02  0.7500E-02
    -43.763  0.0000E+00  0.0000E+00  0.7500E-02  0.7500E-02
    -43.585  0.0000E+00  0.0000E+00  0.7500E-02  0.7500E-02
    -43.408  0.0000E+00  0.0000E+00  0.7500E-02  0.7500E-02
    -43.230  0.0000E+00  0.0000E+00  0.7500E-02  0.7500E-02
    -43.053  0.0000E+00  0.0000E+00  0.7500E-02  0.7500E-02
    -42.875  0.0000E+00  0.0000E+00  0.7500E-02  0.7500E-02
    -42.698  0.0000E+00  0.0000E+00  0.7500E-02  0.7500E-02
    -42.520  0.0000E+00  0.0000E+00  0.7500E-02  0.7500E-02
    -42.343  0.0000E+00  0.0000E+00  0.7500E-02  0.7500E-02
    -42.165  0.0000E+00  0.0000E+00  0.7500E-02  0.7500E-02
    -41.988  0.0000E+00  0.0000E+00  0.7500E-02  0.7500E-02
    -41.810  0.0000E+00  0.0000E+00  0.7500E-02  0.7500E-02
    -41.633  0.0000E+00  0.0000E+00  0.7500E-02  0.7500E-02
    -41.455  0.0000E+00  0.0000E+00  0.7500E-02  0.7500E-02
    -41.278  0.0000E+00  0.0000E+00  0.7500E-02  0.7500E-02
    -41.100  0.0000E+00  0.0000E+00  0.7500E-02  0.7500E-02
    -40.923  0.0000E+00  0.0000E+00  0.7500E-02  0.7500E-02
    -40.745  0.0000E+00  0.0000E+00  0.7500E-02  0.7500E-02
    -40.568  0.0000E+00  0.0000E+00  0.7500E-02  0.7500E-02
    -40.390  0.0000E+00  0.0000E+00  0.7500E-02  0.7500E-02
    -40.213  0.0000E+00  0.0000E+00  0.7500E-02  0.7500E-02
    -40.035  0.0000E+00  0.0000E+00  0.7500E-02  0.7500E-02
    -39.858  0.0000E+00  0.0000E+00  0.7500E-02  0.7500E-02
    -39.680  0.0000E+00  0.0000E+00  0.7500E-02  0.7500E-02
    -39.503  0.0000E+00  0.0000E+00  0.7500E-02  0.7500E-02
    -39.325  0.0000E+00  0.0000E+00  0.7500E-02  0.7500E-02
    -39.148  0.0000E+00  0.0000E+00  0.7500E-02  0.7500E-02
    -38.970  0.0000E+00  0.0000E+00  0.7500E-02  0.7500E-02
    -38.793  0.0000E+00  0.0000E+00  0.7500E-02  0.7500E-02
    -38.615  0.0000E+00  0.0000E+00  0.7500E-02  0.7500E-02
    -38.438  0.0000E+00  0.0000E+00  0.7500E-02  0.7500E-02
    -38.260  0.0000E+00  0.0000E+00  0.7500E-02  0.7500E-02
    -38.083  0.0000E+00  0.0000E+00  0.7500E-02  0.7500E-02
    -37.905  0.0000E+00  0.0000E+00  0.7500E-02  0.7500E-02
    -37.728  0.0000E+00  0.0000E+00  0.7500E-02  0.7500E-02
    -37.550  0.0000E+00  0.0000E+00  0.7500E-02  0.7500E-02
    -37.373  0.0000E+00  0.0000E+00  0.7500E-02  0.7500E-02
    -37.195  0.0000E+00  0.0000E+00  0.7500E-02  0.7500E-02
    -37.018  0.0000E+00  0.0000E+00  0.7500E-02  0.7500E-02
    -36.840  0.0000E+00  0.0000E+00  0.7500E-02  0.7500E-02
    -36.663  0.0000E+00  0.0000E+00  0.7500E-02  0.7500E-02
    -36.485  0.0000E+00  0.0000E+00  0.7500E-02  0.7500E-02
    -36.308  0.0000E+00  0.0000E+00  0.7500E-02  0.7500E-02
    -36.130  0.0000E+00  0.0000E+00  0.7500E-02  0.7500E-02
    -35.953  0.0000E+00  0.0000E+00  0.7500E-02  0.7500E-02
    -35.775  0.0000E+00  0.0000E+00  0.7500E-02  0.7500E-02
    -35.597  0.0000E+00  0.0000E+00  0.7500E-02  0.7500E-02
    -35.420  0.0000E+00  0.0000E+00  0.7500E-02  0.7500E-02
    -35.242  0.0000E+00  0.0000E+00  0.7500E-02  0.7500E-02
    -35.065  0.0000E+00  0.0000E+00  0.7500E-02  0.7500E-02
    -34.887  0.0000E+00  0.0000E+00  0.7500E-02  0.7500E-02
    -34.710  0.0000E+00  0.0000E+00  0.7500E-02  0.7500E-02
    -34.532  0.0000E+00  0.0000E+00  0.7500E-02  0.7500E-02
    -34.355  0.0000E+00  0.0000E+00  0.7500E-02  0.7500E-02
    -34.177  0.0000E+00  0.0000E+00  0.7500E-02  0.7500E-02
    -34.000  0.0000E+00  0.0000E+00  0.7500E-02  0.7500E-02
    -33.822  0.0000E+00  0.0000E+00  0.7500E-02  0.7500E-02
    -33.645  0.0000E+00  0.0000E+00  0.7500E-02  0.7500E-02
    -33.467  0.0000E+00  0.0000E+00  0.7500E-02  0.7500E-02
    -33.290  0.0000E+00  0.0000E+00  0.7500E-02  0.7500E-02
    -33.112  0.0000E+00  0.0000E+00  0.7500E-02  0.7500E-02
    -32.935  0.0000E+00  0.0000E+00  0.7500E-02  0.7500E-02
    -32.757  0.0000E+00  0.0000E+00  0.7500E-02  0.7500E-02
    -32.580  0.0000E+00  0.0000E+00  0.7500E-02  0.7500E-02
    -32.402  0.0000E+00  0.0000E+00  0.7500E-02  0.7500E-02
    -32.225  0.0000E+00  0.0000E+00  0.7500E-02  0.7500E-02
    -32.047  0.0000E+00  0.0000E+00  0.7500E-02  0.7500E-02
    -31.870  0.0000E+00  0.0000E+00  0.7500E-02  0.7500E-02
    -31.692  0.0000E+00  0.0000E+00  0.7500E-02  0.7500E-02
    -31.515  0.0000E+00  0.0000E+00  0.7500E-02  0.7500E-02
    -31.337  0.0000E+00  0.0000E+00  0.7500E-02  0.7500E-02
    -31.160  0.0000E+00  0.0000E+00  0.7500E-02  0.7500E-02
    -30.982  0.0000E+00  0.0000E+00  0.7500E-02  0.7500E-02
    -30.805  0.0000E+00  0.0000E+00  0.7500E-02  0.7500E-02
    -30.627  0.0000E+00  0.0000E+00  0.7500E-02  0.7500E-02
    -30.450  0.0000E+00  0.0000E+00  0.7500E-02  0.7500E-02
    -30.272  0.0000E+00  0.0000E+00  0.7500E-02  0.7500E-02
    -30.095  0.0000E+00  0.0000E+00  0.7500E-02  0.7500E-02
    -29.917  0.0000E+00  0.0000E+00  0.7500E-02  0.7500E-02
    -29.740  0.0000E+00  0.0000E+00  0.7500E-02  0.7500E-02
    -29.562  0.0000E+00  0.0000E+00  0.7500E-02  0.7500E-02
    -29.385  0.0000E+00  0.0000E+00  0.7500E-02  0.7500E-02
    -29.207  0.0000E+00  0.0000E+00  0.7500E-02  0.7500E-02
    -29.030  0.0000E+00  0.0000E+00  0.7500E-02  0.7500E-02
    -28.852  0.0000E+00  0.0000E+00  0.7500E-02  0.7500E-02
    -28.675  0.0000E+00  0.0000E+00  0.7500E-02  0.7500E-02
    -28.497  0.0000E+00  0.0000E+00  0.7500E-02  0.7500E-02
    -28.320  0.0000E+00  0.0000E+00  0.7500E-02  0.7500E-02
    -28.142  0.0000E+00  0.0000E+00  0.7500E-02  0.7500E-02
    -27.965  0.0000E+00  0.0000E+00  0.7500E-02  0.7500E-02
    -27.787  0.0000E+00  0.0000E+00  0.7500E-02  0.7500E-02
    -27.610  0.0000E+00  0.0000E+00  0.7500E-02  0.7500E-02
    -27.432  0.0000E+00  0.0000E+00  0.7500E-02  0.7500E-02
    -27.255  0.0000E+00  0.0000E+00  0.7500E-02  0.7500E-02
    -27.077  0.0000E+00  0.0000E+00  0.7500E-02  0.7500E-02
    -26.899  0.0000E+00  0.0000E+00  0.7500E-02  0.7500E-02
    -26.722  0.0000E+00  0.0000E+00  0.7500E-02  0.7500E-02
    -26.544  0.0000E+00  0.0000E+00  0.7500E-02  0.7500E-02
    -26.367  0.0000E+00  0.0000E+00  0.7500E-02  0.7500E-02
    -26.189  0.0000E+00  0.0000E+00  0.7500E-02  0.7500E-02
    -26.012  0.0000E+00  0.0000E+00  0.7500E-02  0.7500E-02
    -25.834  0.0000E+00  0.0000E+00  0.7500E-02  0.7500E-02
    -25.657  0.0000E+00  0.0000E+00  0.7500E-02  0.7500E-02
    -25.479  0.0000E+00  0.0000E+00  0.7500E-02  0.7500E-02
    -25.302  0.0000E+00  0.0000E+00  0.7500E-02  0.7500E-02
    -25.124  0.0000E+00  0.0000E+00  0.7500E-02  0.7500E-02
    -24.947  0.0000E+00  0.0000E+00  0.7500E-02  0.7500E-02
    -24.769  0.3440E-16  0.3596E-16  0.7500E-02  0.7500E-02
    -24.592  0.7326E-09  0.7608E-09  0.7500E-02  0.7500E-02
    -24.414  0.3498E-04  0.3573E-04  0.7506E-02  0.7506E-02
    -24.237  0.5353E-02  0.5389E-02  0.8456E-02  0.8463E-02
    -24.059  0.8506E-02  0.8472E-02  0.9966E-02  0.9967E-02
    -23.882  0.1901E-03  0.1868E-03  0.1000E-01  0.1000E-01
    -23.704  0.1645E-07  0.1590E-07  0.1000E-01  0.1000E-01
    -23.527  0.3343E-14  0.3179E-14  0.1000E-01  0.1000E-01
    -23.349  0.0000E+00  0.0000E+00  0.1000E-01  0.1000E-01
    -23.172  0.0000E+00  0.0000E+00  0.1000E-01  0.1000E-01
    -22.994  0.0000E+00  0.0000E+00  0.1000E-01  0.1000E-01
    -22.817  0.0000E+00  0.0000E+00  0.1000E-01  0.1000E-01
    -22.639  0.0000E+00  0.0000E+00  0.1000E-01  0.1000E-01
    -22.462  0.0000E+00  0.0000E+00  0.1000E-01  0.1000E-01
    -22.284  0.0000E+00  0.0000E+00  0.1000E-01  0.1000E-01
    -22.107  0.0000E+00  0.0000E+00  0.1000E-01  0.1000E-01
    -21.929  0.4989E-12  0.5126E-12  0.1000E-01  0.1000E-01
    -21.752  0.3553E-06  0.3615E-06  0.1000E-01  0.1000E-01
    -21.574  0.7176E-03  0.7233E-03  0.1013E-01  0.1013E-01
    -21.397  0.1135E-01  0.1137E-01  0.1214E-01  0.1215E-01
    -21.219  0.1529E-01  0.1529E-01  0.1486E-01  0.1486E-01
    -21.042  0.1377E-01  0.1376E-01  0.1730E-01  0.1730E-01
    -20.864  0.1098E-01  0.1097E-01  0.1925E-01  0.1925E-01
    -20.687  0.1102E-01  0.1103E-01  0.2121E-01  0.2121E-01
    -20.509  0.1906E-01  0.1907E-01  0.2459E-01  0.2459E-01
    -20.332  0.1216E-01  0.1214E-01  0.2675E-01  0.2675E-01
    -20.154  0.8170E-02  0.8172E-02  0.2820E-01  0.2820E-01
    -19.977  0.1524E-01  0.1524E-01  0.3090E-01  0.3090E-01
    -19.799  0.1630E-01  0.1630E-01  0.3380E-01  0.3380E-01
    -19.622  0.1605E-01  0.1605E-01  0.3665E-01  0.3665E-01
    -19.444  0.9352E-02  0.9347E-02  0.3831E-01  0.3831E-01
    -19.267  0.1191E-01  0.1190E-01  0.4042E-01  0.4042E-01
    -19.089  0.1545E-01  0.1545E-01  0.4316E-01  0.4316E-01
    -18.912  0.1473E-01  0.1474E-01  0.4578E-01  0.4578E-01
    -18.734  0.1400E-01  0.1400E-01  0.4827E-01  0.4826E-01
    -18.557  0.1400E-01  0.1400E-01  0.5075E-01  0.5075E-01
    -18.379  0.1336E-01  0.1335E-01  0.5312E-01  0.5312E-01
    -18.201  0.1859E-01  0.1859E-01  0.5642E-01  0.5642E-01
    -18.024  0.1481E-01  0.1480E-01  0.5905E-01  0.5904E-01
    -17.846  0.1120E-01  0.1122E-01  0.6104E-01  0.6104E-01
    -17.669  0.9030E-02  0.9049E-02  0.6264E-01  0.6264E-01
    -17.491  0.1962E-01  0.1959E-01  0.6612E-01  0.6612E-01
    -17.314  0.1564E-01  0.1563E-01  0.6890E-01  0.6889E-01
    -17.136  0.1776E-01  0.1776E-01  0.7205E-01  0.7205E-01
    -16.959  0.1637E-01  0.1640E-01  0.7496E-01  0.7496E-01
    -16.781  0.1730E-01  0.1729E-01  0.7803E-01  0.7802E-01
    -16.604  0.1238E-01  0.1238E-01  0.8023E-01  0.8022E-01
    -16.426  0.1008E-01  0.1005E-01  0.8202E-01  0.8201E-01
    -16.249  0.1423E-01  0.1426E-01  0.8454E-01  0.8454E-01
    -16.071  0.1550E-01  0.1549E-01  0.8729E-01  0.8729E-01
    -15.894  0.1709E-01  0.1704E-01  0.9033E-01  0.9031E-01
    -15.716  0.1211E-01  0.1213E-01  0.9248E-01  0.9247E-01
    -15.539  0.8565E-02  0.8593E-02  0.9400E-01  0.9399E-01
    -15.361  0.8910E-02  0.8914E-02  0.9558E-01  0.9557E-01
    -15.184  0.1115E-01  0.1115E-01  0.9756E-01  0.9755E-01
    -15.006  0.1591E-01  0.1592E-01  0.1004E+00  0.1004E+00
    -14.829  0.1491E-01  0.1490E-01  0.1030E+00  0.1030E+00
    -14.651  0.1596E-01  0.1587E-01  0.1059E+00  0.1058E+00
    -14.474  0.1756E-01  0.1761E-01  0.1090E+00  0.1090E+00
    -14.296  0.1467E-01  0.1470E-01  0.1116E+00  0.1116E+00
    -14.119  0.1584E-01  0.1585E-01  0.1144E+00  0.1144E+00
    -13.941  0.1293E-01  0.1287E-01  0.1167E+00  0.1167E+00
    -13.764  0.2127E-01  0.2128E-01  0.1205E+00  0.1205E+00
    -13.586  0.9706E-02  0.9754E-02  0.1222E+00  0.1222E+00
    -13.409  0.1868E-01  0.1863E-01  0.1255E+00  0.1255E+00
    -13.231  0.1016E-01  0.1020E-01  0.1273E+00  0.1273E+00
    -13.054  0.1220E-01  0.1222E-01  0.1295E+00  0.1295E+00
    -12.876  0.1230E-01  0.1227E-01  0.1317E+00  0.1316E+00
    -12.699  0.2235E-01  0.2234E-01  0.1356E+00  0.1356E+00
    -12.521  0.1550E-01  0.1552E-01  0.1384E+00  0.1384E+00
    -12.344  0.8270E-02  0.8295E-02  0.1398E+00  0.1398E+00
    -12.166  0.9870E-02  0.9860E-02  0.1416E+00  0.1416E+00
    -11.989  0.1558E-01  0.1556E-01  0.1444E+00  0.1444E+00
    -11.811  0.1988E-01  0.1989E-01  0.1479E+00  0.1479E+00
    -11.634  0.2794E-01  0.2788E-01  0.1529E+00  0.1528E+00
    -11.456  0.2083E-01  0.2090E-01  0.1565E+00  0.1565E+00
    -11.279  0.2268E-02  0.2286E-02  0.1570E+00  0.1570E+00
    -11.101  0.1652E-01  0.1645E-01  0.1599E+00  0.1599E+00
    -10.924  0.1948E-01  0.1954E-01  0.1633E+00  0.1633E+00
    -10.746  0.1672E-01  0.1671E-01  0.1663E+00  0.1663E+00
    -10.569  0.1872E-01  0.1870E-01  0.1696E+00  0.1696E+00
    -10.391  0.2854E-01  0.2861E-01  0.1747E+00  0.1747E+00
    -10.214  0.2169E-01  0.2165E-01  0.1786E+00  0.1785E+00
    -10.036  0.2051E-01  0.2050E-01  0.1822E+00  0.1822E+00
     -9.859  0.2528E-01  0.2529E-01  0.1867E+00  0.1867E+00
     -9.681  0.1724E-01  0.1722E-01  0.1897E+00  0.1897E+00
     -9.503  0.3532E-01  0.3530E-01  0.1960E+00  0.1960E+00
     -9.326  0.3058E-01  0.3066E-01  0.2014E+00  0.2014E+00
     -9.148  0.2850E-01  0.2854E-01  0.2065E+00  0.2065E+00
     -8.971  0.2577E-01  0.2575E-01  0.2111E+00  0.2111E+00
     -8.793  0.3802E-01  0.3802E-01  0.2178E+00  0.2178E+00
     -8.616  0.4283E-01  0.4276E-01  0.2254E+00  0.2254E+00
     -8.438  0.5501E-01  0.5510E-01  0.2352E+00  0.2352E+00
     -8.261  0.4030E-01  0.4025E-01  0.2423E+00  0.2423E+00
     -8.083  0.2484E-01  0.2480E-01  0.2468E+00  0.2467E+00
     -7.906  0.3230E-01  0.3231E-01  0.2525E+00  0.2525E+00
     -7.728  0.2888E-01  0.2884E-01  0.2576E+00  0.2576E+00
     -7.551  0.2899E-01  0.2911E-01  0.2628E+00  0.2628E+00
     -7.373  0.3637E-01  0.3630E-01  0.2692E+00  0.2692E+00
     -7.196  0.3147E-01  0.3141E-01  0.2748E+00  0.2748E+00
     -7.018  0.3790E-01  0.3766E-01  0.2815E+00  0.2815E+00
     -6.841  0.2651E-01  0.2674E-01  0.2862E+00  0.2862E+00
     -6.663  0.1453E-01  0.1454E-01  0.2888E+00  0.2888E+00
     -6.486  0.1934E-01  0.1921E-01  0.2922E+00  0.2922E+00
     -6.308  0.3071E-01  0.3054E-01  0.2977E+00  0.2976E+00
     -6.131  0.3711E-01  0.3738E-01  0.3043E+00  0.3043E+00
     -5.953  0.2627E-01  0.2608E-01  0.3089E+00  0.3089E+00
     -5.776  0.2286E-01  0.2336E-01  0.3130E+00  0.3130E+00
     -5.598  0.2589E-01  0.2580E-01  0.3176E+00  0.3176E+00
     -5.421  0.1665E-01  0.1639E-01  0.3206E+00  0.3205E+00
     -5.243  0.1591E-01  0.1639E-01  0.3234E+00  0.3234E+00
     -5.066  0.2552E-01  0.2611E-01  0.3279E+00  0.3281E+00
     -4.888  0.3046E-01  0.2994E-01  0.3333E+00  0.3334E+00
     -4.711  0.2671E-01  0.2677E-01  0.3381E+00  0.3381E+00
     -4.533  0.3173E-01  0.3150E-01  0.3437E+00  0.3437E+00
     -4.356  0.5070E-02  0.4934E-02  0.3446E+00  0.3446E+00
     -4.178  0.7253E-02  0.7255E-02  0.3459E+00  0.3459E+00
     -4.001  0.1717E-01  0.1554E-01  0.3489E+00  0.3486E+00
     -3.823  0.2713E-01  0.2741E-01  0.3537E+00  0.3535E+00
     -3.646  0.1010E-01  0.1144E-01  0.3555E+00  0.3555E+00
     -3.468  0.9539E-02  0.9509E-02  0.3572E+00  0.3572E+00
     -3.291  0.9284E-02  0.9404E-02  0.3589E+00  0.3589E+00
     -3.113  0.1096E-01  0.1243E-01  0.3608E+00  0.3611E+00
     -2.936  0.5810E-02  0.4898E-02  0.3619E+00  0.3620E+00
     -2.758  0.4304E-02  0.8199E-02  0.3626E+00  0.3634E+00
     -2.581  0.6433E-02  0.1879E-02  0.3638E+00  0.3638E+00
     -2.403  0.3630E-02  0.2927E-02  0.3644E+00  0.3643E+00
     -2.226  0.3715E-02  0.4284E-02  0.3651E+00  0.3650E+00
     -2.048  0.5994E-02  0.6637E-02  0.3661E+00  0.3662E+00
     -1.871  0.1046E-01  0.1175E-01  0.3680E+00  0.3683E+00
     -1.693  0.3102E-02  0.2522E-02  0.3685E+00  0.3688E+00
     -1.516  0.4934E-02  0.7140E-02  0.3694E+00  0.3700E+00
     -1.338  0.1579E-01  0.1639E-01  0.3722E+00  0.3729E+00
     -1.161  0.2203E-01  0.2065E-01  0.3761E+00  0.3766E+00
     -0.983  0.1090E-01  0.8944E-02  0.3781E+00  0.3782E+00
     -0.805  0.1960E-01  0.1901E-01  0.3815E+00  0.3816E+00
     -0.628  0.1729E-01  0.1715E-01  0.3846E+00  0.3846E+00
     -0.450  0.1225E-01  0.1246E-01  0.3868E+00  0.3868E+00
     -0.273  0.1810E-01  0.1779E-01  0.3900E+00  0.3900E+00
     -0.095  0.1377E-01  0.1383E-01  0.3924E+00  0.3924E+00
      0.082  0.1139E-01  0.1174E-01  0.3945E+00  0.3945E+00
      0.260  0.2249E-01  0.2242E-01  0.3985E+00  0.3985E+00
      0.437  0.1983E-01  0.1956E-01  0.4020E+00  0.4020E+00
      0.615  0.1376E-01  0.1383E-01  0.4044E+00  0.4044E+00
      0.792  0.7325E-02  0.7302E-02  0.4057E+00  0.4057E+00
      0.970  0.1871E-01  0.2033E-01  0.4090E+00  0.4093E+00
      1.147  0.1504E-01  0.1334E-01  0.4117E+00  0.4117E+00
      1.325  0.1553E-01  0.1615E-01  0.4145E+00  0.4146E+00
      1.502  0.2109E-01  0.2090E-01  0.4182E+00  0.4183E+00
      1.680  0.2217E-01  0.2194E-01  0.4221E+00  0.4222E+00
      1.857  0.2419E-01  0.2408E-01  0.4264E+00  0.4264E+00
      2.035  0.3452E-01  0.3494E-01  0.4326E+00  0.4326E+00
      2.212  0.2844E-01  0.2890E-01  0.4376E+00  0.4378E+00
      2.390  0.2139E-01  0.2044E-01  0.4414E+00  0.4414E+00
      2.567  0.3423E-01  0.3249E-01  0.4475E+00  0.4472E+00
      2.745  0.5421E-01  0.5251E-01  0.4571E+00  0.4565E+00
      2.922  0.1583E-01  0.1921E-01  0.4599E+00  0.4599E+00
      3.100  0.4302E-03  0.5465E-03  0.4600E+00  0.4600E+00
      3.277  0.1104E-06  0.1364E-06  0.4600E+00  0.4600E+00
      3.455  0.8312E-13  0.1014E-12  0.4600E+00  0.4600E+00
      3.632  0.0000E+00  0.0000E+00  0.4600E+00  0.4600E+00
      3.810  0.0000E+00  0.0000E+00  0.4600E+00  0.4600E+00
      3.987  0.0000E+00  0.0000E+00  0.4600E+00  0.4600E+00
      4.165  0.0000E+00  0.0000E+00  0.4600E+00  0.4600E+00
      4.342  0.0000E+00  0.0000E+00  0.4600E+00  0.4600E+00
      4.520  0.0000E+00  0.0000E+00  0.4600E+00  0.4600E+00
      4.697  0.0000E+00  0.0000E+00  0.4600E+00  0.4600E+00
      4.875  0.0000E+00  0.0000E+00  0.4600E+00  0.4600E+00
      5.052  0.0000E+00  0.0000E+00  0.4600E+00  0.4600E+00
      5.230  0.0000E+00  0.0000E+00  0.4600E+00  0.4600E+00
