       N       E                     dE             d eps       ncg     rms          rms(c)
DAV:   1     0.247705267247E+04    0.24771E+04   -0.10791E+05  3360   0.107E+03
DAV:   2    -0.227260334585E+03   -0.27043E+04   -0.25832E+04  4224   0.280E+02
DAV:   3    -0.687112682846E+03   -0.45985E+03   -0.45702E+03  3560   0.122E+02
DAV:   4    -0.704006320163E+03   -0.16894E+02   -0.16752E+02  3552   0.287E+01
DAV:   5    -0.704554613739E+03   -0.54829E+00   -0.54616E+00  4024   0.437E+00    0.469E+01
RMM:   6    -0.731717607269E+03   -0.27163E+02   -0.52537E+02  4096   0.390E+01    0.839E+01
RMM:   7    -0.662215910951E+03    0.69502E+02   -0.55367E+01  3046   0.134E+01    0.319E+01
RMM:   8    -0.662428767716E+03   -0.21286E+00   -0.22018E+01  3117   0.697E+00    0.284E+01
RMM:   9    -0.647340511501E+03    0.15088E+02   -0.20309E+01  2965   0.842E+00    0.115E+01
RMM:  10    -0.647806491969E+03   -0.46598E+00   -0.30615E+00  3005   0.304E+00    0.145E+01
RMM:  11    -0.646740844333E+03    0.10656E+01   -0.42747E-01  3099   0.106E+00    0.772E+00
RMM:  12    -0.646610680920E+03    0.13016E+00   -0.16055E-01  2944   0.947E-01    0.596E+00
RMM:  13    -0.646704950783E+03   -0.94270E-01   -0.26125E-02  2976   0.336E-01    0.720E+00
RMM:  14    -0.646538922132E+03    0.16603E+00   -0.26181E-02  2977   0.418E-01    0.744E+00
RMM:  15    -0.646523070018E+03    0.15852E-01   -0.45036E-03  3110   0.913E-02    0.634E+00
RMM:  16    -0.646536814015E+03   -0.13744E-01   -0.18028E-02  2946   0.255E-01    0.509E+00
RMM:  17    -0.646554000352E+03   -0.17186E-01   -0.47587E-02  2950   0.338E-01    0.383E+00
RMM:  18    -0.646589193988E+03   -0.35194E-01   -0.32286E-02  3041   0.231E-01    0.418E+00
RMM:  19    -0.646579606019E+03    0.95880E-02   -0.14912E-02  3122   0.139E-01    0.353E+00
RMM:  20    -0.646584470262E+03   -0.48642E-02   -0.38769E-03  3149   0.834E-02    0.312E+00
RMM:  21    -0.646613908076E+03   -0.29438E-01   -0.25734E-02  2945   0.332E-01    0.376E+00
RMM:  22    -0.646618685164E+03   -0.47771E-02   -0.44028E-03  2978   0.143E-01    0.393E+00
RMM:  23    -0.646554976303E+03    0.63709E-01   -0.46603E-02  2961   0.408E-01    0.270E+00
RMM:  24    -0.646544961908E+03    0.10014E-01   -0.49429E-02  2960   0.328E-01    0.127E+00
RMM:  25    -0.646576767433E+03   -0.31806E-01   -0.21888E-02  3005   0.266E-01    0.183E+00
RMM:  26    -0.646587057038E+03   -0.10290E-01   -0.78245E-03  3079   0.173E-01    0.217E+00
RMM:  27    -0.646596892911E+03   -0.98359E-02   -0.43151E-03  2968   0.965E-02    0.214E+00
RMM:  28    -0.646582921992E+03    0.13971E-01   -0.31037E-03  2940   0.128E-01    0.212E+00
RMM:  29    -0.646592840242E+03   -0.99182E-02   -0.33030E-03  2943   0.121E-01    0.221E+00
RMM:  30    -0.646573512530E+03    0.19328E-01   -0.32180E-03  2921   0.865E-02    0.251E+00
RMM:  31    -0.646543949880E+03    0.29563E-01   -0.51852E-02  2959   0.358E-01    0.260E+00
RMM:  32    -0.646577403847E+03   -0.33454E-01   -0.52720E-02  2977   0.323E-01    0.250E+00
RMM:  33    -0.646605519266E+03   -0.28115E-01   -0.17891E-02  3178   0.141E-01    0.266E+00
RMM:  34    -0.646600551154E+03    0.49681E-02   -0.26548E-02  2954   0.340E-01    0.263E+00
RMM:  35    -0.646600978230E+03   -0.42708E-03   -0.44047E-03  2988   0.973E-02    0.232E+00
RMM:  36    -0.646590776410E+03    0.10202E-01   -0.16238E-02  2951   0.210E-01    0.206E+00
RMM:  37    -0.646607765523E+03   -0.16989E-01   -0.90806E-03  2990   0.142E-01    0.207E+00
RMM:  38    -0.646606888590E+03    0.87693E-03   -0.30122E-03  2946   0.162E-01    0.213E+00
RMM:  39    -0.646605713563E+03    0.11750E-02   -0.24953E-03  2956   0.814E-02    0.232E+00
RMM:  40    -0.646624817578E+03   -0.19104E-01   -0.37838E-03  2960   0.102E-01    0.158E+00
RMM:  41    -0.646619606330E+03    0.52112E-02   -0.91169E-03  2971   0.164E-01    0.820E-01
RMM:  42    -0.646631006103E+03   -0.11400E-01   -0.10596E-02  2983   0.160E-01    0.756E-01
RMM:  43    -0.646640788451E+03   -0.97823E-02   -0.35167E-03  2991   0.131E-01    0.912E-01
RMM:  44    -0.646639594070E+03    0.11944E-02   -0.19340E-03  3001   0.795E-02    0.464E-01
RMM:  45    -0.646648327732E+03   -0.87337E-02   -0.43940E-03  2956   0.107E-01    0.786E-01
RMM:  46    -0.646652607505E+03   -0.42798E-02   -0.14939E-03  2958   0.117E-01    0.103E+00
RMM:  47    -0.646647860033E+03    0.47475E-02   -0.98174E-04  2938   0.708E-02    0.792E-01
RMM:  48    -0.646645919038E+03    0.19410E-02   -0.91551E-04  2947   0.438E-02    0.333E-01
RMM:  49    -0.646648991387E+03   -0.30723E-02   -0.61207E-04  2830   0.510E-02    0.142E-01
RMM:  50    -0.646650630789E+03   -0.16394E-02   -0.63426E-04  2916   0.675E-02
   1 F= -.65305102E+03 E0= -.65302837E+03  d E =-.653051E+03  mag=    -0.0275
       N       E                     dE             d eps       ncg     rms          rms(c)
DAV:   1    -0.646654343851E+03   -0.53525E-02   -0.13271E+00  3232   0.292E+00    0.431E-01
RMM:   2    -0.646681214274E+03   -0.26870E-01   -0.69318E-02  2972   0.566E-01    0.199E+00
RMM:   3    -0.646656303800E+03    0.24910E-01   -0.13524E-02  3298   0.203E-01    0.266E-01
RMM:   4    -0.646655948948E+03    0.35485E-03   -0.10805E-03  3125   0.661E-02    0.275E-01
RMM:   5    -0.646656252904E+03   -0.30396E-03   -0.40574E-04  2899   0.358E-02    0.374E-01
RMM:   6    -0.646655932402E+03    0.32050E-03   -0.10651E-04  2295   0.323E-02    0.381E-01
RMM:   7    -0.646655373701E+03    0.55870E-03   -0.80622E-05  2076   0.156E-02    0.273E-01
RMM:   8    -0.646654068620E+03    0.13051E-02   -0.92627E-04  2915   0.474E-02    0.271E-01
RMM:   9    -0.646655349101E+03   -0.12805E-02   -0.40825E-04  2897   0.592E-02    0.253E-01
RMM:  10    -0.646655209165E+03    0.13994E-03   -0.24186E-04  2447   0.262E-02    0.378E-02
RMM:  11    -0.646655600973E+03   -0.39181E-03   -0.49494E-05  1942   0.195E-02    0.736E-02
RMM:  12    -0.646655725402E+03   -0.12443E-03   -0.32795E-05  1938   0.170E-02    0.314E-02
RMM:  13    -0.646655765812E+03   -0.40410E-04   -0.71661E-06  1627   0.425E-03    0.165E-02
RMM:  14    -0.646655808291E+03   -0.42479E-04   -0.29815E-06  1649   0.462E-03    0.317E-02
RMM:  15    -0.646655808047E+03    0.24390E-06   -0.14882E-06  1626   0.329E-03
   2 F= -.65305666E+03 E0= -.65303314E+03  d E =-.564509E-02  mag=    -0.0378
       N       E                     dE             d eps       ncg     rms          rms(c)
DAV:   1    -0.646656863417E+03   -0.10551E-02   -0.88027E-02  3192   0.753E-01    0.103E-01
RMM:   2    -0.646658435078E+03   -0.15717E-02   -0.45144E-03  2955   0.146E-01    0.506E-01
RMM:   3    -0.646656979080E+03    0.14560E-02   -0.88788E-04  3174   0.521E-02    0.742E-02
RMM:   4    -0.646656972388E+03    0.66915E-05   -0.80315E-05  2151   0.180E-02
   3 F= -.65305771E+03 E0= -.65303446E+03  d E =-.669658E-02  mag=    -0.0357
       N       E                     dE             d eps       ncg     rms          rms(c)
DAV:   1    -0.646658118794E+03   -0.11397E-02   -0.75870E-01  3056   0.252E+00    0.363E-01
RMM:   2    -0.646679013970E+03   -0.20895E-01   -0.56420E-02  2979   0.452E-01    0.171E+00
RMM:   3    -0.646660417507E+03    0.18596E-01   -0.11734E-02  3245   0.180E-01    0.187E-01
RMM:   4    -0.646660164790E+03    0.25272E-03   -0.77505E-04  3169   0.559E-02    0.189E-01
RMM:   5    -0.646660330068E+03   -0.16528E-03   -0.12931E-04  2172   0.172E-02    0.309E-01
RMM:   6    -0.646659898441E+03    0.43163E-03   -0.11838E-04  2358   0.319E-02    0.222E-01
RMM:   7    -0.646659503371E+03    0.39507E-03   -0.27569E-04  2560   0.248E-02    0.108E-01
RMM:   8    -0.646659866031E+03   -0.36266E-03   -0.10534E-04  2359   0.300E-02    0.193E-01
RMM:   9    -0.646659853659E+03    0.12372E-04   -0.13362E-04  2297   0.264E-02    0.612E-02
RMM:  10    -0.646659948882E+03   -0.95223E-04   -0.32054E-05  1904   0.108E-02    0.487E-02
RMM:  11    -0.646660048449E+03   -0.99568E-04   -0.12658E-05  1797   0.124E-02    0.538E-02
RMM:  12    -0.646660061253E+03   -0.12803E-04   -0.52599E-06  1735   0.541E-03    0.241E-02
RMM:  13    -0.646660066698E+03   -0.54452E-05   -0.20000E-06  1218   0.285E-03
   4 F= -.65306109E+03 E0= -.65303707E+03  d E =-.337514E-02  mag=    -0.0403
       N       E                     dE             d eps       ncg     rms          rms(c)
DAV:   1    -0.646660109719E+03   -0.48467E-04   -0.39192E-03  3032   0.181E-01    0.263E-02
RMM:   2    -0.646660220792E+03   -0.11107E-03   -0.29230E-04  2559   0.324E-02    0.134E-01
RMM:   3    -0.646660112904E+03    0.10789E-03   -0.63325E-05  1910   0.144E-02    0.272E-02
RMM:   4    -0.646660115496E+03   -0.25922E-05   -0.51595E-06  1734   0.550E-03
   5 F= -.65306112E+03 E0= -.65303717E+03  d E =-.340564E-02  mag=    -0.0399
       N       E                     dE             d eps       ncg     rms          rms(c)
DAV:   1    -0.646660066943E+03    0.45961E-04   -0.35108E-01  3400   0.201E+00    0.186E-01
RMM:   2    -0.646662695256E+03   -0.26283E-02   -0.25488E-02  3003   0.291E-01    0.292E-01
RMM:   3    -0.646662516635E+03    0.17862E-03   -0.22898E-03  3435   0.837E-02    0.375E-01
RMM:   4    -0.646662457209E+03    0.59426E-04   -0.19775E-04  2492   0.267E-02    0.425E-01
RMM:   5    -0.646661453690E+03    0.10035E-02   -0.24702E-04  2680   0.403E-02    0.221E-01
RMM:   6    -0.646661626123E+03   -0.17243E-03   -0.11861E-04  2130   0.200E-02    0.668E-02
RMM:   7    -0.646661914898E+03   -0.28877E-03   -0.89172E-05  2347   0.275E-02    0.103E-01
RMM:   8    -0.646661888342E+03    0.26556E-04   -0.70664E-05  2144   0.205E-02    0.505E-02
RMM:   9    -0.646661888798E+03   -0.45566E-06   -0.90160E-06  1773   0.683E-03
   6 F= -.65306286E+03 E0= -.65303890E+03  d E =-.173708E-02  mag=    -0.0395
       N       E                     dE             d eps       ncg     rms          rms(c)
DAV:   1    -0.646661916325E+03   -0.27983E-04   -0.13678E-04  3360   0.388E-02    0.632E-03
RMM:   2    -0.646661938153E+03   -0.21828E-04   -0.97378E-06  1757   0.686E-03    0.723E-03
RMM:   3    -0.646661944402E+03   -0.62488E-05   -0.10602E-06  1221   0.271E-03
   7 F= -.65306291E+03 E0= -.65303893E+03  d E =-.179166E-02  mag=    -0.0398
       N       E                     dE             d eps       ncg     rms          rms(c)
DAV:   1    -0.646661337701E+03    0.60045E-03   -0.27562E-01  3400   0.181E+00    0.166E-01
RMM:   2    -0.646663761882E+03   -0.24242E-02   -0.21747E-02  2994   0.258E-01    0.326E-01
RMM:   3    -0.646663260742E+03    0.50114E-03   -0.18327E-03  3501   0.740E-02    0.316E-01
RMM:   4    -0.646663302256E+03   -0.41514E-04   -0.14477E-04  2295   0.224E-02    0.394E-01
RMM:   5    -0.646662484579E+03    0.81768E-03   -0.18966E-04  2589   0.360E-02    0.204E-01
RMM:   6    -0.646662709435E+03   -0.22486E-03   -0.93562E-05  2075   0.185E-02    0.592E-02
RMM:   7    -0.646662951353E+03   -0.24192E-03   -0.62071E-05  2033   0.238E-02    0.885E-02
RMM:   8    -0.646662891310E+03    0.60043E-04   -0.61528E-05  2089   0.191E-02    0.324E-02
RMM:   9    -0.646662915101E+03   -0.23791E-04   -0.69624E-06  1761   0.698E-03    0.988E-03
RMM:  10    -0.646662938395E+03   -0.23294E-04   -0.19506E-06  1725   0.383E-03    0.763E-03
RMM:  11    -0.646662952686E+03   -0.14291E-04   -0.60164E-07   878   0.195E-03    0.626E-03
RMM:  12    -0.646662961838E+03   -0.91526E-05   -0.52250E-07   865   0.182E-03
   8 F= -.65306387E+03 E0= -.65303978E+03  d E =-.956874E-03  mag=    -0.0418
       N       E                     dE             d eps       ncg     rms          rms(c)
DAV:   1    -0.646662960957E+03   -0.82713E-05   -0.18305E-03  3368   0.148E-01    0.133E-02
RMM:   2    -0.646662981592E+03   -0.20634E-04   -0.13844E-04  2033   0.211E-02    0.272E-02
RMM:   3    -0.646662979270E+03    0.23220E-05   -0.14021E-05  1777   0.799E-03
   9 F= -.65306389E+03 E0= -.65303986E+03  d E =-.980058E-03  mag=    -0.0417
       N       E                     dE             d eps       ncg     rms          rms(c)
DAV:   1    -0.646662695878E+03    0.28571E-03   -0.16482E-01  3472   0.141E+00    0.119E-01
RMM:   2    -0.646663970818E+03   -0.12749E-02   -0.12513E-02  2985   0.197E-01    0.182E-01
RMM:   3    -0.646663868958E+03    0.10186E-03   -0.10197E-03  3462   0.557E-02    0.220E-01
RMM:   4    -0.646663702955E+03    0.16600E-03   -0.12090E-04  2112   0.203E-02    0.180E-01
RMM:   5    -0.646663561979E+03    0.14098E-03   -0.39345E-05  1937   0.180E-02    0.129E-01
RMM:   6    -0.646663490281E+03    0.71698E-04   -0.45238E-05  1952   0.110E-02    0.447E-02
RMM:   7    -0.646663617024E+03   -0.12674E-03   -0.31232E-05  1902   0.157E-02    0.587E-02
RMM:   8    -0.646663558197E+03    0.58827E-04   -0.47254E-05  1999   0.144E-02    0.208E-02
RMM:   9    -0.646663606435E+03   -0.48239E-04   -0.72923E-06  1757   0.811E-03    0.291E-02
RMM:  10    -0.646663630337E+03   -0.23902E-04   -0.27975E-06  1691   0.435E-03    0.722E-03
RMM:  11    -0.646663646036E+03   -0.15699E-04   -0.15361E-06  1122   0.240E-03    0.152E-02
RMM:  12    -0.646663647856E+03   -0.18191E-05   -0.73332E-07  1572   0.307E-03
  10 F= -.65306454E+03 E0= -.65304033E+03  d E =-.648738E-03  mag=    -0.0413
       N       E                     dE             d eps       ncg     rms          rms(c)
DAV:   1    -0.646663632500E+03    0.13537E-04   -0.56612E-03  3392   0.262E-01    0.229E-02
RMM:   2    -0.646663680823E+03   -0.48324E-04   -0.42946E-04  2880   0.368E-02    0.402E-02
RMM:   3    -0.646663675211E+03    0.56120E-05   -0.28331E-05  1884   0.100E-02
  11 F= -.65306456E+03 E0= -.65304026E+03  d E =-.670918E-03  mag=    -0.0407
       N       E                     dE             d eps       ncg     rms          rms(c)
DAV:   1    -0.646662809884E+03    0.87094E-03   -0.18486E-01  3536   0.156E+00    0.136E-01
RMM:   2    -0.646664566825E+03   -0.17569E-02   -0.18147E-02  2999   0.222E-01    0.183E-01
RMM:   3    -0.646664559739E+03    0.70861E-05   -0.12745E-03  3461   0.599E-02    0.297E-01
RMM:   4    -0.646664506627E+03    0.53113E-04   -0.11158E-04  2133   0.201E-02    0.346E-01
RMM:   5    -0.646663910881E+03    0.59575E-03   -0.12849E-04  2204   0.290E-02    0.213E-01
RMM:   6    -0.646663974199E+03   -0.63318E-04   -0.69282E-05  1998   0.146E-02    0.572E-02
RMM:   7    -0.646664145327E+03   -0.17113E-03   -0.46094E-05  1935   0.191E-02    0.601E-02
RMM:   8    -0.646664205830E+03   -0.60503E-04   -0.36744E-05  1926   0.168E-02    0.391E-02
RMM:   9    -0.646664227193E+03   -0.21363E-04   -0.57149E-06  1749   0.509E-03    0.152E-02
RMM:  10    -0.646664245638E+03   -0.18444E-04   -0.21058E-06  1687   0.335E-03    0.839E-03
RMM:  11    -0.646664250358E+03   -0.47199E-05   -0.54612E-07   852   0.187E-03
  12 F= -.65306503E+03 E0= -.65304080E+03  d E =-.465320E-03  mag=    -0.0422
