 vasp.5.4.4.18Apr17-6-g9f103f2a35 (build Jan 14 2022 15:04:31) complex          
  
 executed on             LinuxIFC date 2023.04.05  11:31:20
 running on   48 total cores
 distrk:  each k-point on   48 cores,    1 groups
 distr:  one band on NCORES_PER_BAND=  12 cores,    4 groups


--------------------------------------------------------------------------------------------------------


 INCAR:
 POTCAR:    PAW_PBE C 08Apr2002                   
 POTCAR:    PAW_PBE N 08Apr2002                   
 POTCAR:    PAW_PBE Ge_d 03Jul2007                
 POTCAR:    PAW_PBE C 08Apr2002                   
   SHA256 =  253f7b50bb8d59471dbedb8285d89021f4a42ed1a2c5d38a03a736e69125dd95 C/
   COPYR  = (c) Copyright 08Apr2002 Georg Kresse                                
   COPYR  = This file is part of the software VASP. Any use, copying, and all ot
   COPYR  = If you do not have a valid VASP license, you may not use, copy or di
   VRHFIN =C: s2p2                                                              
   LEXCH  = PE                                                                  
   EATOM  =   147.1560 eV,   10.8157 Ry                                         
                                                                                
   TITEL  = PAW_PBE C 08Apr2002                                                 
   LULTRA =        F    use ultrasoft PP ?                                      
   IUNSCR =        1    unscreen: 0-lin 1-nonlin 2-no                           
   RPACOR =    1.200    partial core radius                                     
   POMASS =   12.011; ZVAL   =    4.000    mass and valenz                      
   RCORE  =    1.500    outmost cutoff radius                                   
   RWIGS  =    1.630; RWIGS  =    0.863    wigner-seitz radius (au A)           
   ENMAX  =  400.000; ENMIN  =  300.000 eV                                      
   ICORE  =        2    local potential                                         
   LCOR   =        T    correct aug charges                                     
   LPAW   =        T    paw PP                                                  
   EAUG   =  644.873                                                            
   DEXC   =    0.000                                                            
   RMAX   =    1.529    core radius for proj-oper                               
   RAUG   =    1.300    factor for augmentation sphere                          
   RDEP   =    1.501    radius for radial grids                                 
   RDEPT  =    1.300    core radius for aug-charge                              
                                                                                
   Atomic configuration                                                         
    4 entries                                                                   
     n  l   j            E        occ.                                          
     1  0  0.50      -273.3789   2.0000                                         
     2  0  0.50       -13.7508   2.0000                                         
     2  1  0.50        -5.2854   2.0000                                         
     3  2  1.50        -5.4423   0.0000                                         
   Description                                                                  
     l       E           TYP  RCUT    TYP  RCUT                                 
     0    -13.7508458     23  1.200                                             
     0     -8.2022199     23  1.200                                             
     1     -5.2854383     23  1.500                                             
     1     34.0145650     23  1.500                                             
     2     -5.4423304      7  1.500                                             
  local pseudopotential read in
  partial core-charges read in
  partial kinetic energy density read in
  atomic valenz-charges read in
  non local Contribution for L=           0  read in
    real space projection operators read in
  non local Contribution for L=           0  read in
    real space projection operators read in
  non local Contribution for L=           1  read in
    real space projection operators read in
  non local Contribution for L=           1  read in
    real space projection operators read in
    PAW grid and wavefunctions read in
 
   number of l-projection  operators is LMAX  =           4
   number of lm-projection operators is LMMAX =           8
 
 POTCAR:    PAW_PBE N 08Apr2002                   
   SHA256 =  e053789ff3a61a86a1b75d8a110fcc91f86041011e7b0817c7c99e4e8a6349d7 N/
   COPYR  = (c) Copyright 08Apr2002 Georg Kresse                                
   COPYR  = This file is part of the software VASP. Any use, copying, and all ot
   COPYR  = If you do not have a valid VASP license, you may not use, copy or di
   VRHFIN =N: s2p3                                                              
   LEXCH  = PE                                                                  
   EATOM  =   264.5486 eV,   19.4438 Ry                                         
                                                                                
   TITEL  = PAW_PBE N 08Apr2002                                                 
   LULTRA =        F    use ultrasoft PP ?                                      
   IUNSCR =        1    unscreen: 0-lin 1-nonlin 2-no                           
   RPACOR =    1.200    partial core radius                                     
   POMASS =   14.001; ZVAL   =    5.000    mass and valenz                      
   RCORE  =    1.500    outmost cutoff radius                                   
   RWIGS  =    1.400; RWIGS  =    0.741    wigner-seitz radius (au A)           
   ENMAX  =  400.000; ENMIN  =  300.000 eV                                      
   ICORE  =        2    local potential                                         
   LCOR   =        T    correct aug charges                                     
   LPAW   =        T    paw PP                                                  
   EAUG   =  627.112                                                            
   DEXC   =    0.000                                                            
   RMAX   =    1.529    core radius for proj-oper                               
   RAUG   =    1.300    factor for augmentation sphere                          
   RDEP   =    1.514    radius for radial grids                                 
   RDEPT  =    1.338    core radius for aug-charge                              
                                                                                
   Atomic configuration                                                         
    4 entries                                                                   
     n  l   j            E        occ.                                          
     1  0  0.50      -384.7179   2.0000                                         
     2  0  0.50       -18.5828   2.0000                                         
     2  1  0.50        -7.0898   3.0000                                         
     3  2  1.50        -6.8029   0.0000                                         
   Description                                                                  
     l       E           TYP  RCUT    TYP  RCUT                                 
     0    -18.5828119     23  1.200                                             
     0    -13.5018863     23  1.200                                             
     1     -7.0897853     23  1.500                                             
     1      9.5240782     23  1.500                                             
     2     -6.8029130      7  1.500                                             
  local pseudopotential read in
  partial core-charges read in
  partial kinetic energy density read in
  atomic valenz-charges read in
  non local Contribution for L=           0  read in
    real space projection operators read in
  non local Contribution for L=           0  read in
    real space projection operators read in
  non local Contribution for L=           1  read in
    real space projection operators read in
  non local Contribution for L=           1  read in
    real space projection operators read in
    PAW grid and wavefunctions read in
 
   number of l-projection  operators is LMAX  =           4
   number of lm-projection operators is LMMAX =           8
 
 POTCAR:    PAW_PBE Ge_d 03Jul2007                
   SHA256 =  944b26c40d2d7c4f4eb1ff3a2e8dbfdd7129146276cd341854bfd5c0e57780ed Ge
   COPYR  = (c) Copyright 03Jul2007 Georg Kresse                                
   COPYR  = This file is part of the software VASP. Any use, copying, and all ot
   COPYR  = If you do not have a valid VASP license, you may not use, copy or di
   VRHFIN =Ge: 3d4s4p                                                           
   LEXCH  = PE                                                                  
   EATOM  =  2596.2402 eV,  190.8183 Ry                                         
                                                                                
   TITEL  = PAW_PBE Ge_d 03Jul2007                                              
   LULTRA =        F    use ultrasoft PP ?                                      
   IUNSCR =        1    unscreen: 0-lin 1-nonlin 2-no                           
   RPACOR =    2.000    partial core radius                                     
   POMASS =   72.610; ZVAL   =   14.000    mass and valenz                      
   RCORE  =    2.300    outmost cutoff radius                                   
   RWIGS  =    2.300; RWIGS  =    1.217    wigner-seitz radius (au A)           
   ENMAX  =  310.294; ENMIN  =  232.720 eV                                      
   ICORE  =        3    local potential                                         
   LCOR   =        T    correct aug charges                                     
   LPAW   =        T    paw PP                                                  
   EAUG   =  531.356                                                            
   DEXC   =    0.000                                                            
   RMAX   =    2.342    core radius for proj-oper                               
   RAUG   =    1.300    factor for augmentation sphere                          
   RDEP   =    2.318    radius for radial grids                                 
   RDEPT  =    1.783    core radius for aug-charge                              
                                                                                
   Atomic configuration                                                         
    9 entries                                                                   
     n  l   j            E        occ.                                          
     1  0  0.50    -10959.8463   2.0000                                         
     2  0  0.50     -1371.6056   2.0000                                         
     2  1  1.50     -1198.4791   6.0000                                         
     3  0  0.50      -168.4733   2.0000                                         
     3  1  1.50      -115.6019   6.0000                                         
     3  2  2.50       -29.3106  10.0000                                         
     4  0  0.50       -11.7309   2.0000                                         
     4  1  0.50        -3.8952   2.0000                                         
     4  3  2.50        -4.0817   0.0000                                         
   Description                                                                  
     l       E           TYP  RCUT    TYP  RCUT                                 
     2    -29.3105938     23  2.200                                             
     2    -13.6058260     23  2.200                                             
     0    -11.7309493     23  2.300                                             
     0     -7.4578696     23  2.300                                             
     1     -3.8952261     23  2.300                                             
     1      6.1178114     23  2.300                                             
     3     -1.3605826     23  2.300                                             
  local pseudopotential read in
  partial core-charges read in
  partial kinetic energy density read in
  atomic valenz-charges read in
  non local Contribution for L=           2  read in
    real space projection operators read in
  non local Contribution for L=           2  read in
    real space projection operators read in
  non local Contribution for L=           0  read in
    real space projection operators read in
  non local Contribution for L=           0  read in
    real space projection operators read in
  non local Contribution for L=           1  read in
    real space projection operators read in
  non local Contribution for L=           1  read in
    real space projection operators read in
    PAW grid and wavefunctions read in
 
   number of l-projection  operators is LMAX  =           6
   number of lm-projection operators is LMMAX =          18
 

 ----------------------------------------------------------------------------- 
|                                                                             |
|  ADVICE TO THIS USER RUNNING 'VASP/VAMP'   (HEAR YOUR MASTER'S VOICE ...):  |
|                                                                             |
|      You have a (more or less) 'large supercell' and for larger cells       |
|      it might be more efficient to use real space projection opertators     |
|      So try LREAL= Auto  in the INCAR   file.                               |
|      Mind:          For very  accurate calculation you might also keep the  |
|      reciprocal projection scheme          (i.e. LREAL=.FALSE.)             |
|                                                                             |
 ----------------------------------------------------------------------------- 

  PAW_PBE C 08Apr2002                   :
 energy of atom  1       EATOM= -147.1560
 kinetic energy error for atom=    0.0132 (will be added to EATOM!!)
  PAW_PBE N 08Apr2002                   :
 energy of atom  2       EATOM= -264.5486
 kinetic energy error for atom=    0.0298 (will be added to EATOM!!)
  PAW_PBE Ge_d 03Jul2007                :
 energy of atom  3       EATOM=-2596.2402
 kinetic energy error for atom=    0.0090 (will be added to EATOM!!)
 
 
 POSCAR: POSCAR-c3n4                             
  positions in cartesian coordinates
  No initial velocities read in
 exchange correlation table for  LEXCH =        8
   RHO(1)=    0.500       N(1)  =     2000
   RHO(2)=  100.500       N(2)  =     4000

 VTST: version 3.2, (02/03/18)

 CHAIN: initializing optimizer
 
 OPT: Using VASP Dynamics algorithm
 CHAIN: Read ICHAIN            0
 
 POSCAR: POSCAR-c3n4                             
  positions in cartesian coordinates
  No initial velocities read in
 


--------------------------------------------------------------------------------------------------------


 ion  position               nearest neighbor table
   1  0.106  0.214  0.426-  26 1.47  46 1.48  25 1.56
   2  0.288  0.399  0.433-  29 1.45  35 1.52  25 1.58
   3  0.104  0.392  0.427-  44 1.45  39 1.52  25 1.57
   4  0.447  0.064  0.506-  30 1.46  27 1.47  48 1.55
   5  0.453  0.401  0.413-  28 1.46  29 1.47  56 1.57
   6  0.112  0.053  0.449-  26 1.46  31 1.47  32 1.54
   7  0.096  0.712  0.484-  54 1.46  34 1.49  33 1.55
   8  0.284  0.890  0.501-  27 1.47  37 1.49  33 1.56
   9  0.109  0.895  0.498-  31 1.46  52 1.48  33 1.58
  10  0.448  0.548  0.502-  38 1.46  56 1.49  35 1.50
  11  0.445  0.885  0.489-  37 1.47  36 1.47  48 1.52
  12  0.087  0.542  0.481-  34 1.45  40 1.48  39 1.49
  13  0.616  0.223  0.473-  42 1.48  30 1.49  41 1.55
  14  0.780  0.390  0.400-  45 1.48  51 1.50  41 1.55
  15  0.610  0.394  0.435-  28 1.47  55 1.48  41 1.60
  16  0.940  0.052  0.461-  46 1.45  43 1.47  32 1.54
  17  0.941  0.387  0.394-  45 1.45  44 1.48  40 1.56
  18  0.623  0.066  0.512-  42 1.46  47 1.47  48 1.55
  19  0.613  0.711  0.531-  50 1.46  38 1.50  49 1.55
  20  0.790  0.897  0.523-  43 1.46  53 1.47  49 1.59
  21  0.609  0.892  0.521-  47 1.47  36 1.48  49 1.58
  22  0.938  0.563  0.421-  51 1.44  54 1.48  40 1.56
  23  0.954  0.902  0.535-  52 1.47  53 1.48  32 1.54
  24  0.621  0.555  0.490-  55 1.45  50 1.46  56 1.55
  25  0.167  0.335  0.425-   1 1.56   3 1.57   2 1.58
  26  0.165  0.161  0.421-   6 1.46   1 1.47
  27  0.336  0.002  0.522-   8 1.47   4 1.47
  28  0.512  0.352  0.392-   5 1.46  15 1.47
  29  0.345  0.361  0.390-   2 1.45   5 1.47
  30  0.506  0.177  0.493-   4 1.46  13 1.49
  31  0.159  0.988  0.447-   9 1.46   6 1.47
  32  0.002  0.002  0.483-  16 1.54  23 1.54   6 1.54
  33  0.165  0.831  0.500-   7 1.55   8 1.56   9 1.58
  34  0.134  0.645  0.518-  12 1.45   7 1.49
  35  0.334  0.491  0.492-  10 1.50   2 1.52  57 2.27
  36  0.503  0.831  0.490-  11 1.47  21 1.48
  37  0.333  0.829  0.479-  11 1.47   8 1.49
  38  0.499  0.648  0.545-  10 1.46  19 1.50
  39  0.142  0.484  0.485-  12 1.49   3 1.52  57 2.29
  40  0.988  0.496  0.436-  12 1.48  22 1.56  17 1.56
  41  0.667  0.330  0.429-  13 1.55  14 1.55  15 1.60
  42  0.680  0.178  0.495-  18 1.46  13 1.48
  43  0.827  0.986  0.468-  20 1.46  16 1.47
  44  0.011  0.348  0.379-   3 1.45  17 1.48
  45  0.830  0.330  0.380-  17 1.45  14 1.48
  46  0.993  0.161  0.435-  16 1.45   1 1.48
  47  0.669  0.005  0.539-  21 1.47  18 1.47
  48  0.505  0.004  0.498-  11 1.52  18 1.55   4 1.55
  49  0.668  0.832  0.534-  19 1.55  21 1.58  20 1.59
  50  0.675  0.666  0.512-  19 1.46  24 1.46
  51  0.832  0.507  0.396-  22 1.44  14 1.50
  52  0.016  0.853  0.549-  23 1.47   9 1.48
  53  0.849  0.860  0.566-  20 1.47  23 1.48
  54  0.004  0.677  0.435-   7 1.46  22 1.48
  55  0.668  0.491  0.484-  24 1.45  15 1.48
  56  0.506  0.502  0.467-  10 1.49  24 1.55   5 1.57
  57  0.287  0.593  0.558-  35 2.27  39 2.29
 

IMPORTANT INFORMATION: All symmetrisations will be switched off!
NOSYMM: (Re-)initialisation of all symmetry stuff for point group C_1.

 
 
 KPOINTS: K-Points                                

Automatic generation of k-mesh.
Space group operators:
 irot       det(A)        alpha          n_x          n_y          n_z        tau_x        tau_y        tau_z
    1     1.000000     0.000000     1.000000     0.000000     0.000000     0.000000     0.000000     0.000000
 
 Subroutine IBZKPT returns following result:
 ===========================================
 
 Found      5 irreducible k-points:
 
 Following reciprocal coordinates:
            Coordinates               Weight
  0.000000  0.000000  0.000000      1.000000
  0.333333 -0.000000  0.000000      2.000000
  0.000000  0.333333  0.000000      2.000000
  0.333333  0.333333  0.000000      2.000000
 -0.333333  0.333333  0.000000      2.000000
 
 Following cartesian coordinates:
            Coordinates               Weight
  0.000000  0.000000  0.000000      1.000000
  0.024277  0.014368  0.000000      2.000000
  0.000396  0.028736  0.000000      2.000000
  0.024673  0.043104  0.000000      2.000000
 -0.023881  0.014368  0.000000      2.000000
 
 TETIRR: Found     24 inequivalent tetrahedra from       54


--------------------------------------------------------------------------------------------------------




 Dimension of arrays:
   k-points           NKPTS =      5   k-points in BZ     NKDIM =      5   number of bands    NBANDS=    168
   number of dos      NEDOS =   4000   number of ions     NIONS =     57
   non local maximal  LDIM  =      6   non local SUM 2l+1 LMDIM =     18
   total plane-waves  NPLWV = 576000
   max r-space proj   IRMAX =      1   max aug-charges    IRDMAX=   6241
   dimension x,y,z NGX =    80 NGY =   80 NGZ =   90
   dimension x,y,z NGXF=   160 NGYF=  160 NGZF=  180
   support grid    NGXF=   160 NGYF=  160 NGZF=  180
   ions per type =              24  32   1
   NGX,Y,Z   is equivalent  to a cutoff of   8.73,  8.90,  9.07 a.u.
   NGXF,Y,Z  is equivalent  to a cutoff of  17.47, 17.79, 18.14 a.u.

 SYSTEM =  unknown system                          
 POSCAR =  POSCAR-c3n4                             

 Startparameter for this run:
   NWRITE =      2    write-flag & timer
   PREC   = normal    normal or accurate (medium, high low for compatibility)
   ISTART =      0    job   : 0-new  1-cont  2-samecut
   ICHARG =      2    charge: 1-file 2-atom 10-const
   ISPIN  =      2    spin polarized calculation?
   LNONCOLLINEAR =      F non collinear calculations
   LSORBIT =      F    spin-orbit coupling
   INIWAV =      1    electr: 0-lowe 1-rand  2-diag
   LASPH  =      F    aspherical Exc in radial PAW
   METAGGA=      F    non-selfconsistent MetaGGA calc.

 Electronic Relaxation 1
   ENCUT  =  440.0 eV  32.34 Ry    5.69 a.u.  26.05 25.57 28.22*2*pi/ulx,y,z
   ENINI  =  440.0     initial cutoff
   ENAUG  =  644.9 eV  augmentation charge cutoff
   NELM   =    100;   NELMIN=  2; NELMDL= -5     # of ELM steps 
   EDIFF  = 0.1E-03   stopping-criterion for ELM
   LREAL  =      F    real-space projection
   NLSPLINE    = F    spline interpolate recip. space projectors
   LCOMPAT=      F    compatible to vasp.4.4
   GGA_COMPAT  = T    GGA compatible to vasp.4.4-vasp.4.6
   LMAXPAW     = -100 max onsite density
   LMAXMIX     =    2 max onsite mixed and CHGCAR
   VOSKOWN=      0    Vosko Wilk Nusair interpolation
   ROPT   =    0.00000   0.00000   0.00000
 Ionic relaxation
   EDIFFG = -.1E-01   stopping-criterion for IOM
   NSW    =      0    number of steps for IOM
   NBLOCK =      1;   KBLOCK =      1    inner block; outer block 
   IBRION =     -1    ionic relax: 0-MD 1-quasi-New 2-CG
   NFREE  =      0    steps in history (QN), initial steepest desc. (CG)
   ISIF   =      2    stress and relaxation
   IWAVPR =     10    prediction:  0-non 1-charg 2-wave 3-comb
   ISYM   =      0    0-nonsym 1-usesym 2-fastsym
   LCORR  =      T    Harris-Foulkes like correction to forces

   POTIM  = 0.5000    time-step for ionic-motion
   TEIN   =    0.0    initial temperature
   TEBEG  =    0.0;   TEEND  =   0.0 temperature during run
   SMASS  =  -3.00    Nose mass-parameter (am)
   estimated Nose-frequenzy (Omega)   =  0.10E-29 period in steps =****** mass=  -0.530E-26a.u.
   SCALEE = 1.0000    scale energy and forces
   NPACO  =    256;   APACO  = 16.0  distance and # of slots for P.C.
   PSTRESS=    0.0 pullay stress

  Mass of Ions in am
   POMASS =  12.01 14.00 72.61
  Ionic Valenz
   ZVAL   =   4.00  5.00 14.00
  Atomic Wigner-Seitz radii
   RWIGS  =  -1.00 -1.00 -1.00
  virtual crystal weights 
   VCA    =   1.00  1.00  1.00
   NELECT =     270.0000    total number of electrons
   NUPDOWN=      -1.0000    fix difference up-down

 DOS related values:
   EMIN   = -14.00;   EMAX   =  6.00  energy-range for DOS
   EFERMI =   0.00
   ISMEAR =    -5;   SIGMA  =   0.20  broadening in eV -4-tet -1-fermi 0-gaus

 Electronic relaxation 2 (details)
   IALGO  =     38    algorithm
   LDIAG  =      T    sub-space diagonalisation (order eigenvalues)
   LSUBROT=      F    optimize rotation matrix (better conditioning)
   TURBO    =      0    0=normal 1=particle mesh
   IRESTART =      0    0=no restart 2=restart with 2 vectors
   NREBOOT  =      0    no. of reboots
   NMIN     =      0    reboot dimension
   EREF     =   0.00    reference energy to select bands
   IMIX   =      4    mixing-type and parameters
     AMIX     =   0.25;   BMIX     =  0.00
     AMIX_MAG =   1.00;   BMIX_MAG =  0.00
     AMIN     =   0.10
     WC   =   100.;   INIMIX=   1;  MIXPRE=   1;  MAXMIX= -45

 Intra band minimization:
   WEIMIN = 0.0000     energy-eigenvalue tresh-hold
   EBREAK =  0.15E-06  absolut break condition
   DEPER  =   0.30     relativ break condition  

   TIME   =   0.40     timestep for ELM

  volume/ion in A,a.u.               =      56.25       379.56
  Fermi-wavevector in a.u.,A,eV,Ry     =   0.717587  1.356043  7.006068  0.514931
  Thomas-Fermi vector in A             =   1.806306
 
 Write flags
   LWAVE        =      F    write WAVECAR
   LDOWNSAMPLE  =      F    k-point downsampling of WAVECAR
   LCHARG       =      F    write CHGCAR
   LVTOT        =      F    write LOCPOT, total local potential
   LVHAR        =      F    write LOCPOT, Hartree potential only
   LELF         =      F    write electronic localiz. function (ELF)
   LORBIT       =     11    0 simple, 1 ext, 2 COOP (PROOUT), +10 PAW based schemes


 Dipole corrections
   LMONO  =      F    monopole corrections only (constant potential shift)
   LDIPOL =      F    correct potential (dipole corrections)
   IDIPOL =      0    1-x, 2-y, 3-z, 4-all directions 
   EPSILON=  1.0000000 bulk dielectric constant

 Exchange correlation treatment:
   GGA     =    --    GGA type
   LEXCH   =     8    internal setting for exchange type
   VOSKOWN=      0    Vosko Wilk Nusair interpolation
   LHFCALC =     F    Hartree Fock is set to
   LHFONE  =     F    Hartree Fock one center treatment
   AEXX    =    0.0000 exact exchange contribution

 Linear response parameters
   LEPSILON=     F    determine dielectric tensor
   LRPA    =     F    only Hartree local field effects (RPA)
   LNABLA  =     F    use nabla operator in PAW spheres
   LVEL    =     F    velocity operator in full k-point grid
   LINTERFAST=   F  fast interpolation
   KINTER  =     0    interpolate to denser k-point grid
   CSHIFT  =0.1000    complex shift for real part using Kramers Kronig
   OMEGAMAX=  -1.0    maximum frequency
   DEG_THRESHOLD= 0.2000000E-02 threshold for treating states as degnerate
   RTIME   =   -0.100 relaxation time in fs
  (WPLASMAI=    0.000 imaginary part of plasma frequency in eV, 0.658/RTIME)
   DFIELD  = 0.0000000 0.0000000 0.0000000 field for delta impulse in time
 
 Orbital magnetization related:
   ORBITALMAG=     F  switch on orbital magnetization
   LCHIMAG   =     F  perturbation theory with respect to B field
   DQ        =  0.001000  dq finite difference perturbation B field
   LLRAUG    =     F  two centre corrections for induced B field



--------------------------------------------------------------------------------------------------------


 Static calculation
 charge density and potential will be updated during run
 spin polarized calculation
 Variant of blocked Davidson
 Davidson routine will perform the subspace rotation
 perform sub-space diagonalisation
    after iterative eigenvector-optimisation
 modified Broyden-mixing scheme, WC =      100.0
 initial mixing is a Kerker type mixing with AMIX =  0.2500 and BMIX =      0.0001
 Hartree-type preconditioning will be used
 using additional bands           33
 reciprocal scheme for non local part
 use partial core corrections
 calculate Harris-corrections to forces 
   (improved forces if not selfconsistent)
 use gradient corrections 
 use of overlap-Matrix (Vanderbilt PP)
 Fermi weights with tetrahedron method with Bloechl corrections


--------------------------------------------------------------------------------------------------------


  energy-cutoff  :      440.00
  volume of cell :     3206.00
      direct lattice vectors                 reciprocal lattice vectors
    15.227766658 -0.209814521  0.000000000     0.066209427  0.039185558  0.000000000
    -7.613883329 12.864710093  0.000000000     0.001079830  0.078371117  0.000000000
     0.000000000  0.000000000 16.500000000     0.000000000  0.000000000  0.060606061

  length of vectors
    15.229212045 14.948979401 16.500000000     0.076936312  0.078378556  0.060606061


 
 k-points in units of 2pi/SCALE and weight: K-Points                                
   0.00000000  0.00000000  0.00000000       0.111
   0.02427679  0.01436804  0.00000000       0.222
   0.00039594  0.02873608  0.00000000       0.222
   0.02467273  0.04310411  0.00000000       0.222
  -0.02388085  0.01436804  0.00000000       0.222
 
 k-points in reciprocal lattice and weights: K-Points                                
   0.00000000  0.00000000  0.00000000       0.111
   0.33333333 -0.00000000  0.00000000       0.222
   0.00000000  0.33333333  0.00000000       0.222
   0.33333333  0.33333333  0.00000000       0.222
  -0.33333333  0.33333333  0.00000000       0.222
 
 position of ions in fractional coordinates (direct lattice) 
   0.10567936  0.21351909  0.42646415
   0.28750403  0.39866334  0.43315811
   0.10379301  0.39177313  0.42728737
   0.44732828  0.06383887  0.50569377
   0.45258916  0.40124889  0.41252546
   0.11203481  0.05273921  0.44868132
   0.09638015  0.71191070  0.48390127
   0.28433946  0.89006364  0.50120122
   0.10941441  0.89537413  0.49812536
   0.44792521  0.54827090  0.50190381
   0.44544784  0.88520183  0.48897001
   0.08690842  0.54210436  0.48067119
   0.61614813  0.22292684  0.47270451
   0.78023735  0.38968276  0.39988272
   0.61037743  0.39432339  0.43546161
   0.93951642  0.05229783  0.46070020
   0.94071854  0.38652888  0.39388003
   0.62278394  0.06558106  0.51203168
   0.61322902  0.71118454  0.53124878
   0.78984871  0.89727295  0.52288011
   0.60944297  0.89248269  0.52132702
   0.93832005  0.56283419  0.42050954
   0.95436023  0.90171878  0.53466451
   0.62130548  0.55465507  0.48986027
   0.16668926  0.33545237  0.42502835
   0.16473950  0.16097029  0.42095206
   0.33626584  0.00180669  0.52215766
   0.51175722  0.35246859  0.39238613
   0.34471728  0.36074551  0.38975287
   0.50565751  0.17673507  0.49315170
   0.15873210  0.98821904  0.44665654
   0.00214731  0.00186372  0.48284181
   0.16462634  0.83083069  0.50025956
   0.13400723  0.64526801  0.51778798
   0.33371346  0.49116238  0.49155062
   0.50288345  0.83078126  0.48972341
   0.33307237  0.82932770  0.47937372
   0.49902190  0.64803204  0.54483375
   0.14173676  0.48364631  0.48511610
   0.98839512  0.49595573  0.43598798
   0.66736443  0.33015381  0.42931770
   0.67970142  0.17802103  0.49523771
   0.82720183  0.98622484  0.46784919
   0.01097216  0.34809993  0.37880244
   0.83047981  0.33016544  0.37952861
   0.99296173  0.16101876  0.43513088
   0.66886761  0.00524437  0.53948092
   0.50484899  0.00388347  0.49830916
   0.66830364  0.83227641  0.53419919
   0.67536455  0.66551462  0.51246466
   0.83211404  0.50666912  0.39574663
   0.01584380  0.85299492  0.54867721
   0.84924332  0.85956436  0.56604968
   0.00424175  0.67726383  0.43455477
   0.66753141  0.49127771  0.48382075
   0.50565566  0.50179634  0.46716125
   0.28676550  0.59288202  0.55779478
 
 position of ions in cartesian coordinates  (Angst):
  -0.01644875  2.72468807  7.03665850
   1.34266808  5.06836576  7.14710887
  -1.40237924  5.01827047  7.05024162
   6.32574898  0.72741255  8.34394714
   3.83685979  5.06699091  6.80667009
   1.30448977  0.65496816  7.40324180
  -3.95275060  9.13830283  7.98437098
  -2.44698580 11.39075213  8.26982017
  -5.15113714 11.49577189  8.21906841
   2.64642997  6.95936498  8.28141283
   0.04335235 11.29440351  8.06800509
  -2.80409829  6.95578084  7.93107458
   7.68522100  2.73861236  7.79962437
   8.91427318  4.84945065  6.59806487
   6.29235272  4.94479009  7.18511661
  13.90854731  0.47567220  7.60155333
  11.38205666  4.77520561  6.49902053
   8.98428198  0.71301215  8.44852267
   3.92323237  9.02051861  8.76560483
   5.19590026 11.37743469  8.62752174
   2.48519623 11.35366103  8.60189587
  10.00316490  7.04382556  6.93840742
   7.66719323 11.40011208  8.82196448
   5.23801592  7.00511781  8.08269440
  -0.01579005  4.28052369  7.01296774
   1.28300572  2.03627133  6.94570897
   5.10682177 -0.04731094  8.61560134
   5.10926488  4.42703209  6.47437122
   2.50260004  4.56855973  6.43092241
   6.35439430  2.16755121  8.13700302
  -5.10704918 12.67984718  7.36983296
   0.01850861  0.02352568  7.96688992
  -3.81895635 10.65385493  8.25428279
  -2.87236451  8.27306919  8.54350162
   1.34205771  6.24864365  8.11058522
   1.33232028 10.58224775  8.08043635
  -1.24245604 10.59917700  7.90966643
   2.66494872  8.23204229  8.98975691
  -1.52409227  6.19223108  8.00441568
  11.27490122  6.17294707  7.19380162
   7.64871723  4.10731034  7.08374208
   8.99490332  2.14757770  8.17142221
   5.08743564 12.51393768  7.71951160
  -2.48331076  4.47590250  6.25024026
  10.13251159  4.07323594  6.26222208
  13.89461141  1.86312187  7.17965944
  10.14542997 -0.07287089  8.90143512
   7.65815436 -0.05596493  8.22210114
   3.83991648 10.56677489  8.81428670
   5.21714306  8.41995138  8.45566686
   8.81351880  6.34356176  6.52981939
  -6.25333817 10.97020812  9.05317401
   6.38745635 10.87986277  9.33981971
  -5.09201546  8.71191289  7.17015371
   6.42448131  6.18008755  7.98304233
   3.87938758  6.34937059  7.70816058
  -0.14733644  7.56708780  9.20361392
 


--------------------------------------------------------------------------------------------------------


 k-point  1 :   0.0000 0.0000 0.0000  plane waves:   67161
 k-point  2 :   0.3333-0.0000 0.0000  plane waves:   67171
 k-point  3 :   0.0000 0.3333 0.0000  plane waves:   67191
 k-point  4 :   0.3333 0.3333 0.0000  plane waves:   67211
 k-point  5 :  -0.3333 0.3333 0.0000  plane waves:   67188

 maximum and minimum number of plane-waves per node :      5625     5565

 maximum number of plane-waves:     67211
 maximum index in each direction: 
   IXMAX=   26   IYMAX=   25   IZMAX=   28
   IXMIN=  -26   IYMIN=  -25   IZMIN=  -28


 parallel 3D FFT for wavefunctions:
    minimum data exchange during FFTs selected (reduces bandwidth)
 parallel 3D FFT for charge:
    minimum data exchange during FFTs selected (reduces bandwidth)


 total amount of memory used by VASP MPI-rank0   105064. kBytes
=======================================================================

   base      :      30000. kBytes
   nonl-proj :      17252. kBytes
   fftplans  :       5290. kBytes
   grid      :      14279. kBytes
   one-center:        155. kBytes
   wavefun   :      38088. kBytes
 
     INWAV:  cpu time    0.0000: real time    0.0002
 Broyden mixing: mesh for mixing (old mesh)
   NGX = 53   NGY = 51   NGZ = 57
  (NGX  =160   NGY  =160   NGZ  =180)
  gives a total of 154071 points

 initial charge density was supplied:
 charge density of overlapping atoms calculated
 number of electron     270.0000000 magnetization       1.0000000
 keeping initial charge density in first step


--------------------------------------------------------------------------------------------------------


 Maximum index for augmentation-charges          353 (set IRDMAX)


--------------------------------------------------------------------------------------------------------


 First call to EWALD:  gamma=   0.120
 Maximum number of real-space cells 3x 3x 3
 Maximum number of reciprocal cells 3x 3x 3

    FEWALD:  cpu time    0.0039: real time    0.0041


--------------------------------------- Iteration      1(   1)  ---------------------------------------


    POTLOK:  cpu time    0.2290: real time    0.2581
    SETDIJ:  cpu time    0.0092: real time    0.0099
     EDDAV:  cpu time    9.8265: real time    9.9424
 BZINTS: Fermi energy:  7.619225;270.000000 electrons
         Band energy:***********;  BLOECHL correction: -0.017792
       DOS:  cpu time    0.0808: real time    0.0812
    --------------------------------------------
      LOOP:  cpu time   10.1455: real time   10.2915

 eigenvalue-minimisations  :  3832
 total energy-change (2. order) : 0.2405039E+04  (-0.9207332E+04)
 number of electron     270.0000000 magnetization       1.0000000
 augmentation part      270.0000000 magnetization       1.0000000

 Free energy of the ion-electron system (eV)
  ---------------------------------------------------
  alpha Z        PSCENC =       108.39487126
  Ewald energy   TEWEN  =     24893.94052159
  -Hartree energ DENC   =    -36568.18065369
  -exchange      EXHF   =         0.00000000
  -V(xc)+E(xc)   XCENC  =       994.25088436
  PAW double counting   =     10998.91041168   -11485.61342155
  entropy T*S    EENTRO =         0.00000000
  eigenvalues    EBANDS =     -1128.92367363
  atomic energy  EATOM  =     14592.26033195
  Solvation  Ediel_sol  =         0.00000000
  ---------------------------------------------------
  free energy    TOTEN  =      2405.03927197 eV

  energy without entropy =     2405.03927197  energy(sigma->0) =     2405.03927197


--------------------------------------------------------------------------------------------------------




--------------------------------------- Iteration      1(   2)  ---------------------------------------


     EDDAV:  cpu time   12.9696: real time   13.2509
 BZINTS: Fermi energy: -0.201531;270.000000 electrons
         Band energy:***********;  BLOECHL correction:  0.000000
       DOS:  cpu time    0.0051: real time    0.0051
    --------------------------------------------
      LOOP:  cpu time   12.9747: real time   13.2561

 eigenvalue-minimisations  :  4808
 total energy-change (2. order) :-0.2286516E+04  (-0.2182331E+04)
 number of electron     270.0000000 magnetization       1.0000000
 augmentation part      270.0000000 magnetization       1.0000000

 Free energy of the ion-electron system (eV)
  ---------------------------------------------------
  alpha Z        PSCENC =       108.39487126
  Ewald energy   TEWEN  =     24893.94052159
  -Hartree energ DENC   =    -36568.18065369
  -exchange      EXHF   =         0.00000000
  -V(xc)+E(xc)   XCENC  =       994.25088436
  PAW double counting   =     10998.91041168   -11485.61342155
  entropy T*S    EENTRO =         0.00000000
  eigenvalues    EBANDS =     -3415.43991766
  atomic energy  EATOM  =     14592.26033195
  Solvation  Ediel_sol  =         0.00000000
  ---------------------------------------------------
  free energy    TOTEN  =       118.52302794 eV

  energy without entropy =      118.52302794  energy(sigma->0) =      118.52302794


--------------------------------------------------------------------------------------------------------




--------------------------------------- Iteration      1(   3)  ---------------------------------------


     EDDAV:  cpu time   11.4425: real time   11.5537
 BZINTS: Fermi energy: -3.701615;270.000000 electrons
         Band energy:***********;  BLOECHL correction: -0.005475
       DOS:  cpu time    0.0094: real time    0.0094
    --------------------------------------------
      LOOP:  cpu time   11.4518: real time   11.5631

 eigenvalue-minimisations  :  4248
 total energy-change (2. order) :-0.5631926E+03  (-0.5583176E+03)
 number of electron     270.0000000 magnetization       1.0000000
 augmentation part      270.0000000 magnetization       1.0000000

 Free energy of the ion-electron system (eV)
  ---------------------------------------------------
  alpha Z        PSCENC =       108.39487126
  Ewald energy   TEWEN  =     24893.94052159
  -Hartree energ DENC   =    -36568.18065369
  -exchange      EXHF   =         0.00000000
  -V(xc)+E(xc)   XCENC  =       994.25088436
  PAW double counting   =     10998.91041168   -11485.61342155
  entropy T*S    EENTRO =         0.00000000
  eigenvalues    EBANDS =     -3978.63256322
  atomic energy  EATOM  =     14592.26033195
  Solvation  Ediel_sol  =         0.00000000
  ---------------------------------------------------
  free energy    TOTEN  =      -444.66961762 eV

  energy without entropy =     -444.66961762  energy(sigma->0) =     -444.66961762


--------------------------------------------------------------------------------------------------------




--------------------------------------- Iteration      1(   4)  ---------------------------------------


     EDDAV:  cpu time   10.9882: real time   11.1141
 BZINTS: Fermi energy: -4.076269;270.000000 electrons
         Band energy:***********;  BLOECHL correction:  0.000000
       DOS:  cpu time    0.0039: real time    0.0039
    --------------------------------------------
      LOOP:  cpu time   10.9920: real time   11.1179

 eigenvalue-minimisations  :  4048
 total energy-change (2. order) :-0.2658740E+02  (-0.2580299E+02)
 number of electron     270.0000000 magnetization       1.0000000
 augmentation part      270.0000000 magnetization       1.0000000

 Free energy of the ion-electron system (eV)
  ---------------------------------------------------
  alpha Z        PSCENC =       108.39487126
  Ewald energy   TEWEN  =     24893.94052159
  -Hartree energ DENC   =    -36568.18065369
  -exchange      EXHF   =         0.00000000
  -V(xc)+E(xc)   XCENC  =       994.25088436
  PAW double counting   =     10998.91041168   -11485.61342155
  entropy T*S    EENTRO =         0.00000000
  eigenvalues    EBANDS =     -4005.21996678
  atomic energy  EATOM  =     14592.26033195
  Solvation  Ediel_sol  =         0.00000000
  ---------------------------------------------------
  free energy    TOTEN  =      -471.25702118 eV

  energy without entropy =     -471.25702118  energy(sigma->0) =     -471.25702118


--------------------------------------------------------------------------------------------------------




--------------------------------------- Iteration      1(   5)  ---------------------------------------


     EDDAV:  cpu time   13.1838: real time   13.4162
 BZINTS: Fermi energy: -4.111278;270.000000 electrons
         Band energy:***********;  BLOECHL correction:  0.000000
       DOS:  cpu time    0.0038: real time    0.0039
    CHARGE:  cpu time    0.1747: real time    0.1792
    MIXING:  cpu time    0.0049: real time    0.0050
    --------------------------------------------
      LOOP:  cpu time   13.3672: real time   13.6043

 eigenvalue-minimisations  :  5072
 total energy-change (2. order) :-0.1442007E+01  (-0.1425164E+01)
 number of electron     270.0000023 magnetization       0.0000001
 augmentation part       17.5674691 magnetization       0.0008666

 Broyden mixing:
  rms(total) = 0.33697E+01    rms(broyden)= 0.33667E+01
  rms(prec ) = 0.37364E+01
  weight for this iteration     100.00

 Free energy of the ion-electron system (eV)
  ---------------------------------------------------
  alpha Z        PSCENC =       108.39487126
  Ewald energy   TEWEN  =     24893.94052159
  -Hartree energ DENC   =    -36568.18065369
  -exchange      EXHF   =         0.00000000
  -V(xc)+E(xc)   XCENC  =       994.25088436
  PAW double counting   =     10998.91041168   -11485.61342155
  entropy T*S    EENTRO =         0.00000000
  eigenvalues    EBANDS =     -4006.66197347
  atomic energy  EATOM  =     14592.26033195
  Solvation  Ediel_sol  =         0.00000000
  ---------------------------------------------------
  free energy    TOTEN  =      -472.69902787 eV

  energy without entropy =     -472.69902787  energy(sigma->0) =     -472.69902787


--------------------------------------------------------------------------------------------------------




--------------------------------------- Iteration      1(   6)  ---------------------------------------


    POTLOK:  cpu time    0.1635: real time    0.1664
    SETDIJ:  cpu time    0.0101: real time    0.0101
     EDDAV:  cpu time   11.0173: real time   11.1006
 BZINTS: Fermi energy: -4.291323;270.000000 electrons
         Band energy:***********;  BLOECHL correction:  0.000000
       DOS:  cpu time    0.0039: real time    0.0039
    CHARGE:  cpu time    0.1763: real time    0.1790
    MIXING:  cpu time    0.0045: real time    0.0045
    --------------------------------------------
      LOOP:  cpu time   11.3755: real time   11.4646

 eigenvalue-minimisations  :  4392
 total energy-change (2. order) : 0.1892262E+02  (-0.6158531E+01)
 number of electron     270.0000028 magnetization      -0.0000000
 augmentation part       16.3575625 magnetization      -0.0059158

 Broyden mixing:
  rms(total) = 0.19468E+01    rms(broyden)= 0.19461E+01
  rms(prec ) = 0.20790E+01
  weight for this iteration     100.00

 eigenvalues of (default mixing * dielectric matrix)
  average eigenvalue GAMMA=   1.1601
  1.1601

 Free energy of the ion-electron system (eV)
  ---------------------------------------------------
  alpha Z        PSCENC =       108.39487126
  Ewald energy   TEWEN  =     24893.94052159
  -Hartree energ DENC   =    -36732.54573644
  -exchange      EXHF   =         0.00000000
  -V(xc)+E(xc)   XCENC  =      1004.79200948
  PAW double counting   =     13238.53304571   -13725.44372899
  entropy T*S    EENTRO =         0.00000000
  eigenvalues    EBANDS =     -3833.70772357
  atomic energy  EATOM  =     14592.26033195
  Solvation  Ediel_sol  =         0.00000000
  ---------------------------------------------------
  free energy    TOTEN  =      -453.77640902 eV

  energy without entropy =     -453.77640902  energy(sigma->0) =     -453.77640902


--------------------------------------------------------------------------------------------------------




--------------------------------------- Iteration      1(   7)  ---------------------------------------


    POTLOK:  cpu time    0.1587: real time    0.1612
    SETDIJ:  cpu time    0.0089: real time    0.0089
     EDDAV:  cpu time   10.9294: real time   11.0345
 BZINTS: Fermi energy: -4.086272;270.000000 electrons
         Band energy:***********;  BLOECHL correction:  0.000000
       DOS:  cpu time    0.0037: real time    0.0037
    CHARGE:  cpu time    0.1756: real time    0.1814
    MIXING:  cpu time    0.0035: real time    0.0040
    --------------------------------------------
      LOOP:  cpu time   11.2797: real time   11.3937

 eigenvalue-minimisations  :  4168
 total energy-change (2. order) : 0.9900563E+00  (-0.1944319E+01)
 number of electron     270.0000028 magnetization      -0.0000000
 augmentation part       16.2071902 magnetization       0.0005953

 Broyden mixing:
  rms(total) = 0.13917E+01    rms(broyden)= 0.13913E+01
  rms(prec ) = 0.15089E+01
  weight for this iteration     100.00

 eigenvalues of (default mixing * dielectric matrix)
  average eigenvalue GAMMA=   1.2545
  0.8773  1.6318

 Free energy of the ion-electron system (eV)
  ---------------------------------------------------
  alpha Z        PSCENC =       108.39487126
  Ewald energy   TEWEN  =     24893.94052159
  -Hartree energ DENC   =    -36843.31600369
  -exchange      EXHF   =         0.00000000
  -V(xc)+E(xc)   XCENC  =      1009.57579321
  PAW double counting   =     15323.69462212   -15811.27690499
  entropy T*S    EENTRO =         0.00000000
  eigenvalues    EBANDS =     -3726.05958414
  atomic energy  EATOM  =     14592.26033195
  Solvation  Ediel_sol  =         0.00000000
  ---------------------------------------------------
  free energy    TOTEN  =      -452.78635269 eV

  energy without entropy =     -452.78635269  energy(sigma->0) =     -452.78635269


--------------------------------------------------------------------------------------------------------




--------------------------------------- Iteration      1(   8)  ---------------------------------------


    POTLOK:  cpu time    0.1592: real time    0.1624
    SETDIJ:  cpu time    0.0086: real time    0.0087
     EDDAV:  cpu time   10.6488: real time   10.8393
 BZINTS: Fermi energy: -3.846212;270.000000 electrons
         Band energy:***********;  BLOECHL correction:  0.000000
       DOS:  cpu time    0.0040: real time    0.0040
    CHARGE:  cpu time    0.2169: real time    0.2195
    MIXING:  cpu time    0.0042: real time    0.0045
    --------------------------------------------
      LOOP:  cpu time   11.0418: real time   11.2384

 eigenvalue-minimisations  :  4056
 total energy-change (2. order) : 0.1035891E+01  (-0.9303224E+00)
 number of electron     270.0000029 magnetization       0.0000000
 augmentation part       16.0024116 magnetization       0.0006918

 Broyden mixing:
  rms(total) = 0.10066E+01    rms(broyden)= 0.10064E+01
  rms(prec ) = 0.11040E+01
  weight for this iteration     100.00

 eigenvalues of (default mixing * dielectric matrix)
  average eigenvalue GAMMA=   1.4774
  2.7329  1.1156  0.5838

 Free energy of the ion-electron system (eV)
  ---------------------------------------------------
  alpha Z        PSCENC =       108.39487126
  Ewald energy   TEWEN  =     24893.94052159
  -Hartree energ DENC   =    -36898.29060026
  -exchange      EXHF   =         0.00000000
  -V(xc)+E(xc)   XCENC  =      1012.19683144
  PAW double counting   =     17011.05655147   -17499.88721579
  entropy T*S    EENTRO =         0.00000000
  eigenvalues    EBANDS =     -3671.42175351
  atomic energy  EATOM  =     14592.26033195
  Solvation  Ediel_sol  =         0.00000000
  ---------------------------------------------------
  free energy    TOTEN  =      -451.75046186 eV

  energy without entropy =     -451.75046186  energy(sigma->0) =     -451.75046186


--------------------------------------------------------------------------------------------------------




--------------------------------------- Iteration      1(   9)  ---------------------------------------


    POTLOK:  cpu time    0.1355: real time    0.1406
    SETDIJ:  cpu time    0.0085: real time    0.0086
     EDDAV:  cpu time   12.2094: real time   12.3131
 BZINTS: Fermi energy: -3.716179;270.000000 electrons
         Band energy:***********;  BLOECHL correction:  0.000000
       DOS:  cpu time    0.0037: real time    0.0037
    CHARGE:  cpu time    0.1744: real time    0.1759
    MIXING:  cpu time    0.0039: real time    0.0039
    --------------------------------------------
      LOOP:  cpu time   12.5355: real time   12.6457

 eigenvalue-minimisations  :  4824
 total energy-change (2. order) :-0.2801848E+00  (-0.1854185E+01)
 number of electron     270.0000027 magnetization       0.0000000
 augmentation part       16.1470831 magnetization       0.0004682

 Broyden mixing:
  rms(total) = 0.65757E+00    rms(broyden)= 0.65723E+00
  rms(prec ) = 0.83301E+00
  weight for this iteration     100.00

 eigenvalues of (default mixing * dielectric matrix)
  average eigenvalue GAMMA=   1.4379
  3.4516  1.1488  0.5757  0.5757

 Free energy of the ion-electron system (eV)
  ---------------------------------------------------
  alpha Z        PSCENC =       108.39487126
  Ewald energy   TEWEN  =     24893.94052159
  -Hartree energ DENC   =    -36945.01936691
  -exchange      EXHF   =         0.00000000
  -V(xc)+E(xc)   XCENC  =      1014.06683550
  PAW double counting   =     19146.42996058   -19639.06719434
  entropy T*S    EENTRO =         0.00000000
  eigenvalues    EBANDS =     -3623.03660632
  atomic energy  EATOM  =     14592.26033195
  Solvation  Ediel_sol  =         0.00000000
  ---------------------------------------------------
  free energy    TOTEN  =      -452.03064668 eV

  energy without entropy =     -452.03064668  energy(sigma->0) =     -452.03064668


--------------------------------------------------------------------------------------------------------




--------------------------------------- Iteration      1(  10)  ---------------------------------------


    POTLOK:  cpu time    0.1587: real time    0.1609
    SETDIJ:  cpu time    0.0105: real time    0.0105
     EDDAV:  cpu time   11.2629: real time   11.3658
 BZINTS: Fermi energy: -3.331083;270.000000 electrons
         Band energy:***********;  BLOECHL correction:  0.000000
       DOS:  cpu time    0.0037: real time    0.0037
    CHARGE:  cpu time    0.1752: real time    0.1761
    MIXING:  cpu time    0.0040: real time    0.0040
    --------------------------------------------
      LOOP:  cpu time   11.6149: real time   11.7210

 eigenvalue-minimisations  :  4416
 total energy-change (2. order) : 0.8551863E+00  (-0.6760257E+00)
 number of electron     270.0000029 magnetization       0.0000000
 augmentation part       16.1459530 magnetization       0.0006933

 Broyden mixing:
  rms(total) = 0.32793E+00    rms(broyden)= 0.32700E+00
  rms(prec ) = 0.43739E+00
  weight for this iteration     100.00

 eigenvalues of (default mixing * dielectric matrix)
  average eigenvalue GAMMA=   1.3435
  3.7265  1.1682  0.8409  0.4910  0.4910

 Free energy of the ion-electron system (eV)
  ---------------------------------------------------
  alpha Z        PSCENC =       108.39487126
  Ewald energy   TEWEN  =     24893.94052159
  -Hartree energ DENC   =    -36974.78197911
  -exchange      EXHF   =         0.00000000
  -V(xc)+E(xc)   XCENC  =      1015.71131255
  PAW double counting   =     20689.02372510   -21181.99144699
  entropy T*S    EENTRO =         0.00000000
  eigenvalues    EBANDS =     -3593.73279676
  atomic energy  EATOM  =     14592.26033195
  Solvation  Ediel_sol  =         0.00000000
  ---------------------------------------------------
  free energy    TOTEN  =      -451.17546041 eV

  energy without entropy =     -451.17546041  energy(sigma->0) =     -451.17546041


--------------------------------------------------------------------------------------------------------




--------------------------------------- Iteration      1(  11)  ---------------------------------------


    POTLOK:  cpu time    0.1797: real time    0.1856
    SETDIJ:  cpu time    0.0087: real time    0.0087
     EDDAV:  cpu time   11.2225: real time   11.3047
 BZINTS: Fermi energy: -3.351088;270.000000 electrons
         Band energy:***********;  BLOECHL correction:  0.000000
       DOS:  cpu time    0.0039: real time    0.0040
    CHARGE:  cpu time    0.1741: real time    0.1777
    MIXING:  cpu time    0.0038: real time    0.0041
    --------------------------------------------
      LOOP:  cpu time   11.5927: real time   11.6848

 eigenvalue-minimisations  :  4376
 total energy-change (2. order) : 0.1129197E+00  (-0.1861949E+00)
 number of electron     270.0000028 magnetization       0.0000000
 augmentation part       16.1329912 magnetization       0.0003563

 Broyden mixing:
  rms(total) = 0.25760E+00    rms(broyden)= 0.25709E+00
  rms(prec ) = 0.35453E+00
  weight for this iteration     100.00

 eigenvalues of (default mixing * dielectric matrix)
  average eigenvalue GAMMA=   1.2547
  3.7293  1.1179  0.8948  0.8948  0.4458  0.4458

 Free energy of the ion-electron system (eV)
  ---------------------------------------------------
  alpha Z        PSCENC =       108.39487126
  Ewald energy   TEWEN  =     24893.94052159
  -Hartree energ DENC   =    -36978.94034942
  -exchange      EXHF   =         0.00000000
  -V(xc)+E(xc)   XCENC  =      1016.01413893
  PAW double counting   =     21240.21392591   -21732.84179035
  entropy T*S    EENTRO =         0.00000000
  eigenvalues    EBANDS =     -3590.10419061
  atomic energy  EATOM  =     14592.26033195
  Solvation  Ediel_sol  =         0.00000000
  ---------------------------------------------------
  free energy    TOTEN  =      -451.06254074 eV

  energy without entropy =     -451.06254074  energy(sigma->0) =     -451.06254074


--------------------------------------------------------------------------------------------------------




--------------------------------------- Iteration      1(  12)  ---------------------------------------


    POTLOK:  cpu time    0.1615: real time    0.1666
    SETDIJ:  cpu time    0.0089: real time    0.0090
     EDDAV:  cpu time   11.8578: real time   11.9881
 BZINTS: Fermi energy: -3.336084;270.000000 electrons
         Band energy:***********;  BLOECHL correction:  0.000000
       DOS:  cpu time    0.0037: real time    0.0037
    CHARGE:  cpu time    0.1739: real time    0.1753
    MIXING:  cpu time    0.0046: real time    0.0047
    --------------------------------------------
      LOOP:  cpu time   12.2105: real time   12.3475

 eigenvalue-minimisations  :  4584
 total energy-change (2. order) : 0.1253920E+00  (-0.1388241E+00)
 number of electron     270.0000029 magnetization      -0.0000000
 augmentation part       16.0783729 magnetization       0.0000586

 Broyden mixing:
  rms(total) = 0.13213E+00    rms(broyden)= 0.13167E+00
  rms(prec ) = 0.15917E+00
  weight for this iteration     100.00

 eigenvalues of (default mixing * dielectric matrix)
  average eigenvalue GAMMA=   1.2387
  3.6727  1.4943  1.1665  0.7220  0.7220  0.4466  0.4466

 Free energy of the ion-electron system (eV)
  ---------------------------------------------------
  alpha Z        PSCENC =       108.39487126
  Ewald energy   TEWEN  =     24893.94052159
  -Hartree energ DENC   =    -36973.79111890
  -exchange      EXHF   =         0.00000000
  -V(xc)+E(xc)   XCENC  =      1015.87599875
  PAW double counting   =     21348.22126302   -21840.20533530
  entropy T*S    EENTRO =         0.00000000
  eigenvalues    EBANDS =     -3595.63368107
  atomic energy  EATOM  =     14592.26033195
  Solvation  Ediel_sol  =         0.00000000
  ---------------------------------------------------
  free energy    TOTEN  =      -450.93714870 eV

  energy without entropy =     -450.93714870  energy(sigma->0) =     -450.93714870


--------------------------------------------------------------------------------------------------------




--------------------------------------- Iteration      1(  13)  ---------------------------------------


    POTLOK:  cpu time    0.1626: real time    0.1658
    SETDIJ:  cpu time    0.0087: real time    0.0087
     EDDAV:  cpu time   10.2595: real time   10.3885
 BZINTS: Fermi energy: -3.366092;270.000000 electrons
         Band energy:***********;  BLOECHL correction:  0.000000
       DOS:  cpu time    0.0040: real time    0.0040
    CHARGE:  cpu time    0.2051: real time    0.2070
    MIXING:  cpu time    0.0053: real time    0.0053
    --------------------------------------------
      LOOP:  cpu time   10.6452: real time   10.7793

 eigenvalue-minimisations  :  3840
 total energy-change (2. order) : 0.2377162E-01  (-0.1323430E-01)
 number of electron     270.0000029 magnetization      -0.0000000
 augmentation part       16.0814845 magnetization       0.0000593

 Broyden mixing:
  rms(total) = 0.73577E-01    rms(broyden)= 0.73557E-01
  rms(prec ) = 0.82498E-01
  weight for this iteration     100.00

 eigenvalues of (default mixing * dielectric matrix)
  average eigenvalue GAMMA=   1.2746
  3.6257  2.2961  1.0992  0.7587  0.7587  0.7694  0.4445  0.4445

 Free energy of the ion-electron system (eV)
  ---------------------------------------------------
  alpha Z        PSCENC =       108.39487126
  Ewald energy   TEWEN  =     24893.94052159
  -Hartree energ DENC   =    -36962.12165166
  -exchange      EXHF   =         0.00000000
  -V(xc)+E(xc)   XCENC  =      1015.43369810
  PAW double counting   =     21400.22593244   -21892.03006787
  entropy T*S    EENTRO =         0.00000000
  eigenvalues    EBANDS =     -3607.01701289
  atomic energy  EATOM  =     14592.26033195
  Solvation  Ediel_sol  =         0.00000000
  ---------------------------------------------------
  free energy    TOTEN  =      -450.91337708 eV

  energy without entropy =     -450.91337708  energy(sigma->0) =     -450.91337708


--------------------------------------------------------------------------------------------------------




--------------------------------------- Iteration      1(  14)  ---------------------------------------


    POTLOK:  cpu time    0.1813: real time    0.1837
    SETDIJ:  cpu time    0.0102: real time    0.0103
     EDDAV:  cpu time   10.6826: real time   10.8428
 BZINTS: Fermi energy: -3.399850;270.000000 electrons
         Band energy:***********;  BLOECHL correction:  0.000000
       DOS:  cpu time    0.0035: real time    0.0035
    CHARGE:  cpu time    0.1735: real time    0.1750
    MIXING:  cpu time    0.0050: real time    0.0050
    --------------------------------------------
      LOOP:  cpu time   11.0562: real time   11.2203

 eigenvalue-minimisations  :  4104
 total energy-change (2. order) : 0.5961045E-02  (-0.4630385E-02)
 number of electron     270.0000028 magnetization       0.0000000
 augmentation part       16.0926135 magnetization      -0.0000506

 Broyden mixing:
  rms(total) = 0.36407E-01    rms(broyden)= 0.36363E-01
  rms(prec ) = 0.40030E-01
  weight for this iteration     100.00

 eigenvalues of (default mixing * dielectric matrix)
  average eigenvalue GAMMA=   1.2911
  3.6820  2.5998  1.0371  0.9427  0.9427  0.7651  0.7651  0.4428  0.4428

 Free energy of the ion-electron system (eV)
  ---------------------------------------------------
  alpha Z        PSCENC =       108.39487126
  Ewald energy   TEWEN  =     24893.94052159
  -Hartree energ DENC   =    -36953.56181712
  -exchange      EXHF   =         0.00000000
  -V(xc)+E(xc)   XCENC  =      1015.09160627
  PAW double counting   =     21465.39814657   -21957.12562700
  entropy T*S    EENTRO =         0.00000000
  eigenvalues    EBANDS =     -3615.30544955
  atomic energy  EATOM  =     14592.26033195
  Solvation  Ediel_sol  =         0.00000000
  ---------------------------------------------------
  free energy    TOTEN  =      -450.90741604 eV

  energy without entropy =     -450.90741604  energy(sigma->0) =     -450.90741604


--------------------------------------------------------------------------------------------------------




--------------------------------------- Iteration      1(  15)  ---------------------------------------


    POTLOK:  cpu time    0.1603: real time    0.1633
    SETDIJ:  cpu time    0.0087: real time    0.0088
     EDDAV:  cpu time   10.4171: real time   10.4911
 BZINTS: Fermi energy: -3.401100;270.000000 electrons
         Band energy:***********;  BLOECHL correction:  0.000000
       DOS:  cpu time    0.0037: real time    0.0037
    CHARGE:  cpu time    0.1743: real time    0.1760
    MIXING:  cpu time    0.0052: real time    0.0052
    --------------------------------------------
      LOOP:  cpu time   10.7693: real time   10.8481

 eigenvalue-minimisations  :  4024
 total energy-change (2. order) : 0.6125152E-03  (-0.1127677E-02)
 number of electron     270.0000029 magnetization      -0.0000000
 augmentation part       16.0942910 magnetization      -0.0000369

 Broyden mixing:
  rms(total) = 0.21634E-01    rms(broyden)= 0.21623E-01
  rms(prec ) = 0.23822E-01
  weight for this iteration     100.00

 eigenvalues of (default mixing * dielectric matrix)
  average eigenvalue GAMMA=   1.3027
  3.6645  2.8214  1.1820  1.1289  1.1289  0.7402  0.7402  0.7331  0.4437  0.4437

 Free energy of the ion-electron system (eV)
  ---------------------------------------------------
  alpha Z        PSCENC =       108.39487126
  Ewald energy   TEWEN  =     24893.94052159
  -Hartree energ DENC   =    -36952.05677277
  -exchange      EXHF   =         0.00000000
  -V(xc)+E(xc)   XCENC  =      1015.02142662
  PAW double counting   =     21512.89238876   -22004.61178081
  entropy T*S    EENTRO =         0.00000000
  eigenvalues    EBANDS =     -3616.74779012
  atomic energy  EATOM  =     14592.26033195
  Solvation  Ediel_sol  =         0.00000000
  ---------------------------------------------------
  free energy    TOTEN  =      -450.90680352 eV

  energy without entropy =     -450.90680352  energy(sigma->0) =     -450.90680352


--------------------------------------------------------------------------------------------------------




--------------------------------------- Iteration      1(  16)  ---------------------------------------


    POTLOK:  cpu time    0.1592: real time    0.1643
    SETDIJ:  cpu time    0.0087: real time    0.0087
     EDDAV:  cpu time   10.4041: real time   10.5562
 BZINTS: Fermi energy: -3.404851;270.000000 electrons
         Band energy:***********;  BLOECHL correction:  0.000000
       DOS:  cpu time    0.0035: real time    0.0035
    CHARGE:  cpu time    0.1739: real time    0.1756
    MIXING:  cpu time    0.0051: real time    0.0051
    --------------------------------------------
      LOOP:  cpu time   10.7545: real time   10.9136

 eigenvalue-minimisations  :  4056
 total energy-change (2. order) : 0.1468092E-05  (-0.5200246E-03)
 number of electron     270.0000028 magnetization       0.0000000
 augmentation part       16.0944876 magnetization      -0.0000424

 Broyden mixing:
  rms(total) = 0.14799E-01    rms(broyden)= 0.14782E-01
  rms(prec ) = 0.17183E-01
  weight for this iteration     100.00

 eigenvalues of (default mixing * dielectric matrix)
  average eigenvalue GAMMA=   1.3394
  3.6553  2.9619  1.7149  1.0875  1.0875  1.0804  0.7436  0.7436  0.7713  0.4435
  0.4435

 Free energy of the ion-electron system (eV)
  ---------------------------------------------------
  alpha Z        PSCENC =       108.39487126
  Ewald energy   TEWEN  =     24893.94052159
  -Hartree energ DENC   =    -36951.33234775
  -exchange      EXHF   =         0.00000000
  -V(xc)+E(xc)   XCENC  =      1014.99390248
  PAW double counting   =     21523.51214324   -22015.25040150
  entropy T*S    EENTRO =         0.00000000
  eigenvalues    EBANDS =     -3617.42582333
  atomic energy  EATOM  =     14592.26033195
  Solvation  Ediel_sol  =         0.00000000
  ---------------------------------------------------
  free energy    TOTEN  =      -450.90680206 eV

  energy without entropy =     -450.90680206  energy(sigma->0) =     -450.90680206


--------------------------------------------------------------------------------------------------------




--------------------------------------- Iteration      1(  17)  ---------------------------------------


    POTLOK:  cpu time    0.1704: real time    0.1727
    SETDIJ:  cpu time    0.0087: real time    0.0088
     EDDAV:  cpu time   10.4569: real time   10.5403
 BZINTS: Fermi energy: -3.401100;270.000000 electrons
         Band energy:***********;  BLOECHL correction:  0.000000
       DOS:  cpu time    0.0041: real time    0.0041
    CHARGE:  cpu time    0.1744: real time    0.1759
    MIXING:  cpu time    0.0058: real time    0.0058
    --------------------------------------------
      LOOP:  cpu time   10.8203: real time   10.9075

 eigenvalue-minimisations  :  4000
 total energy-change (2. order) :-0.4197989E-03  (-0.8741674E-03)
 number of electron     270.0000029 magnetization       0.0000000
 augmentation part       16.0943566 magnetization      -0.0000249

 Broyden mixing:
  rms(total) = 0.19378E-01    rms(broyden)= 0.19342E-01
  rms(prec ) = 0.26519E-01
  weight for this iteration     100.00

 eigenvalues of (default mixing * dielectric matrix)
  average eigenvalue GAMMA=   1.3633
  3.6967  3.0548  2.3574  1.0888  1.0888  1.1387  0.7440  0.7440  0.9025  0.4431
  0.4431  0.6584

 Free energy of the ion-electron system (eV)
  ---------------------------------------------------
  alpha Z        PSCENC =       108.39487126
  Ewald energy   TEWEN  =     24893.94052159
  -Hartree energ DENC   =    -36951.60260719
  -exchange      EXHF   =         0.00000000
  -V(xc)+E(xc)   XCENC  =      1015.00509143
  PAW double counting   =     21526.22794015   -22017.97525861
  entropy T*S    EENTRO =         0.00000000
  eigenvalues    EBANDS =     -3617.15811245
  atomic energy  EATOM  =     14592.26033195
  Solvation  Ediel_sol  =         0.00000000
  ---------------------------------------------------
  free energy    TOTEN  =      -450.90722186 eV

  energy without entropy =     -450.90722186  energy(sigma->0) =     -450.90722186


--------------------------------------------------------------------------------------------------------




--------------------------------------- Iteration      1(  18)  ---------------------------------------


    POTLOK:  cpu time    0.1616: real time    0.1640
    SETDIJ:  cpu time    0.0098: real time    0.0098
     EDDAV:  cpu time    8.0221: real time    8.1136
 BZINTS: Fermi energy: -3.401100;270.000000 electrons
         Band energy:***********;  BLOECHL correction:  0.000000
       DOS:  cpu time    0.0042: real time    0.0042
    CHARGE:  cpu time    0.1727: real time    0.1744
    MIXING:  cpu time    0.0059: real time    0.0060
    --------------------------------------------
      LOOP:  cpu time    8.3762: real time    8.4720

 eigenvalue-minimisations  :  2784
 total energy-change (2. order) : 0.4120374E-03  (-0.9767747E-03)
 number of electron     270.0000028 magnetization      -0.0000000
 augmentation part       16.0944254 magnetization      -0.0000158

 Broyden mixing:
  rms(total) = 0.11261E-01    rms(broyden)= 0.11195E-01
  rms(prec ) = 0.15318E-01
  weight for this iteration     100.00

 eigenvalues of (default mixing * dielectric matrix)
  average eigenvalue GAMMA=   1.3782
  3.7975  3.3354  2.8245  1.2105  1.1029  1.1029  0.7432  0.7432  0.9558  0.7624
  0.4418  0.4418  0.4548

 Free energy of the ion-electron system (eV)
  ---------------------------------------------------
  alpha Z        PSCENC =       108.39487126
  Ewald energy   TEWEN  =     24893.94052159
  -Hartree energ DENC   =    -36951.82175665
  -exchange      EXHF   =         0.00000000
  -V(xc)+E(xc)   XCENC  =      1015.01598462
  PAW double counting   =     21527.90080599   -22019.65930291
  entropy T*S    EENTRO =         0.00000000
  eigenvalues    EBANDS =     -3616.93826566
  atomic energy  EATOM  =     14592.26033195
  Solvation  Ediel_sol  =         0.00000000
  ---------------------------------------------------
  free energy    TOTEN  =      -450.90680982 eV

  energy without entropy =     -450.90680982  energy(sigma->0) =     -450.90680982


--------------------------------------------------------------------------------------------------------




--------------------------------------- Iteration      1(  19)  ---------------------------------------


    POTLOK:  cpu time    0.1709: real time    0.1736
    SETDIJ:  cpu time    0.0088: real time    0.0089
     EDDAV:  cpu time    7.2633: real time    7.3562
 BZINTS: Fermi energy: -3.401100;270.000000 electrons
         Band energy:***********;  BLOECHL correction:  0.000000
       DOS:  cpu time    0.0045: real time    0.0050
    --------------------------------------------
      LOOP:  cpu time    7.4475: real time    7.5436

 eigenvalue-minimisations  :  2296
 total energy-change (2. order) : 0.3185489E-04  (-0.6602461E-04)
 number of electron     270.0000028 magnetization      -0.0000000
 augmentation part       16.0944254 magnetization      -0.0000158

 Free energy of the ion-electron system (eV)
  ---------------------------------------------------
  alpha Z        PSCENC =       108.39487126
  Ewald energy   TEWEN  =     24893.94052159
  -Hartree energ DENC   =    -36952.02629306
  -exchange      EXHF   =         0.00000000
  -V(xc)+E(xc)   XCENC  =      1015.02572685
  PAW double counting   =     21528.07674472   -22019.83473669
  entropy T*S    EENTRO =         0.00000000
  eigenvalues    EBANDS =     -3616.74394459
  atomic energy  EATOM  =     14592.26033195
  Solvation  Ediel_sol  =         0.00000000
  ---------------------------------------------------
  free energy    TOTEN  =      -450.90677796 eV

  energy without entropy =     -450.90677796  energy(sigma->0) =     -450.90677796


--------------------------------------------------------------------------------------------------------




 average (electrostatic) potential at core
  the test charge radii are     0.6991  0.7089  0.9911
  (the norm of the test charge is              1.0000)
       1 -61.7073       2 -61.9787       3 -61.9530       4 -61.5852       5 -61.6338
       6 -61.6137       7 -61.8364       8 -61.7279       9 -61.6423      10 -62.1010
      11 -61.6970      12 -62.0633      13 -61.6649      14 -61.5794      15 -61.4514
      16 -61.6006      17 -61.5732      18 -61.5757      19 -61.9209      20 -61.6729
      21 -61.7241      22 -61.6417      23 -61.6743      24 -61.6119      25 -75.3527
      26 -73.2916      27 -73.2463      28 -73.4945      29 -73.6194      30 -73.2684
      31 -73.3012      32 -75.1802      33 -75.0948      34 -73.6146      35 -74.3647
      36 -73.3283      37 -73.3389      38 -73.6730      39 -74.3113      40 -75.2256
      41 -75.1610      42 -73.3301      43 -73.2733      44 -73.5901      45 -73.4935
      46 -73.2796      47 -73.2842      48 -75.0543      49 -75.2298      50 -73.4848
      51 -73.3397      52 -73.3076      53 -73.2720      54 -73.4634      55 -73.3939
      56 -75.2654      57 -83.9438
 
 
 
 E-fermi :  -3.4011     XC(G=0):  -2.5475     alpha+bet : -1.6910


 spin component 1

 k-point     1 :       0.0000    0.0000    0.0000
  band No.  band energies     occupation 
      1     -29.2507      1.00000
      2     -29.2461      1.00000
      3     -29.2187      1.00000
      4     -29.1884      1.00000
      5     -29.1797      1.00000
      6     -24.5052      1.00000
      7     -24.3901      1.00000
      8     -24.2294      1.00000
      9     -24.1418      1.00000
     10     -23.6039      1.00000
     11     -23.5299      1.00000
     12     -23.5027      1.00000
     13     -22.8258      1.00000
     14     -22.6702      1.00000
     15     -22.6054      1.00000
     16     -22.5380      1.00000
     17     -22.5046      1.00000
     18     -22.4219      1.00000
     19     -21.9221      1.00000
     20     -21.8077      1.00000
     21     -21.7723      1.00000
     22     -21.1973      1.00000
     23     -21.1637      1.00000
     24     -21.0952      1.00000
     25     -21.0389      1.00000
     26     -20.9674      1.00000
     27     -20.9584      1.00000
     28     -20.8808      1.00000
     29     -20.8594      1.00000
     30     -20.4750      1.00000
     31     -20.3751      1.00000
     32     -20.3285      1.00000
     33     -20.2440      1.00000
     34     -20.0112      1.00000
     35     -19.9426      1.00000
     36     -19.7868      1.00000
     37     -19.6806      1.00000
     38     -16.8656      1.00000
     39     -16.7945      1.00000
     40     -16.6745      1.00000
     41     -16.4172      1.00000
     42     -16.3477      1.00000
     43     -16.3012      1.00000
     44     -16.0936      1.00000
     45     -15.9156      1.00000
     46     -15.4335      1.00000
     47     -15.3533      1.00000
     48     -15.2392      1.00000
     49     -15.0302      1.00000
     50     -14.4435      1.00000
     51     -14.4349      1.00000
     52     -13.9311      1.00000
     53     -13.7935      1.00000
     54     -13.6433      1.00000
     55     -13.4523      1.00000
     56     -13.1169      1.00000
     57     -12.9311      1.00000
     58     -12.8369      1.00000
     59     -12.8051      1.00000
     60     -12.7135      1.00000
     61     -12.6574      1.00000
     62     -12.5636      1.00000
     63     -12.3663      1.00000
     64     -12.2540      1.00000
     65     -12.0900      1.00000
     66     -11.9830      1.00000
     67     -11.8744      1.00000
     68     -11.8425      1.00000
     69     -11.7371      1.00000
     70     -11.6796      1.00000
     71     -11.5708      1.00000
     72     -11.5259      1.00000
     73     -11.2990      1.00000
     74     -10.7824      1.00000
     75     -10.6535      1.00000
     76     -10.5734      1.00000
     77     -10.5313      1.00000
     78     -10.4511      1.00000
     79     -10.2923      1.00000
     80     -10.2550      1.00000
     81     -10.1826      1.00000
     82     -10.0960      1.00000
     83      -9.4954      1.00000
     84      -9.4042      1.00000
     85      -9.2695      1.00000
     86      -8.9325      1.00000
     87      -8.8208      1.00000
     88      -8.7820      1.00000
     89      -8.7439      1.00000
     90      -8.7144      1.00000
     91      -8.6497      1.00000
     92      -8.5980      1.00000
     93      -8.5014      1.00000
     94      -8.2285      1.00000
     95      -8.1481      1.00000
     96      -8.0641      1.00000
     97      -7.9713      1.00000
     98      -7.9306      1.00000
     99      -7.8865      1.00000
    100      -7.7915      1.00000
    101      -7.6533      1.00000
    102      -7.5827      1.00000
    103      -7.5251      1.00000
    104      -7.4533      1.00000
    105      -7.4028      1.00000
    106      -7.3166      1.00000
    107      -7.3059      1.00000
    108      -7.2347      1.00000
    109      -7.2005      1.00000
    110      -7.1251      1.00000
    111      -7.1035      1.00000
    112      -7.0253      1.00000
    113      -6.8886      1.00000
    114      -6.8199      1.00000
    115      -6.5929      1.00000
    116      -6.4231      1.00000
    117      -6.2991      1.00000
    118      -6.1673      1.00000
    119      -6.1203      1.00000
    120      -6.0878      1.00000
    121      -6.0431      1.00000
    122      -5.9751      1.00000
    123      -5.9651      1.00000
    124      -5.8433      1.00000
    125      -5.7613      1.00000
    126      -5.6842      1.00000
    127      -5.6213      1.00000
    128      -5.5468      1.00000
    129      -5.4725      1.00000
    130      -5.3476      1.00000
    131      -5.2768      1.00000
    132      -5.1980      1.00000
    133      -5.0866      1.00000
    134      -4.9042      1.00000
    135      -3.4871      1.00000
    136      -3.3236      0.00000
    137      -3.1326      0.00000
    138      -2.9488      0.00000
    139      -2.7664      0.00000
    140      -2.7140      0.00000
    141      -2.6559      0.00000
    142      -2.4989      0.00000
    143      -2.3781      0.00000
    144      -2.2920      0.00000
    145      -2.2286      0.00000
    146      -1.9918      0.00000
    147      -1.8557      0.00000
    148      -1.4462      0.00000
    149      -1.3156      0.00000
    150      -1.0799      0.00000
    151      -0.8625      0.00000
    152      -0.7887      0.00000
    153      -0.7635      0.00000
    154      -0.6980      0.00000
    155      -0.6462      0.00000
    156      -0.3620      0.00000
    157      -0.2389      0.00000
    158      -0.0835      0.00000
    159       0.0283      0.00000
    160       0.1594      0.00000
    161       0.4168      0.00000
    162       0.4495      0.00000
    163       0.6102      0.00000
    164       0.6817      0.00000
    165       0.7863      0.00000
    166       0.8651      0.00000
    167       0.8819      0.00000
    168       0.9112      0.00000

 k-point     2 :       0.3333   -0.0000    0.0000
  band No.  band energies     occupation 
      1     -29.2508      1.00000
      2     -29.2461      1.00000
      3     -29.2187      1.00000
      4     -29.1884      1.00000
      5     -29.1797      1.00000
      6     -24.4821      1.00000
      7     -24.4140      1.00000
      8     -24.2336      1.00000
      9     -24.1604      1.00000
     10     -23.5932      1.00000
     11     -23.4996      1.00000
     12     -23.4033      1.00000
     13     -23.1004      1.00000
     14     -22.6542      1.00000
     15     -22.6014      1.00000
     16     -22.5251      1.00000
     17     -22.4967      1.00000
     18     -22.2316      1.00000
     19     -21.9641      1.00000
     20     -21.8101      1.00000
     21     -21.7276      1.00000
     22     -21.2057      1.00000
     23     -21.1728      1.00000
     24     -21.1125      1.00000
     25     -21.0532      1.00000
     26     -21.0369      1.00000
     27     -20.9729      1.00000
     28     -20.8955      1.00000
     29     -20.8713      1.00000
     30     -20.4513      1.00000
     31     -20.3474      1.00000
     32     -20.3019      1.00000
     33     -20.2529      1.00000
     34     -19.9868      1.00000
     35     -19.9465      1.00000
     36     -19.7666      1.00000
     37     -19.6991      1.00000
     38     -16.7676      1.00000
     39     -16.7316      1.00000
     40     -16.6056      1.00000
     41     -16.5132      1.00000
     42     -16.4387      1.00000
     43     -16.2700      1.00000
     44     -16.2213      1.00000
     45     -16.0684      1.00000
     46     -15.3774      1.00000
     47     -15.3165      1.00000
     48     -15.2132      1.00000
     49     -15.1369      1.00000
     50     -14.2794      1.00000
     51     -14.0734      1.00000
     52     -13.9274      1.00000
     53     -13.7844      1.00000
     54     -13.6403      1.00000
     55     -13.3927      1.00000
     56     -13.2022      1.00000
[...]
   -.144E+02 0.253E+02 0.982E+02   0.980E+01 -.245E+02 -.985E+02   0.267E+01 -.521E+00 0.391E+00   -.680E-01 0.200E-02 -.196E-02
   0.544E+02 -.439E+02 -.681E+02   -.559E+02 0.448E+02 0.679E+02   0.191E+01 -.101E+01 -.209E+00   0.123E-01 -.374E-02 -.403E-02
   -.104E+02 0.419E+02 0.156E+03   0.111E+02 -.436E+02 -.157E+03   -.503E+00 0.181E+01 0.119E+01   0.153E-02 -.247E-01 -.224E-01
   -.506E+02 -.144E+02 0.752E+02   0.522E+02 0.153E+02 -.755E+02   -.202E+01 -.895E+00 0.698E+00   0.789E-03 -.108E-01 -.963E-03
   0.310E+02 -.250E+02 -.278E+02   -.316E+02 0.206E+02 0.262E+02   0.368E+00 0.289E+01 0.739E+00   0.126E-02 -.247E-01 -.769E-02
   0.232E+02 -.991E+01 -.385E+02   -.186E+02 0.129E+02 0.379E+02   -.310E+01 -.175E+01 0.311E+00   0.174E-02 -.733E-02 -.111E-02
   -.951E+01 0.161E+01 -.469E+02   0.472E+01 0.126E+01 0.464E+02   0.322E+01 -.161E+01 0.127E+00   0.837E-02 -.127E-01 -.169E-02
   -.180E+02 0.144E+02 -.563E+02   0.179E+02 -.127E+02 0.570E+02   0.914E+00 -.155E+01 -.110E+01   -.394E-01 0.345E-01 0.233E-01
   -.272E+01 0.179E+02 0.377E+02   0.266E+01 -.195E+02 -.366E+02   0.225E-01 0.243E+01 -.518E+00   -.974E-02 0.737E-02 0.296E-02
   0.244E+02 0.134E+02 -.514E+02   -.240E+02 -.113E+02 0.514E+02   -.107E+01 -.181E+01 -.887E+00   -.259E-01 -.239E-01 -.215E-01
   -.319E+01 -.163E+02 -.995E+01   0.318E+01 0.112E+02 0.115E+02   -.910E-01 0.353E+01 -.810E+00   0.361E-01 -.781E-02 -.306E-02
   0.330E+02 0.243E+02 0.150E+03   -.286E+02 -.219E+02 -.150E+03   -.288E+01 -.168E+01 -.406E-01   0.629E-01 0.806E-03 -.841E-02
   -.134E+02 0.198E+02 0.684E+02   0.882E+01 -.171E+02 -.674E+02   0.294E+01 -.147E+01 -.575E+00   0.692E-01 -.288E-01 -.839E-02
   0.526E+02 -.134E+02 0.518E+02   -.541E+02 0.143E+02 -.518E+02   0.206E+01 -.908E+00 0.346E+00   -.113E-01 0.110E-01 -.118E-02
   0.132E+01 0.595E+02 0.168E+03   -.188E+01 -.611E+02 -.168E+03   0.115E+00 0.189E+01 0.124E+01   -.119E-01 0.860E-02 0.186E-01
   -.521E+02 -.464E+02 -.772E+02   0.535E+02 0.473E+02 0.772E+02   -.196E+01 -.107E+01 -.365E+00   -.318E-02 0.155E-01 -.800E-02
   -.256E+02 -.246E+02 -.111E+03   0.261E+02 0.201E+02 0.110E+03   -.395E-01 0.278E+01 0.684E+00   -.486E-02 0.330E-01 0.533E-02
   0.123E+02 0.354E+00 -.862E+02   -.739E+01 0.240E+01 0.850E+02   -.317E+01 -.155E+01 0.361E+00   0.534E-02 0.171E-01 -.175E-03
   -.255E+02 -.647E+01 -.704E+02   0.208E+02 0.955E+01 0.691E+02   0.304E+01 -.183E+01 0.754E+00   -.166E-01 0.209E-01 -.475E-03
   0.567E+02 -.563E+02 0.108E+03   -.587E+02 0.569E+02 -.108E+03   0.193E+01 -.139E+01 -.244E-01   0.190E-01 -.424E-01 0.288E-02
   -.842E+01 0.347E+02 -.148E+03   0.838E+01 -.367E+02 0.148E+03   -.773E-02 0.250E+01 -.115E+01   0.793E-02 -.396E-02 0.885E-03
   -.663E+02 -.208E+02 -.474E+02   0.682E+02 0.210E+02 0.479E+02   -.214E+01 -.449E+00 -.798E+00   0.282E-01 0.365E-01 0.167E-01
   -.112E+02 0.286E+02 0.132E+03   0.115E+02 -.295E+02 -.134E+03   -.293E+00 0.545E+00 0.223E+01   -.134E+00 -.262E-02 -.601E-02
   -.154E+03 -.254E+02 0.176E+03   0.181E+03 0.402E+02 -.186E+03   -.298E+02 -.165E+02 0.118E+02   -.175E-01 -.308E-01 -.174E-02
   0.124E+03 -.121E+03 -.186E+03   -.151E+03 0.135E+03 0.196E+03   0.297E+02 -.156E+02 -.113E+02   0.143E-01 -.133E-01 -.483E-02
   0.416E+01 0.135E+03 0.309E+03   -.193E+01 -.161E+03 -.329E+03   -.281E+01 0.280E+02 0.222E+02   0.438E-01 -.712E-01 -.508E-01
   -.292E+02 0.110E+03 0.327E+03   0.265E+02 -.133E+03 -.348E+03   0.274E+01 0.257E+02 0.245E+02   -.361E-01 -.550E-01 -.551E-01
   0.153E+03 -.780E+02 -.886E+02   -.179E+03 0.956E+02 0.884E+02   0.289E+02 -.200E+02 -.310E+00   0.441E-01 -.351E-01 0.276E-02
   -.116E+03 -.641E+02 0.198E+03   0.142E+03 0.720E+02 -.215E+03   -.290E+02 -.871E+01 0.193E+02   0.541E-02 -.183E-01 0.310E-02
   -.362E+01 -.124E+01 -.189E+02   0.374E+01 0.137E+01 0.198E+02   -.180E+00 -.641E-01 -.105E+01   0.995E-03 -.115E-02 -.787E-03
   0.121E+02 -.176E+02 -.754E+02   -.125E+02 0.181E+02 0.794E+02   0.172E+00 -.568E+00 -.448E+01   0.697E-02 -.266E-01 -.635E-02
   -.198E+01 -.486E+02 -.238E+03   0.208E+02 0.597E+02 0.258E+03   -.205E+02 -.124E+02 -.225E+02   -.187E-01 -.226E-01 -.267E-01
   0.729E+01 0.533E+02 -.591E+02   -.242E+02 -.494E+02 0.684E+02   0.193E+02 -.413E+01 -.105E+02   -.617E-01 0.394E-01 0.304E-01
   -.124E+02 0.901E+02 0.969E+02   0.152E+02 -.120E+03 -.106E+03   -.317E+01 0.329E+02 0.100E+02   -.230E-01 0.208E-01 0.659E-02
   -.621E+00 0.878E+02 0.108E+03   -.131E+01 -.117E+03 -.117E+03   0.229E+01 0.328E+02 0.101E+02   -.121E-01 -.271E-02 0.546E-02
   0.329E+02 -.476E+02 -.261E+03   -.555E+02 0.591E+02 0.276E+03   0.247E+02 -.131E+02 -.174E+02   -.281E-01 0.350E-01 0.112E-01
   -.215E+01 0.609E+02 -.837E+02   0.176E+02 -.574E+02 0.963E+02   -.175E+02 -.348E+01 -.143E+02   -.657E-01 -.282E-01 -.365E-01
   0.385E+02 0.142E+02 0.595E+02   -.421E+02 -.167E+02 -.587E+02   0.454E+01 0.306E+01 -.438E+00   -.141E-01 -.489E-01 -.139E-01
   0.111E+02 0.305E+02 0.116E+03   -.130E+02 -.321E+02 -.120E+03   0.193E+01 0.183E+01 0.474E+01   0.144E+00 -.288E-01 -.185E-01
   -.151E+03 -.821E+02 -.965E+02   0.177E+03 0.991E+02 0.969E+02   -.295E+02 -.193E+02 -.726E+00   0.323E-02 0.142E-01 -.157E-01
   0.119E+03 -.547E+02 0.154E+03   -.146E+03 0.622E+02 -.169E+03   0.302E+02 -.827E+01 0.168E+02   -.678E-02 0.216E-01 -.521E-03
   0.884E+01 0.127E+03 0.338E+03   -.398E+01 -.152E+03 -.358E+03   -.496E+01 0.265E+02 0.231E+02   -.488E-01 0.466E-01 0.502E-01
   0.207E+01 0.186E+03 0.282E+03   -.354E+01 -.216E+03 -.291E+03   0.205E+01 0.335E+02 0.107E+02   0.171E-01 0.685E-01 0.357E-01
   0.155E+03 -.265E+02 0.107E+03   -.182E+03 0.423E+02 -.112E+03   0.305E+02 -.178E+02 0.554E+01   -.292E-01 0.253E-01 -.195E-02
   -.112E+03 -.125E+03 -.228E+03   0.138E+03 0.139E+03 0.241E+03   -.282E+02 -.154E+02 -.145E+02   -.140E-01 0.231E-01 -.857E-02
   0.646E+00 -.255E+02 -.102E+02   -.537E+00 0.266E+02 0.805E+01   -.116E+00 -.134E+01 0.245E+01   0.120E-02 0.130E-01 -.157E-02
   -.116E+02 -.200E+02 -.147E+03   0.117E+02 0.216E+02 0.153E+03   0.140E+00 -.189E+01 -.601E+01   -.759E-02 0.292E-01 0.107E-02
   -.178E+03 -.510E+02 -.730E+02   0.204E+03 0.675E+02 0.734E+02   -.298E+02 -.184E+02 -.545E+00   0.229E-01 0.508E-01 0.137E-01
   0.140E+03 -.117E+03 0.240E+03   -.167E+03 0.131E+03 -.245E+03   0.308E+02 -.151E+02 0.726E+01   0.961E-01 -.541E-01 0.431E-02
   0.123E+00 0.117E+03 -.300E+03   0.399E+01 -.142E+03 0.320E+03   -.467E+01 0.275E+02 -.225E+02   0.139E-01 -.878E-02 -.649E-02
   -.278E+02 0.899E+02 -.338E+03   0.263E+02 -.113E+03 0.361E+03   0.168E+01 0.253E+02 -.258E+02   0.119E-01 0.107E-01 0.112E-03
   0.149E+03 -.100E+03 0.184E+03   -.170E+03 0.121E+03 -.195E+03   0.235E+02 -.225E+02 0.127E+02   0.283E-01 -.459E-01 0.455E-02
   -.133E+03 -.582E+02 -.145E+03   0.161E+03 0.658E+02 0.157E+03   -.314E+02 -.824E+01 -.142E+02   0.936E-01 0.140E-01 0.242E-01
   -.362E+02 0.166E+02 0.351E+02   0.387E+02 -.184E+02 -.368E+02   -.318E+01 0.225E+01 0.228E+01   -.883E-02 0.382E-01 0.220E-01
   0.368E+02 -.929E+02 -.784E+03   -.373E+02 0.104E+03 0.796E+03   0.824E+00 -.121E+02 -.135E+02   -.147E+00 0.210E-01 -.145E-01
 -----------------------------------------------------------------------------------------------
   0.193E+01 -.635E+01 -.425E+01   -.213E-12 -.327E-12 -.114E-12   -.177E+01 0.638E+01 0.436E+01   -.159E+00 -.359E-01 -.830E-01
 
 
 POSITION                                       TOTAL-FORCE (eV/Angst)
 -----------------------------------------------------------------------------------
     -0.01645      2.72469      7.03666        -0.002341     -1.842034      0.743337
      1.34267      5.06837      7.14711         1.927282      0.262809      0.267947
     -1.40238      5.01827      7.05024        -1.963291      0.225915      0.016668
      6.32575      0.72741      8.34395         0.499991     -0.127722     -0.414831
      3.83686      5.06699      6.80667         0.198971      0.082447      0.683904
      1.30449      0.65497      7.40324        -0.484023     -0.023262      0.371474
     -3.95275      9.13830      7.98437        -0.235545     -1.523312     -0.851047
     -2.44699     11.39075      8.26982         1.545609      1.225749     -0.237895
     -5.15114     11.49577      8.21907        -1.555135      1.243426     -0.383326
      2.64643      6.95936      8.28141         0.799802      0.186139     -0.434949
      0.04335     11.29440      8.06801        -0.048860      0.789489      0.575678
     -2.80410      6.95578      7.93107        -0.699155      0.296106     -0.933204
      7.68522      2.73861      7.79962        -0.066343     -1.621567      0.754657
      8.91427      4.84945      6.59806         1.596023      0.771112      0.409321
      6.29235      4.94479      7.18512        -1.546616      1.255494      0.431830
     13.90855      0.47567      7.60155         0.553623      0.044169      0.319406
     11.38206      4.77521      6.49902        -0.452000      0.280104      0.682372
      8.98428      0.71301      8.44852        -0.575710     -0.263389     -0.359499
      3.92323      9.02052      8.76560         0.461101     -1.684889     -0.915979
      5.19590     11.37743      8.62752         1.722119      1.218542     -0.884811
      2.48520     11.35366      8.60190        -1.652733      1.254919     -0.616677
     10.00316      7.04383      6.93841        -0.057261     -0.833669      0.303597
      7.66719     11.40011      8.82196        -0.035415      0.413257     -0.849618
      5.23802      7.00512      8.08269        -0.247796     -0.203834     -0.231716
     -0.01579      4.28052      7.01297        -0.116305     -0.400733      0.270349
      1.28301      2.03627      6.94571        -2.813581     -1.762691      1.432735
      5.10682     -0.04731      8.61560         2.799746     -1.589796     -1.797512
      5.10926      4.42703      6.47437        -0.531954      2.636145      2.654988
      2.50260      4.56856      6.43092         0.008981      2.163030      2.879030
      6.35439      2.16755      8.13700         2.776238     -2.438748     -0.497530
     -5.10705     12.67985      7.36983        -2.834752     -0.917211      2.421401
      0.01851      0.02353      7.96689        -0.056980      0.060503     -0.147924
     -3.81896     10.65385      8.25428        -0.195957     -0.133850     -0.502461
     -2.87236      8.27307      8.54350        -1.756984     -1.428028     -2.981976
      1.34206      6.24864      8.11059         2.375110     -0.229392     -1.133839
      1.33232     10.58225      8.08044        -0.442938      3.191259      1.363533
     -1.24246     10.59918      7.90967         0.344323      3.220493      1.390355
      2.66495      8.23204      8.98976         2.120501     -1.570331     -2.614190
     -1.52409      6.19223      8.00442        -2.121386     -0.099866     -1.709340
     11.27490      6.17295      7.19380         0.947716      0.495982      0.268951
      7.64872      4.10731      7.08374         0.167295      0.233249      0.562320
      8.99490      2.14758      8.17142        -2.887560     -2.245045     -0.344969
      5.08744     12.51394      7.71951         2.970369     -0.807516      2.253934
     -2.48331      4.47590      6.25024        -0.151814      2.320349      2.886098
     10.13251      4.07324      6.26222         0.595553      3.505923      1.710125
     13.89461      1.86312      7.17966         2.931904     -1.957305      0.790016
     10.14543     -0.07287      8.90144        -2.546521     -1.598225     -2.068017
      7.65815     -0.05596      8.22210        -0.006301     -0.265097      0.311422
      3.83992     10.56677      8.81429         0.203516     -0.250149     -0.700831
      5.21714      8.41995      8.45567        -3.120910     -1.808908     -0.140777
      8.81352      6.34356      6.52982         3.398675     -1.064223      1.772597
     -6.25334     10.97021      9.05317        -0.534312      2.578628     -2.615309
      6.38746     10.87986      9.33982         0.176109      2.045588     -3.087764
     -5.09202      8.71191      7.17015         2.565418     -2.084302      1.656556
      6.42448      6.18009      7.98304        -3.342229     -0.598253     -1.811961
      3.87939      6.34937      7.70816        -0.716285      0.470373      0.589968
     -0.14734      7.56709      9.20361         0.113016     -1.097854     -1.506616
 -----------------------------------------------------------------------------------
    total drift:                               -0.002924     -0.006559      0.031936


--------------------------------------------------------------------------------------------------------



  FREE ENERGIE OF THE ION-ELECTRON SYSTEM (eV)
  ---------------------------------------------------
  free  energy   TOTEN  =      -454.44489147 eV

  energy  without entropy=     -454.44489147  energy(sigma->0) =     -454.44489147
 


--------------------------------------------------------------------------------------------------------


    POTLOK:  cpu time    0.1779: real time    0.1789


--------------------------------------------------------------------------------------------------------


 stress matrix after NEB project (eV)
   -250.41238      4.21006     -6.42778
      4.21006   -227.08115    -11.82856
     -6.42778    -11.82856    -57.23066
  FORCES: max atom, RMS     3.978148    2.585536
  FORCE total and by dimension   19.520369    3.505923
  Stress total and by dimension  343.431900  250.412380
     LOOP+:  cpu time  220.9509: real time  223.5677
    4ORBIT:  cpu time    0.0000: real time    0.0000
 


 total charge     
 
# of ion       s       p       d       tot
------------------------------------------
    1        0.804   1.466   0.000   2.269
    2        0.794   1.458   0.000   2.252
    3        0.796   1.459   0.000   2.255
    4        0.817   1.468   0.000   2.284
    5        0.810   1.468   0.000   2.278
    6        0.819   1.475   0.000   2.294
    7        0.804   1.461   0.000   2.265
    8        0.804   1.456   0.000   2.260
    9        0.807   1.459   0.000   2.266
   10        0.815   1.491   0.000   2.306
   11        0.817   1.471   0.000   2.287
   12        0.817   1.498   0.000   2.315
   13        0.805   1.456   0.000   2.260
   14        0.800   1.462   0.000   2.261
   15        0.798   1.466   0.000   2.264
   16        0.818   1.479   0.000   2.297
   17        0.811   1.474   0.000   2.284
   18        0.815   1.465   0.000   2.280
   19        0.803   1.460   0.000   2.263
   20        0.806   1.456   0.000   2.263
   21        0.803   1.451   0.000   2.254
   22        0.816   1.468   0.000   2.284
   23        0.818   1.457   0.000   2.275
   24        0.816   1.482   0.000   2.298
   25        1.179   2.466   0.000   3.645
   26        1.267   2.397   0.000   3.664
   27        1.264   2.396   0.000   3.660
   28        1.270   2.371   0.000   3.641
   29        1.265   2.389   0.000   3.654
   30        1.265   2.392   0.000   3.657
   31        1.271   2.393   0.000   3.664
   32        1.210   2.486   0.000   3.696
   33        1.184   2.478   0.000   3.662
   34        1.258   2.411   0.000   3.669
   35        1.233   2.419   0.000   3.652
   36        1.263   2.392   0.000   3.655
   37        1.262   2.393   0.000   3.655
   38        1.258   2.403   0.000   3.661
   39        1.234   2.423   0.000   3.657
   40        1.206   2.501   0.000   3.708
   41        1.184   2.464   0.000   3.649
   42        1.266   2.383   0.000   3.649
   43        1.268   2.398   0.000   3.667
   44        1.265   2.390   0.000   3.655
   45        1.268   2.377   0.000   3.645
   46        1.266   2.402   0.000   3.668
   47        1.264   2.389   0.000   3.654
   48        1.208   2.488   0.000   3.696
   49        1.187   2.451   0.000   3.638
   50        1.263   2.402   0.000   3.665
   51        1.265   2.391   0.000   3.656
   52        1.270   2.376   0.000   3.645
   53        1.269   2.378   0.000   3.647
   54        1.264   2.385   0.000   3.649
   55        1.271   2.388   0.000   3.658
   56        1.206   2.499   0.000   3.705
   57        1.360   0.579  10.000  11.939
--------------------------------------------------
tot         60.645 113.054  10.000 183.699
 


 magnetization (x)
 
# of ion       s       p       d       tot
------------------------------------------
    1       -0.000   0.000   0.000   0.000
    2       -0.000  -0.001   0.000  -0.001
    3        0.000   0.001   0.000   0.001
    4        0.000   0.000   0.000   0.000
    5       -0.000  -0.001   0.000  -0.001
    6       -0.000   0.000   0.000   0.000
    7        0.000   0.000   0.000   0.000
    8        0.000   0.000   0.000   0.000
    9        0.000   0.000   0.000   0.000
   10        0.000   0.000   0.000   0.000
   11       -0.000  -0.000   0.000  -0.000
   12       -0.000  -0.000   0.000  -0.000
   13        0.000   0.000   0.000   0.000
   14        0.000   0.001   0.000   0.001
   15       -0.000  -0.001   0.000  -0.001
   16       -0.000  -0.000   0.000  -0.000
   17        0.000   0.001   0.000   0.001
   18        0.000   0.000   0.000   0.000
   19       -0.000  -0.000   0.000  -0.000
   20       -0.000  -0.000   0.000  -0.000
   21       -0.000  -0.000   0.000  -0.000
   22        0.000   0.000   0.000   0.000
   23       -0.000  -0.000   0.000  -0.000
   24       -0.000  -0.000   0.000  -0.000
   25        0.000  -0.000   0.000  -0.000
   26       -0.000   0.000   0.000   0.000
   27        0.000   0.000   0.000   0.000
   28        0.000   0.000   0.000   0.000
   29        0.000   0.000   0.000   0.000
   30        0.000   0.000   0.000   0.000
   31        0.000   0.000   0.000   0.000
   32        0.000   0.000   0.000   0.000
   33       -0.000   0.000   0.000   0.000
   34        0.000   0.000   0.000   0.000
   35       -0.000  -0.000   0.000  -0.000
   36       -0.000   0.000   0.000   0.000
   37        0.000   0.000   0.000   0.000
   38       -0.000  -0.000   0.000  -0.000
   39        0.000   0.000   0.000   0.000
   40        0.000   0.000   0.000   0.000
   41        0.000   0.000   0.000   0.000
   42       -0.000   0.000   0.000   0.000
   43       -0.000  -0.000   0.000  -0.000
   44       -0.000  -0.000   0.000  -0.000
   45        0.000  -0.000   0.000  -0.000
   46        0.000  -0.000   0.000  -0.000
   47        0.000   0.000   0.000   0.000
   48        0.000   0.000   0.000   0.000
   49        0.000   0.000   0.000   0.000
   50       -0.000   0.000   0.000   0.000
   51        0.000   0.000   0.000   0.000
   52        0.000   0.000   0.000   0.000
   53       -0.000  -0.000   0.000  -0.000
   54       -0.000   0.000   0.000   0.000
   55       -0.000  -0.000   0.000  -0.000
   56       -0.000  -0.001   0.000  -0.001
   57       -0.000  -0.000  -0.000  -0.000
--------------------------------------------------
tot          0.000   0.000  -0.000   0.000
 
 BZINTS: Fermi energy: -3.401100;270.000000 electrons
         Band energy:***********;  BLOECHL correction:  0.000000

 total amount of memory used by VASP MPI-rank0   105064. kBytes
=======================================================================

   base      :      30000. kBytes
   nonl-proj :      17252. kBytes
   fftplans  :       5290. kBytes
   grid      :      14279. kBytes
   one-center:        155. kBytes
   wavefun   :      38088. kBytes
 
  
  
 General timing and accounting informations for this job:
 ========================================================
  
                  Total CPU time used (sec):      236.158
                            User time (sec):      227.769
                          System time (sec):        8.389
                         Elapsed time (sec):      247.080
  
                   Maximum memory used (kb):      447140.
                   Average memory used (kb):           0.
  
                          Minor page faults:      1237245
                          Major page faults:            0
                 Voluntary context switches:         9397
