       N       E                     dE             d eps       ncg     rms          rms(c)
DAV:   1     0.836708600428E+03    0.83671E+03   -0.25866E+04   376   0.730E+02
DAV:   2     0.302008129887E+03   -0.53470E+03   -0.45672E+03   432   0.175E+02
DAV:   3     0.729056140454E+01   -0.29472E+03   -0.27209E+03   648   0.111E+02
DAV:   4    -0.625306009591E+02   -0.69821E+02   -0.62045E+02   608   0.587E+01
DAV:   5    -0.746935329051E+02   -0.12163E+02   -0.99108E+01   624   0.243E+01    0.462E+01
DAV:   6    -0.732937927422E+02    0.13997E+01   -0.33053E+01   536   0.276E+01    0.551E+01
DAV:   7    -0.716824655690E+02    0.16113E+01   -0.39014E+01   608   0.302E+01    0.509E+01
DAV:   8    -0.693980137790E+02    0.22845E+01   -0.12957E+01   544   0.155E+01    0.408E+01
DAV:   9    -0.699200824977E+02   -0.52207E+00   -0.19569E+00   528   0.715E+00    0.390E+01
DAV:  10    -0.697405573352E+02    0.17953E+00   -0.11372E-01   496   0.311E+00    0.401E+01
DAV:  11    -0.713358566442E+02   -0.15953E+01   -0.15311E+00   568   0.116E+01    0.341E+01
DAV:  12    -0.725978305756E+02   -0.12620E+01   -0.45309E+00   528   0.119E+01    0.266E+01
DAV:  13    -0.728894551941E+02   -0.29162E+00   -0.16098E+00   568   0.109E+01    0.199E+01
DAV:  14    -0.730520233937E+02   -0.16257E+00   -0.11436E+00   560   0.750E+00    0.158E+01
DAV:  15    -0.729839624157E+02    0.68061E-01   -0.13532E-01   384   0.239E+00    0.159E+01
DAV:  16    -0.730065040716E+02   -0.22542E-01   -0.16415E-02   544   0.857E-01    0.157E+01
DAV:  17    -0.735174756175E+02   -0.51097E+00   -0.41435E-01   536   0.508E+00    0.139E+01
DAV:  18    -0.739284799246E+02   -0.41100E+00   -0.82867E-01   536   0.712E+00    0.103E+01
DAV:  19    -0.740109083855E+02   -0.82428E-01   -0.30269E-01   496   0.366E+00    0.888E+00
DAV:  20    -0.740275164424E+02   -0.16608E-01   -0.14290E-01   568   0.356E+00    0.693E+00
DAV:  21    -0.740282555517E+02   -0.73911E-03   -0.37720E-01   504   0.468E+00    0.512E+00
DAV:  22    -0.740601873300E+02   -0.31932E-01   -0.15998E-01   528   0.270E+00    0.499E+00
DAV:  23    -0.740523090403E+02    0.78783E-02   -0.69683E-02   520   0.197E+00    0.455E+00
DAV:  24    -0.740793374463E+02   -0.27028E-01   -0.77644E-02   552   0.293E+00    0.357E+00
DAV:  25    -0.741033095178E+02   -0.23972E-01   -0.58454E-02   544   0.220E+00    0.274E+00
DAV:  26    -0.740830408572E+02    0.20269E-01   -0.90653E-02   552   0.188E+00    0.208E+00
DAV:  27    -0.740876319641E+02   -0.45911E-02   -0.37684E-02   560   0.140E+00    0.168E+00
DAV:  28    -0.741062070030E+02   -0.18575E-01   -0.22780E-02   552   0.106E+00    0.160E+00
DAV:  29    -0.741247704100E+02   -0.18563E-01   -0.12503E-02   544   0.116E+00    0.136E+00
DAV:  30    -0.741213746068E+02    0.33958E-02   -0.46675E-03   496   0.487E-01    0.129E+00
DAV:  31    -0.741350773864E+02   -0.13703E-01   -0.46384E-03   504   0.466E-01    0.123E+00
DAV:  32    -0.741491219209E+02   -0.14045E-01   -0.40415E-03   496   0.521E-01    0.115E+00
DAV:  33    -0.741607337374E+02   -0.11612E-01   -0.56912E-03   496   0.614E-01    0.109E+00
DAV:  34    -0.741776571632E+02   -0.16923E-01   -0.90153E-03   480   0.857E-01    0.948E-01
DAV:  35    -0.741866001524E+02   -0.89430E-02   -0.95676E-03   496   0.695E-01    0.872E-01
DAV:  36    -0.741893337361E+02   -0.27336E-02   -0.64926E-03   512   0.792E-01    0.628E-01
DAV:  37    -0.741918095303E+02   -0.24758E-02   -0.49558E-03   496   0.531E-01    0.460E-01
DAV:  38    -0.741921232796E+02   -0.31375E-03   -0.21592E-03   488   0.365E-01    0.366E-01
DAV:  39    -0.741924323852E+02   -0.30911E-03   -0.11092E-03   472   0.298E-01    0.323E-01
DAV:  40    -0.741942856997E+02   -0.18533E-02   -0.86175E-04   472   0.241E-01    0.228E-01
DAV:  41    -0.741945081691E+02   -0.22247E-03   -0.34559E-04   352   0.165E-01    0.203E-01
DAV:  42    -0.741947610201E+02   -0.25285E-03   -0.40217E-04   400   0.209E-01    0.170E-01
DAV:  43    -0.741955051159E+02   -0.74410E-03   -0.29076E-04   312   0.111E-01    0.170E-01
DAV:  44    -0.741955937205E+02   -0.88605E-04   -0.14437E-04   240   0.120E-01
   1 F= -.75321548E+02 E0= -.75320737E+02  d E =-.162229E-02  mag=    32.0024
