       N       E                     dE             d eps       ncg     rms          ort
DAV:   1     0.265310266622E+04    0.26531E+04   -0.96174E+04   688   0.108E+03
DAV:   2     0.237793866816E+03   -0.24153E+04   -0.22903E+04   688   0.254E+02
DAV:   3    -0.480498791796E+03   -0.71829E+03   -0.71159E+03   688   0.149E+02
DAV:   4    -0.520534165728E+03   -0.40035E+02   -0.39060E+02   688   0.483E+01
DAV:   5    -0.522126697226E+03   -0.15925E+01   -0.15700E+01   688   0.898E+00
SDA:   6    -0.409164158359E+03    0.11296E+03   -0.15700E+01   688   0.293E+03 0.000E+00
CGA:   7    -0.421480376589E+03   -0.12316E+02   -0.29761E+02   688   0.184E+03 0.146E+02
CGA:   8    -0.451473652839E+03   -0.29993E+02   -0.17240E+02   688   0.896E+02-0.898E+02
CGA:   9    -0.469883547024E+03   -0.18410E+02   -0.16715E+01   688   0.285E+03 0.438E+03
CGA:  10    -0.439574290240E+03    0.30309E+02   -0.19101E+02   688   0.113E+03-0.281E+02
CGA:  11    -0.450731413882E+03   -0.11157E+02   -0.72470E+01   688   0.844E+02-0.790E+02
CGA:  12    -0.478283628580E+03   -0.27552E+02   -0.40569E+01   688   0.357E+03-0.104E+04
CGA:  13    -0.458095791821E+03    0.20188E+02   -0.24127E+02   688   0.355E+03-0.834E+02
CGA:  14    -0.444751285186E+03    0.13345E+02   -0.17753E+02   688   0.902E+02-0.420E+02
CGA:  15    -0.453358181993E+03   -0.86069E+01   -0.51509E+01   688   0.668E+02-0.682E+02
CGA:  16    -0.476917517635E+03   -0.23559E+02   -0.26840E+01   688   0.218E+03-0.217E+03
CGA:  17    -0.473332952790E+03    0.35846E+01   -0.14138E+02   688   0.117E+03-0.432E+02
CGA:  18    -0.475452200232E+03   -0.21192E+01   -0.66449E+01   688   0.896E+02-0.846E+02
CGA:  19    -0.474657284742E+03    0.79492E+00   -0.49276E+01   688   0.876E+02-0.939E+02
CGA:  20    -0.475220063901E+03   -0.56278E+00   -0.51506E+01   688   0.246E+02-0.198E+02
CGA:  21    -0.481586782855E+03   -0.63667E+01   -0.66956E+00   688   0.119E+03 0.171E+03
CGA:  22    -0.475412606513E+03    0.61742E+01   -0.55136E+01   688   0.267E+03-0.134E+03
CGA:  23    -0.475506489420E+03   -0.93883E-01   -0.15802E+02   688   0.232E+02-0.178E+02
CGA:  24    -0.479935785642E+03   -0.44293E+01   -0.69486E+00   688   0.121E+03 0.178E+03
CGA:  25    -0.475217547501E+03    0.47182E+01   -0.52347E+01   688   0.210E+03-0.143E+03
CGA:  26    -0.475998522188E+03   -0.78097E+00   -0.11336E+02   688   0.267E+02-0.239E+02
CGA:  27    -0.480571712365E+03   -0.45732E+01   -0.69204E+00   688   0.145E+03 0.210E+03
CGA:  28    -0.476482468152E+03    0.40892E+01   -0.57998E+01   688   0.240E+03-0.164E+03
CGA:  29    -0.476508731499E+03   -0.26263E-01   -0.11645E+02   688   0.349E+02-0.310E+02
CGA:  30    -0.482338005742E+03   -0.58293E+01   -0.86829E+00   688   0.102E+03 0.183E+03
CGA:  31    -0.481528246211E+03    0.80976E+00   -0.31956E+01   688   0.172E+03-0.141E+03
CGA:  32    -0.479129503403E+03    0.23987E+01   -0.66618E+01   688   0.139E+03-0.100E+03
CGA:  33    -0.478392224326E+03    0.73728E+00   -0.48055E+01   688   0.251E+03-0.234E+03
CGA:  34    -0.477632032714E+03    0.76019E+00   -0.10139E+02   688   0.718E+02-0.645E+02
CGA:  35    -0.483983812941E+03   -0.63518E+01   -0.15039E+01   688   0.191E+02 0.682E+02
CGA:  36    -0.484256615888E+03   -0.27280E+00   -0.29497E+00   688   0.831E+00-0.221E+01
CGA:  37    -0.484281944767E+03   -0.25329E-01   -0.26713E-01   688   0.505E+00-0.211E-01
CGA:  38    -0.484306100516E+03   -0.24156E-01   -0.24811E-01   688   0.572E+00 0.381E-03
CGA:  39    -0.484369622739E+03   -0.63522E-01   -0.61264E-01   688   0.221E+01 0.558E-01
CGA:  40    -0.484599717191E+03   -0.23009E+00   -0.25715E+00   688   0.463E+01-0.676E+00
CGA:  41    -0.484611457484E+03   -0.11740E-01   -0.63733E-02   688   0.431E+01 0.269E+01
CGA:  42    -0.484728824181E+03   -0.11737E+00   -0.14878E+00   688   0.194E+01-0.432E+00
CGA:  43    -0.485110669756E+03   -0.38185E+00   -0.42006E+00   688   0.128E+01 0.571E-01
CGA:  44    -0.485230096097E+03   -0.11943E+00   -0.11523E+00   688   0.236E+00 0.334E+00
CGA:  45    -0.485289143046E+03   -0.59047E-01   -0.48821E-01   688   0.130E+00 0.110E+00
CGA:  46    -0.485389940010E+03   -0.10080E+00    0.60674E+02   688   0.300E+00-0.132E-01
CGA:  47    -0.485436457027E+03   -0.46517E-01   -0.45782E-01   688   0.152E+00 0.270E-01
CGA:  48    -0.485472361213E+03   -0.35904E-01   -0.33495E-01   688   0.538E-01 0.345E-01
CGA:  49    -0.485497842848E+03   -0.25482E-01   -0.25253E-01   688   0.395E-01 0.950E-03
CGA:  50    -0.485518220330E+03   -0.20377E-01   -0.20529E-01   688   0.413E-01-0.455E-03
   1 F= -.48903744E+03 E0= -.48903519E+03  d E =-.489037E+03  mag=    -1.9790
       N       E                     dE             d eps       ncg     rms          ort
SDA:   1    -0.485036416790E+03    0.46143E+00    0.00000E+00   688   0.121E+01 0.000E+00
CGA:   2    -0.485399395824E+03   -0.36298E+00   -0.36278E+00   688   0.427E+00 0.175E-02
CGA:   3    -0.485506121423E+03   -0.10673E+00   -0.10675E+00   688   0.996E-01-0.390E-03
CGA:   4    -0.485527768490E+03   -0.21647E-01   -0.21647E-01   688   0.258E-01-0.179E-05
CGA:   5    -0.485533711013E+03   -0.59425E-02   -0.59424E-02   688   0.800E-02 0.261E-05
CGA:   6    -0.485536089436E+03   -0.23784E-02   -0.23776E-02   688   0.382E-02 0.936E-05
CGA:   7    -0.485537449206E+03   -0.13598E-02   -0.13600E-02   688   0.212E-02-0.196E-05
CGA:   8    -0.485538139595E+03   -0.69039E-03   -0.69083E-03   688   0.879E-03-0.419E-05
CGA:   9    -0.485538406816E+03   -0.26722E-03   -0.26736E-03   688   0.285E-03-0.165E-05
CGA:  10    -0.485538500044E+03   -0.93228E-04   -0.93229E-04   688   0.100E-03-0.114E-07
   2 F= -.48905811E+03 E0= -.48905514E+03  d E =-.206726E-01  mag=    -1.9734
       N       E                     dE             d eps       ncg     rms          ort
SDA:   1    -0.485514110132E+03    0.24297E-01    0.00000E+00   688   0.931E-01 0.000E+00
CGA:   2    -0.485541133466E+03   -0.27023E-01   -0.27025E-01   688   0.320E-01-0.180E-04
CGA:   3    -0.485549185151E+03   -0.80517E-02   -0.80514E-02   688   0.712E-02 0.208E-04
CGA:   4    -0.485550754592E+03   -0.15694E-02   -0.15695E-02   688   0.171E-02 0.104E-05
CGA:   5    -0.485551125560E+03   -0.37097E-03   -0.37092E-03   688   0.488E-03-0.184E-05
CGA:   6    -0.485551249590E+03   -0.12403E-03   -0.12407E-03   688   0.183E-03-0.274E-05
CGA:   7    -0.485551305947E+03   -0.56357E-04   -0.56369E-04   688   0.886E-04-0.171E-06
   3 F= -.48907083E+03 E0= -.48906797E+03  d E =-.333889E-01  mag=    -1.9741
       N       E                     dE             d eps       ncg     rms          ort
SDA:   1    -0.485511372006E+03    0.39878E-01    0.00000E+00   688   0.120E+00 0.000E+00
CGA:   2    -0.485546335226E+03   -0.34963E-01   -0.34965E-01   688   0.411E-01-0.243E-04
CGA:   3    -0.485556603804E+03   -0.10269E-01   -0.10269E-01   688   0.954E-02 0.236E-04
CGA:   4    -0.485558581128E+03   -0.19773E-02   -0.19774E-02   688   0.249E-02 0.166E-05
CGA:   5    -0.485559107906E+03   -0.52678E-03   -0.52670E-03   688   0.654E-03-0.203E-05
CGA:   6    -0.485559277118E+03   -0.16921E-03   -0.16925E-03   688   0.258E-03-0.281E-05
CGA:   7    -0.485559353503E+03   -0.76385E-04   -0.76405E-04   688   0.134E-03-0.421E-06
   4 F= -.48907876E+03 E0= -.48907601E+03  d E =-.413198E-01  mag=    -1.9749
       N       E                     dE             d eps       ncg     rms          ort
SDA:   1    -0.485548290041E+03    0.10987E-01    0.00000E+00   688   0.313E-01 0.000E+00
CGA:   2    -0.485557449281E+03   -0.91592E-02   -0.91593E-02   688   0.107E-01 0.944E-06
CGA:   3    -0.485560116626E+03   -0.26673E-02   -0.26674E-02   688   0.259E-02 0.734E-05
CGA:   4    -0.485560622622E+03   -0.50600E-03   -0.50605E-03   688   0.736E-03 0.886E-06
CGA:   5    -0.485560779320E+03   -0.15670E-03   -0.15666E-03   688   0.192E-03-0.990E-06
CGA:   6    -0.485560831316E+03   -0.51995E-04   -0.52025E-04   688   0.813E-04-0.140E-05
   5 F= -.48908017E+03 E0= -.48907748E+03  d E =-.427318E-01  mag=    -1.9754
       N       E                     dE             d eps       ncg     rms          ort
SDA:   1    -0.485560322490E+03    0.45683E-03    0.00000E+00   688   0.157E-02 0.000E+00
CGA:   2    -0.485560759109E+03   -0.43662E-03   -0.43657E-03   688   0.606E-03 0.204E-05
CGA:   3    -0.485560893196E+03   -0.13409E-03   -0.13412E-03   688   0.190E-03 0.103E-05
CGA:   4    -0.485560927307E+03   -0.34111E-04   -0.34137E-04   688   0.600E-04 0.349E-06
   6 F= -.48908025E+03 E0= -.48907758E+03  d E =-.428128E-01  mag=    -1.9755
       N       E                     dE             d eps       ncg     rms          ort
SDA:   1    -0.485512251155E+03    0.48642E-01    0.00000E+00   688   0.124E+00 0.000E+00
CGA:   2    -0.485549718048E+03   -0.37467E-01   -0.37463E-01   688   0.452E-01 0.493E-04
CGA:   3    -0.485560926868E+03   -0.11209E-01   -0.11209E-01   688   0.877E-02-0.234E-05
CGA:   4    -0.485563044370E+03   -0.21175E-02   -0.21175E-02   688   0.206E-02-0.960E-07
CGA:   5    -0.485563529456E+03   -0.48509E-03   -0.48509E-03   688   0.599E-03 0.505E-06
CGA:   6    -0.485563690963E+03   -0.16151E-03   -0.16150E-03   688   0.271E-03 0.569E-06
CGA:   7    -0.485563771296E+03   -0.80333E-04   -0.80335E-04   688   0.135E-03-0.542E-07
   7 F= -.48908339E+03 E0= -.48908069E+03  d E =-.313518E-02  mag=    -1.9752
       N       E                     dE             d eps       ncg     rms          ort
SDA:   1    -0.485563810220E+03   -0.11926E-03    0.00000E+00   688   0.922E-04 0.000E+00
CGA:   2    -0.485563825156E+03   -0.14936E-04   -0.14961E-04   688   0.386E-04 0.254E-06
   8 F= -.48908344E+03 E0= -.48908073E+03  d E =-.318598E-02  mag=    -1.9752
       N       E                     dE             d eps       ncg     rms          ort
SDA:   1    -0.485519356307E+03    0.44454E-01    0.00000E+00   688   0.115E+00 0.000E+00
CGA:   2    -0.485554753661E+03   -0.35397E-01   -0.35393E-01   688   0.387E-01 0.581E-04
CGA:   3    -0.485564228778E+03   -0.94751E-02   -0.94751E-02   688   0.816E-02 0.938E-06
CGA:   4    -0.485566101748E+03   -0.18730E-02   -0.18730E-02   688   0.177E-02 0.288E-05
CGA:   5    -0.485566495467E+03   -0.39372E-03   -0.39376E-03   688   0.599E-03 0.140E-05
CGA:   6    -0.485566633042E+03   -0.13757E-03   -0.13757E-03   688   0.237E-03-0.919E-07
CGA:   7    -0.485566704394E+03   -0.71351E-04   -0.71343E-04   688   0.108E-03 0.156E-06
   9 F= -.48908617E+03 E0= -.48908360E+03  d E =-.273297E-02  mag=    -1.9764
