 vasp.5.4.4.18Apr17-6-g9f103f2a35 (build Nov  8 2022 18:58:45) complex           
 executed on             LinuxGNU date 2023.04.13  14:29:52
 running on   48 total cores
 distrk:  each k-point on   48 cores,    1 groups
 distr:  one band on NCORES_PER_BAND=  12 cores,    4 groups


--------------------------------------------------------------------------------------------------------


 INCAR:
 POTCAR:    PAW_PBE C 08Apr2002                   
 POTCAR:    PAW_PBE N 08Apr2002                   
 POTCAR:    PAW_PBE Ge_d 03Jul2007                
 POTCAR:    PAW_PBE C 08Apr2002                   
 POTCAR:    PAW_PBE O 08Apr2002                   
 POTCAR:    PAW_PBE C 08Apr2002                   
   SHA256 =  253f7b50bb8d59471dbedb8285d89021f4a42ed1a2c5d38a03a736e69125dd95 C/
   COPYR  = (c) Copyright 08Apr2002 Georg Kresse                                
   COPYR  = This file is part of the software VASP. Any use, copying, and all ot
   COPYR  = If you do not have a valid VASP license, you may not use, copy or di
   VRHFIN =C: s2p2                                                              
   LEXCH  = PE                                                                  
   EATOM  =   147.1560 eV,   10.8157 Ry                                         
                                                                                
   TITEL  = PAW_PBE C 08Apr2002                                                 
   LULTRA =        F    use ultrasoft PP ?                                      
   IUNSCR =        1    unscreen: 0-lin 1-nonlin 2-no                           
   RPACOR =    1.200    partial core radius                                     
   POMASS =   12.011; ZVAL   =    4.000    mass and valenz                      
   RCORE  =    1.500    outmost cutoff radius                                   
   RWIGS  =    1.630; RWIGS  =    0.863    wigner-seitz radius (au A)           
   ENMAX  =  400.000; ENMIN  =  300.000 eV                                      
   ICORE  =        2    local potential                                         
   LCOR   =        T    correct aug charges                                     
   LPAW   =        T    paw PP                                                  
   EAUG   =  644.873                                                            
   DEXC   =    0.000                                                            
   RMAX   =    1.529    core radius for proj-oper                               
   RAUG   =    1.300    factor for augmentation sphere                          
   RDEP   =    1.501    radius for radial grids                                 
   RDEPT  =    1.300    core radius for aug-charge                              
                                                                                
   Atomic configuration                                                         
    4 entries                                                                   
     n  l   j            E        occ.                                          
     1  0  0.50      -273.3789   2.0000                                         
     2  0  0.50       -13.7508   2.0000                                         
     2  1  0.50        -5.2854   2.0000                                         
     3  2  1.50        -5.4423   0.0000                                         
   Description                                                                  
     l       E           TYP  RCUT    TYP  RCUT                                 
     0    -13.7508458     23  1.200                                             
     0     -8.2022199     23  1.200                                             
     1     -5.2854383     23  1.500                                             
     1     34.0145650     23  1.500                                             
     2     -5.4423304      7  1.500                                             
  local pseudopotential read in
  partial core-charges read in
  partial kinetic energy density read in
  atomic valenz-charges read in
  non local Contribution for L=           0  read in
    real space projection operators read in
  non local Contribution for L=           0  read in
    real space projection operators read in
  non local Contribution for L=           1  read in
    real space projection operators read in
  non local Contribution for L=           1  read in
    real space projection operators read in
    PAW grid and wavefunctions read in

   number of l-projection  operators is LMAX  =           4
   number of lm-projection operators is LMMAX =           8

 POTCAR:    PAW_PBE N 08Apr2002                   
   SHA256 =  e053789ff3a61a86a1b75d8a110fcc91f86041011e7b0817c7c99e4e8a6349d7 N/
   COPYR  = (c) Copyright 08Apr2002 Georg Kresse                                
   COPYR  = This file is part of the software VASP. Any use, copying, and all ot
   COPYR  = If you do not have a valid VASP license, you may not use, copy or di
   VRHFIN =N: s2p3                                                              
   LEXCH  = PE                                                                  
   EATOM  =   264.5486 eV,   19.4438 Ry                                         
                                                                                
   TITEL  = PAW_PBE N 08Apr2002                                                 
   LULTRA =        F    use ultrasoft PP ?                                      
   IUNSCR =        1    unscreen: 0-lin 1-nonlin 2-no                           
   RPACOR =    1.200    partial core radius                                     
   POMASS =   14.001; ZVAL   =    5.000    mass and valenz                      
   RCORE  =    1.500    outmost cutoff radius                                   
   RWIGS  =    1.400; RWIGS  =    0.741    wigner-seitz radius (au A)           
   ENMAX  =  400.000; ENMIN  =  300.000 eV                                      
   ICORE  =        2    local potential                                         
   LCOR   =        T    correct aug charges                                     
   LPAW   =        T    paw PP                                                  
   EAUG   =  627.112                                                            
   DEXC   =    0.000                                                            
   RMAX   =    1.529    core radius for proj-oper                               
   RAUG   =    1.300    factor for augmentation sphere                          
   RDEP   =    1.514    radius for radial grids                                 
   RDEPT  =    1.338    core radius for aug-charge                              
                                                                                
   Atomic configuration                                                         
    4 entries                                                                   
     n  l   j            E        occ.                                          
     1  0  0.50      -384.7179   2.0000                                         
     2  0  0.50       -18.5828   2.0000                                         
     2  1  0.50        -7.0898   3.0000                                         
     3  2  1.50        -6.8029   0.0000                                         
   Description                                                                  
     l       E           TYP  RCUT    TYP  RCUT                                 
     0    -18.5828119     23  1.200                                             
     0    -13.5018863     23  1.200                                             
     1     -7.0897853     23  1.500                                             
     1      9.5240782     23  1.500                                             
     2     -6.8029130      7  1.500                                             
  local pseudopotential read in
  partial core-charges read in
  partial kinetic energy density read in
  atomic valenz-charges read in
  non local Contribution for L=           0  read in
    real space projection operators read in
  non local Contribution for L=           0  read in
    real space projection operators read in
  non local Contribution for L=           1  read in
    real space projection operators read in
  non local Contribution for L=           1  read in
    real space projection operators read in
    PAW grid and wavefunctions read in

   number of l-projection  operators is LMAX  =           4
   number of lm-projection operators is LMMAX =           8

 POTCAR:    PAW_PBE Ge_d 03Jul2007                
   SHA256 =  944b26c40d2d7c4f4eb1ff3a2e8dbfdd7129146276cd341854bfd5c0e57780ed Ge
   COPYR  = (c) Copyright 03Jul2007 Georg Kresse                                
   COPYR  = This file is part of the software VASP. Any use, copying, and all ot
   COPYR  = If you do not have a valid VASP license, you may not use, copy or di
   VRHFIN =Ge: 3d4s4p                                                           
   LEXCH  = PE                                                                  
   EATOM  =  2596.2402 eV,  190.8183 Ry                                         
                                                                                
   TITEL  = PAW_PBE Ge_d 03Jul2007                                              
   LULTRA =        F    use ultrasoft PP ?                                      
   IUNSCR =        1    unscreen: 0-lin 1-nonlin 2-no                           
   RPACOR =    2.000    partial core radius                                     
   POMASS =   72.610; ZVAL   =   14.000    mass and valenz                      
   RCORE  =    2.300    outmost cutoff radius                                   
   RWIGS  =    2.300; RWIGS  =    1.217    wigner-seitz radius (au A)           
   ENMAX  =  310.294; ENMIN  =  232.720 eV                                      
   ICORE  =        3    local potential                                         
   LCOR   =        T    correct aug charges                                     
   LPAW   =        T    paw PP                                                  
   EAUG   =  531.356                                                            
   DEXC   =    0.000                                                            
   RMAX   =    2.342    core radius for proj-oper                               
   RAUG   =    1.300    factor for augmentation sphere                          
   RDEP   =    2.318    radius for radial grids                                 
   RDEPT  =    1.783    core radius for aug-charge                              
                                                                                
   Atomic configuration                                                         
    9 entries                                                                   
     n  l   j            E        occ.                                          
     1  0  0.50    -10959.8463   2.0000                                         
     2  0  0.50     -1371.6056   2.0000                                         
     2  1  1.50     -1198.4791   6.0000                                         
     3  0  0.50      -168.4733   2.0000                                         
     3  1  1.50      -115.6019   6.0000                                         
     3  2  2.50       -29.3106  10.0000                                         
     4  0  0.50       -11.7309   2.0000                                         
     4  1  0.50        -3.8952   2.0000                                         
     4  3  2.50        -4.0817   0.0000                                         
   Description                                                                  
     l       E           TYP  RCUT    TYP  RCUT                                 
     2    -29.3105938     23  2.200                                             
     2    -13.6058260     23  2.200                                             
     0    -11.7309493     23  2.300                                             
     0     -7.4578696     23  2.300                                             
     1     -3.8952261     23  2.300                                             
     1      6.1178114     23  2.300                                             
     3     -1.3605826     23  2.300                                             
  local pseudopotential read in
  partial core-charges read in
  partial kinetic energy density read in
  atomic valenz-charges read in
  non local Contribution for L=           2  read in
    real space projection operators read in
  non local Contribution for L=           2  read in
    real space projection operators read in
  non local Contribution for L=           0  read in
    real space projection operators read in
  non local Contribution for L=           0  read in
    real space projection operators read in
  non local Contribution for L=           1  read in
    real space projection operators read in
  non local Contribution for L=           1  read in
    real space projection operators read in
    PAW grid and wavefunctions read in

   number of l-projection  operators is LMAX  =           6
   number of lm-projection operators is LMMAX =          18

 POTCAR:    PAW_PBE C 08Apr2002                   
   SHA256 =  253f7b50bb8d59471dbedb8285d89021f4a42ed1a2c5d38a03a736e69125dd95 C/
   COPYR  = (c) Copyright 08Apr2002 Georg Kresse                                
   COPYR  = This file is part of the software VASP. Any use, copying, and all ot
   COPYR  = If you do not have a valid VASP license, you may not use, copy or di
   VRHFIN =C: s2p2                                                              
   LEXCH  = PE                                                                  
   EATOM  =   147.1560 eV,   10.8157 Ry                                         
                                                                                
   TITEL  = PAW_PBE C 08Apr2002                                                 
   LULTRA =        F    use ultrasoft PP ?                                      
   IUNSCR =        1    unscreen: 0-lin 1-nonlin 2-no                           
   RPACOR =    1.200    partial core radius                                     
   POMASS =   12.011; ZVAL   =    4.000    mass and valenz                      
   RCORE  =    1.500    outmost cutoff radius                                   
   RWIGS  =    1.630; RWIGS  =    0.863    wigner-seitz radius (au A)           
   ENMAX  =  400.000; ENMIN  =  300.000 eV                                      
   ICORE  =        2    local potential                                         
   LCOR   =        T    correct aug charges                                     
   LPAW   =        T    paw PP                                                  
   EAUG   =  644.873                                                            
   DEXC   =    0.000                                                            
   RMAX   =    1.529    core radius for proj-oper                               
   RAUG   =    1.300    factor for augmentation sphere                          
   RDEP   =    1.501    radius for radial grids                                 
   RDEPT  =    1.300    core radius for aug-charge                              
                                                                                
   Atomic configuration                                                         
    4 entries                                                                   
     n  l   j            E        occ.                                          
     1  0  0.50      -273.3789   2.0000                                         
     2  0  0.50       -13.7508   2.0000                                         
     2  1  0.50        -5.2854   2.0000                                         
     3  2  1.50        -5.4423   0.0000                                         
   Description                                                                  
     l       E           TYP  RCUT    TYP  RCUT                                 
     0    -13.7508458     23  1.200                                             
     0     -8.2022199     23  1.200                                             
     1     -5.2854383     23  1.500                                             
     1     34.0145650     23  1.500                                             
     2     -5.4423304      7  1.500                                             
  local pseudopotential read in
  partial core-charges read in
  partial kinetic energy density read in
  atomic valenz-charges read in
  non local Contribution for L=           0  read in
    real space projection operators read in
  non local Contribution for L=           0  read in
    real space projection operators read in
  non local Contribution for L=           1  read in
    real space projection operators read in
  non local Contribution for L=           1  read in
    real space projection operators read in
    PAW grid and wavefunctions read in

   number of l-projection  operators is LMAX  =           4
   number of lm-projection operators is LMMAX =           8

 POTCAR:    PAW_PBE O 08Apr2002                   
   SHA256 =  818f92134a0a090dccd8ba1447fa70422a3b330e708bb4f08108d8ae51209ddf O/
   COPYR  = (c) Copyright 08Apr2002 Georg Kresse                                
   COPYR  = This file is part of the software VASP. Any use, copying, and all ot
   COPYR  = If you do not have a valid VASP license, you may not use, copy or di
   VRHFIN =O: s2p4                                                              
   LEXCH  = PE                                                                  
   EATOM  =   432.3788 eV,   31.7789 Ry                                         
                                                                                
   TITEL  = PAW_PBE O 08Apr2002                                                 
   LULTRA =        F    use ultrasoft PP ?                                      
   IUNSCR =        1    unscreen: 0-lin 1-nonlin 2-no                           
   RPACOR =    1.200    partial core radius                                     
   POMASS =   16.000; ZVAL   =    6.000    mass and valenz                      
   RCORE  =    1.520    outmost cutoff radius                                   
   RWIGS  =    1.550; RWIGS  =    0.820    wigner-seitz radius (au A)           
   ENMAX  =  400.000; ENMIN  =  300.000 eV                                      
   ICORE  =        2    local potential                                         
   LCOR   =        T    correct aug charges                                     
   LPAW   =        T    paw PP                                                  
   EAUG   =  605.392                                                            
   DEXC   =    0.000                                                            
   RMAX   =    1.553    core radius for proj-oper                               
   RAUG   =    1.300    factor for augmentation sphere                          
   RDEP   =    1.550    radius for radial grids                                 
   RDEPT  =    1.329    core radius for aug-charge                              
                                                                                
   Atomic configuration                                                         
    4 entries                                                                   
     n  l   j            E        occ.                                          
     1  0  0.50      -514.6923   2.0000                                         
     2  0  0.50       -23.9615   2.0000                                         
     2  1  0.50        -9.0305   4.0000                                         
     3  2  1.50        -9.5241   0.0000                                         
   Description                                                                  
     l       E           TYP  RCUT    TYP  RCUT                                 
     0    -23.9615318     23  1.200                                             
     0     -9.5240782     23  1.200                                             
     1     -9.0304911     23  1.520                                             
     1      8.1634956     23  1.520                                             
     2     -9.5240782      7  1.500                                             
  local pseudopotential read in
  partial core-charges read in
  partial kinetic energy density read in
  kinetic energy density of atom read in
  atomic valenz-charges read in
  non local Contribution for L=           0  read in
    real space projection operators read in
  non local Contribution for L=           0  read in
    real space projection operators read in
  non local Contribution for L=           1  read in
    real space projection operators read in
  non local Contribution for L=           1  read in
    real space projection operators read in
    PAW grid and wavefunctions read in

   number of l-projection  operators is LMAX  =           4
   number of lm-projection operators is LMMAX =           8

 Optimization of the real space projectors (new method)

 maximal supplied QI-value         = 25.13
 optimisation between [QCUT,QGAM] = [ 10.56, 21.36] = [ 31.20,127.80] Ry 
 Optimized for a Real-space Cutoff    1.24 Angstroem

   l    n(q)    QCUT    max X(q) W(low)/X(q) W(high)/X(q)  e(spline) 
   0      8    10.556   115.676    0.42E-03    0.71E-03    0.20E-06
   0      8    10.556    87.132    0.41E-03    0.71E-03    0.20E-06
   1      7    10.556     4.429    0.22E-03    0.39E-03    0.12E-06
   1      7    10.556     2.733    0.16E-03    0.27E-03    0.14E-06
 Optimization of the real space projectors (new method)

 maximal supplied QI-value         = 25.13
 optimisation between [QCUT,QGAM] = [ 10.56, 21.36] = [ 31.20,127.80] Ry 
 Optimized for a Real-space Cutoff    1.24 Angstroem

   l    n(q)    QCUT    max X(q) W(low)/X(q) W(high)/X(q)  e(spline) 
   0      8    10.556    79.467    0.40E-03    0.66E-03    0.17E-06
   0      8    10.556    66.151    0.40E-03    0.66E-03    0.17E-06
   1      7    10.556    12.181    0.19E-03    0.18E-02    0.13E-05
   1      7    10.556     8.434    0.21E-03    0.18E-02    0.13E-05
 Optimization of the real space projectors (new method)

 maximal supplied QI-value         = 16.25
 optimisation between [QCUT,QGAM] = [ 10.73, 21.45] = [ 32.22,128.87] Ry 
 Optimized for a Real-space Cutoff    1.40 Angstroem

   l    n(q)    QCUT    max X(q) W(low)/X(q) W(high)/X(q)  e(spline) 
   2      8    10.726     8.936    0.24E-03    0.48E-03    0.17E-06
   2      8    10.726     8.183    0.29E-03    0.63E-03    0.25E-06
   0      9    10.726    62.777    0.12E-03    0.98E-05    0.77E-07
   0      9    10.726    50.556    0.12E-03    0.95E-05    0.75E-07
   1      8    10.726    38.422    0.54E-04    0.12E-03    0.11E-06
   1      8    10.726    22.623    0.50E-04    0.11E-03    0.10E-06
 Optimization of the real space projectors (new method)

 maximal supplied QI-value         = 25.13
 optimisation between [QCUT,QGAM] = [ 10.56, 21.36] = [ 31.20,127.80] Ry 
 Optimized for a Real-space Cutoff    1.24 Angstroem

   l    n(q)    QCUT    max X(q) W(low)/X(q) W(high)/X(q)  e(spline) 
   0      8    10.556   115.676    0.42E-03    0.71E-03    0.20E-06
   0      8    10.556    87.132    0.41E-03    0.71E-03    0.20E-06
   1      7    10.556     4.429    0.22E-03    0.39E-03    0.12E-06
   1      7    10.556     2.733    0.16E-03    0.27E-03    0.14E-06
 Optimization of the real space projectors (new method)

 maximal supplied QI-value         = 24.76
 optimisation between [QCUT,QGAM] = [ 10.64, 21.29] = [ 31.73,126.92] Ry 
 Optimized for a Real-space Cutoff    1.24 Angstroem

   l    n(q)    QCUT    max X(q) W(low)/X(q) W(high)/X(q)  e(spline) 
   0      8    10.645    20.381    0.39E-03    0.65E-03    0.15E-06
   0      8    10.645    15.268    0.42E-03    0.70E-03    0.17E-06
   1      7    10.645     5.964    0.38E-03    0.66E-03    0.17E-06
   1      7    10.645     5.382    0.31E-03    0.55E-03    0.16E-06
  PAW_PBE C 08Apr2002                   :
 energy of atom  1       EATOM= -147.1560
 kinetic energy error for atom=    0.0132 (will be added to EATOM!!)
  PAW_PBE N 08Apr2002                   :
 energy of atom  2       EATOM= -264.5486
 kinetic energy error for atom=    0.0298 (will be added to EATOM!!)
  PAW_PBE Ge_d 03Jul2007                :
 energy of atom  3       EATOM=-2596.2402
 kinetic energy error for atom=    0.0090 (will be added to EATOM!!)
  PAW_PBE C 08Apr2002                   :
 energy of atom  4       EATOM= -147.1560
 kinetic energy error for atom=    0.0132 (will be added to EATOM!!)
  PAW_PBE O 08Apr2002                   :
 energy of atom  5       EATOM= -432.3788
 kinetic energy error for atom=    0.0458 (will be added to EATOM!!)


 POSCAR: POSCAR-c3n4                             
  positions in direct lattice
  velocities in cartesian coordinates
 exchange correlation table for  LEXCH =        8
   RHO(1)=    0.500       N(1)  =     2000
   RHO(2)=  100.500       N(2)  =     4000



--------------------------------------------------------------------------------------------------------


 ion  position               nearest neighbor table
   1  0.048  0.118  0.474-  26 1.35  46 1.36  25 1.36
   2  0.274  0.513  0.487-  29 1.31  35 1.37   3 1.50
   3  0.182  0.507  0.488-  44 1.31  39 1.37   2 1.50
   4  0.557  0.077  0.479-  30 1.30  27 1.38  48 1.41
   5  0.371  0.458  0.456-  28 1.33  29 1.35  56 1.41
   6  0.043  0.978  0.500-  31 1.32  26 1.35  32 1.41
   7  0.047  0.694  0.518-  33 1.32  54 1.36  34 1.41
   8  0.409  0.949  0.464-  27 1.28  37 1.33
   9  0.023  0.829  0.521-  33 1.34  52 1.37  31 1.37
  10  0.436  0.616  0.513-  38 1.31  35 1.37  56 1.39
  11  0.519  0.911  0.477-  36 1.32  37 1.36  48 1.39
  12  0.116  0.603  0.510-  34 1.29  39 1.38  40 1.38
  13  0.713  0.197  0.498-  41 1.31  42 1.39  30 1.40
  14  0.859  0.364  0.484-  41 1.32  51 1.37  45 1.41
  15  0.477  0.418  0.428-  55 1.30  28 1.32
  16  0.902  0.984  0.475-  46 1.33  43 1.34  32 1.40
  17  0.020  0.433  0.477-  45 1.30  44 1.39  40 1.41
  18  0.673  0.040  0.521-  42 1.32  47 1.36  48 1.43
  19  0.594  0.720  0.512-  50 1.34  38 1.37  49 1.38
  20  0.763  0.852  0.504-  53 1.32  43 1.33  49 1.45
  21  0.634  0.885  0.512-  47 1.32  36 1.34  49 1.44
  22  0.949  0.531  0.496-  51 1.32  54 1.33  40 1.43
  23  0.889  0.836  0.521-  52 1.32  53 1.36  32 1.41
  24  0.543  0.569  0.469-  50 1.32  55 1.35  56 1.42
  25  0.103  0.216  0.471-   1 1.36
  26  0.096  0.074  0.490-   1 1.35   6 1.35
  27  0.462  0.041  0.466-   8 1.28   4 1.38
  28  0.387  0.392  0.429-  15 1.32   5 1.33
  29  0.283  0.443  0.461-   2 1.31   5 1.35
  30  0.620  0.168  0.481-   4 1.30  13 1.40
  31  0.082  0.926  0.511-   6 1.32   9 1.37
  32  0.944  0.933  0.499-  16 1.40  23 1.41   6 1.41
  33  0.073  0.785  0.522-   7 1.32   9 1.34
  34  0.127  0.685  0.527-  12 1.29   7 1.41
  35  0.346  0.599  0.514-  10 1.37   2 1.37  57 2.12
  36  0.551  0.852  0.477-  11 1.32  21 1.34
  37  0.427  0.879  0.466-   8 1.33  11 1.36
  38  0.508  0.695  0.540-  10 1.31  19 1.37
  39  0.194  0.594  0.509-   3 1.37  12 1.38  57 2.00
  40  0.030  0.522  0.494-  12 1.38  17 1.41  22 1.43
  41  0.773  0.289  0.490-  13 1.31  14 1.32
  42  0.736  0.133  0.527-  18 1.32  13 1.39
  43  0.807  0.936  0.469-  20 1.33  16 1.34
  44  0.102  0.429  0.471-   3 1.31  17 1.39
  45  0.937  0.356  0.468-  17 1.30  14 1.41
  46  0.954  0.078  0.461-  16 1.33   1 1.36
  47  0.691  0.971  0.541-  21 1.32  18 1.36
  48  0.582  0.008  0.491-  11 1.39   4 1.41  18 1.43
  49  0.663  0.816  0.515-  19 1.38  21 1.44  20 1.45
  50  0.614  0.658  0.481-  24 1.32  19 1.34
  51  0.865  0.451  0.491-  22 1.32  14 1.37
  52  0.928  0.785  0.532-  23 1.32   9 1.37
  53  0.795  0.800  0.533-  20 1.32  23 1.36
  54  0.961  0.617  0.503-  22 1.33   7 1.36
  55  0.554  0.497  0.445-  15 1.30  24 1.35
  56  0.449  0.547  0.478-  10 1.39   5 1.41  24 1.42
  57  0.316  0.705  0.546-  39 2.00  35 2.12
  58  0.260  0.584  0.679-  59 1.14
  59  0.251  0.557  0.738-  58 1.14


IMPORTANT INFORMATION: All symmetrisations will be switched off!
NOSYMM: (Re-)initialisation of all symmetry stuff for point group C_1.



 KPOINTS: K-Points                                

Automatic generation of k-mesh.
Space group operators:
 irot       det(A)        alpha          n_x          n_y          n_z        tau_x        tau_y        tau_z
    1     1.000000     0.000000     1.000000     0.000000     0.000000     0.000000     0.000000     0.000000
 
 Subroutine IBZKPT returns following result:
 ===========================================
 
 Found      4 irreducible k-points:
 
 Following reciprocal coordinates:
            Coordinates               Weight
  0.000000  0.000000  0.000000      1.000000
  0.500000  0.000000  0.000000      1.000000
  0.000000  0.500000  0.000000      1.000000
  0.500000  0.500000  0.000000      1.000000
 
 Following cartesian coordinates:
            Coordinates               Weight
  0.000000  0.000000  0.000000      1.000000
  0.036415  0.021552  0.000000      1.000000
  0.000594  0.043104  0.000000      1.000000
  0.037009  0.064656  0.000000      1.000000
 


--------------------------------------------------------------------------------------------------------




 Dimension of arrays:
   k-points           NKPTS =      4   k-points in BZ     NKDIM =      4   number of bands    NBANDS=    172
   number of dos      NEDOS =    301   number of ions     NIONS =     59
   non local maximal  LDIM  =      6   non local SUM 2l+1 LMDIM =     18
   total plane-waves  NPLWV = 725760
   max r-space proj   IRMAX =   2038   max aug-charges    IRDMAX=   6063
   dimension x,y,z NGX =    90 NGY =   84 NGZ =   96
   dimension x,y,z NGXF=   180 NGYF=  168 NGZF=  192
   support grid    NGXF=   180 NGYF=  168 NGZF=  192
   ions per type =              24  32   1   1   1
   NGX,Y,Z   is equivalent  to a cutoff of   9.01,  8.56,  8.87 a.u.
   NGXF,Y,Z  is equivalent  to a cutoff of  18.01, 17.13, 17.73 a.u.

 SYSTEM =  unknown system                          
 POSCAR =  POSCAR-c3n4                             

 Startparameter for this run:
   NWRITE =      2    write-flag & timer
   PREC   = normal    normal or accurate (medium, high low for compatibility)
   ISTART =      0    job   : 0-new  1-cont  2-samecut
   ICHARG =      2    charge: 1-file 2-atom 10-const
   ISPIN  =      2    spin polarized calculation?
   LNONCOLLINEAR =      F non collinear calculations
   LSORBIT =      F    spin-orbit coupling
   INIWAV =      1    electr: 0-lowe 1-rand  2-diag
   LASPH  =      F    aspherical Exc in radial PAW
   METAGGA=      F    non-selfconsistent MetaGGA calc.

 Electronic Relaxation 1
   ENCUT  =  440.0 eV  32.34 Ry    5.69 a.u.  28.42 27.89 30.79*2*pi/ulx,y,z
   ENINI  =  440.0     initial cutoff
   ENAUG  =  644.9 eV  augmentation charge cutoff
   NELM   =     50;   NELMIN=  2; NELMDL= -5     # of ELM steps 
   EDIFF  = 0.1E-03   stopping-criterion for ELM
   LREAL  =      T    real-space projection
   NLSPLINE    = F    spline interpolate recip. space projectors
   LCOMPAT=      F    compatible to vasp.4.4
   GGA_COMPAT  = T    GGA compatible to vasp.4.4-vasp.4.6
   LMAXPAW     = -100 max onsite density
   LMAXMIX     =    2 max onsite mixed and CHGCAR
   VOSKOWN=      0    Vosko Wilk Nusair interpolation
   ROPT   =   -0.00050  -0.00050  -0.00050  -0.00050
   ROPT   =   -0.00050
 Ionic relaxation
   EDIFFG = -.1E+00   stopping-criterion for IOM
   NSW    =    400    number of steps for IOM
   NBLOCK =      1;   KBLOCK =    400    inner block; outer block 
   IBRION =      2    ionic relax: 0-MD 1-quasi-New 2-CG
   NFREE  =      1    steps in history (QN), initial steepest desc. (CG)
   ISIF   =      2    stress and relaxation
   IWAVPR =     11    prediction:  0-non 1-charg 2-wave 3-comb
   ISYM   =      0    0-nonsym 1-usesym 2-fastsym
   LCORR  =      T    Harris-Foulkes like correction to forces

   POTIM  = 0.2000    time-step for ionic-motion
   TEIN   =    0.0    initial temperature
   TEBEG  =    0.0;   TEEND  =   0.0 temperature during run
   SMASS  =  -3.00    Nose mass-parameter (am)
   estimated Nose-frequenzy (Omega)   =  0.10E-29 period in steps =****** mass=  -0.631E-26a.u.
   SCALEE = 1.0000    scale energy and forces
   NPACO  =    256;   APACO  = 16.0  distance and # of slots for P.C.
   PSTRESS=    0.0 pullay stress

  Mass of Ions in am
   POMASS =  12.01 14.00 72.61 12.01 16.00
  Ionic Valenz
   ZVAL   =   4.00  5.00 14.00  4.00  6.00
  Atomic Wigner-Seitz radii
   RWIGS  =  -1.00 -1.00 -1.00 -1.00 -1.00
  virtual crystal weights 
   VCA    =   1.00  1.00  1.00  1.00  1.00
   NELECT =     280.0000    total number of electrons
   NUPDOWN=      -1.0000    fix difference up-down

 DOS related values:
   EMIN   =  10.00;   EMAX   =-10.00  energy-range for DOS
   EFERMI =   0.00
   ISMEAR =     0;   SIGMA  =   0.10  broadening in eV -4-tet -1-fermi 0-gaus

 Electronic relaxation 2 (details)
   IALGO  =     58    algorithm
   LDIAG  =      T    sub-space diagonalisation (order eigenvalues)
   LSUBROT=      F    optimize rotation matrix (better conditioning)
   TURBO    =      0    0=normal 1=particle mesh
   IRESTART =      0    0=no restart 2=restart with 2 vectors
   NREBOOT  =      0    no. of reboots
   NMIN     =      0    reboot dimension
   EREF     =   0.00    reference energy to select bands
   IMIX   =      4    mixing-type and parameters
     AMIX     =   0.05;   BMIX     =  0.00
     AMIX_MAG =   0.20;   BMIX_MAG =  0.00
     AMIN     =   0.05
     WC   =   100.;   INIMIX=   1;  MIXPRE=   1;  MAXMIX= -45

 Intra band minimization:
   WEIMIN = 0.0010     energy-eigenvalue tresh-hold
   EBREAK =  0.15E-06  absolut break condition
   DEPER  =   0.30     relativ break condition  

   TIME   =   0.40     timestep for ELM

  volume/ion in A,a.u.               =      70.55       476.07
  Fermi-wavevector in a.u.,A,eV,Ry     =   0.665811  1.258200  6.031519  0.443304
  Thomas-Fermi vector in A             =   1.739920

 Write flags
   LWAVE        =      F    write WAVECAR
   LDOWNSAMPLE  =      F    k-point downsampling of WAVECAR
   LCHARG       =      F    write CHGCAR
   LVTOT        =      F    write LOCPOT, total local potential
   LVHAR        =      F    write LOCPOT, Hartree potential only
   LELF         =      F    write electronic localiz. function (ELF)
   LORBIT       =      0    0 simple, 1 ext, 2 COOP (PROOUT), +10 PAW based schemes


 Dipole corrections
   LMONO  =      F    monopole corrections only (constant potential shift)
   LDIPOL =      F    correct potential (dipole corrections)
   IDIPOL =      0    1-x, 2-y, 3-z, 4-all directions 
   EPSILON=  1.0000000 bulk dielectric constant

 Exchange correlation treatment:
   GGA     =    --    GGA type
   LEXCH   =     8    internal setting for exchange type
   VOSKOWN=      0    Vosko Wilk Nusair interpolation
   LHFCALC =     F    Hartree Fock is set to
   LHFONE  =     F    Hartree Fock one center treatment
   AEXX    =    0.0000 exact exchange contribution

 Linear response parameters
   LEPSILON=     F    determine dielectric tensor
   LRPA    =     F    only Hartree local field effects (RPA)
   LNABLA  =     F    use nabla operator in PAW spheres
   LVEL    =     F    velocity operator in full k-point grid
   LINTERFAST=   F  fast interpolation
   KINTER  =     0    interpolate to denser k-point grid
   CSHIFT  =0.1000    complex shift for real part using Kramers Kronig
   OMEGAMAX=  -1.0    maximum frequency
   DEG_THRESHOLD= 0.2000000E-02 threshold for treating states as degnerate
   RTIME   =   -0.100 relaxation time in fs
  (WPLASMAI=    0.000 imaginary part of plasma frequency in eV, 0.658/RTIME)
   DFIELD  = 0.0000000 0.0000000 0.0000000 field for delta impulse in time

 Orbital magnetization related:
   ORBITALMAG=     F  switch on orbital magnetization
   LCHIMAG   =     F  perturbation theory with respect to B field
   DQ        =  0.001000  dq finite difference perturbation B field
   LLRAUG    =     F  two centre corrections for induced B field



--------------------------------------------------------------------------------------------------------


 conjugate gradient relaxation of ions
 charge density and potential will be updated during run
 spin polarized calculation
 Conjugate gradient for all bands (Freysoldt, et al. PRB 79, 241103 (2009))
 preconditioned conjugated gradient                                        
 perform sub-space diagonalisation
    before iterative eigenvector-optimisation
 modified Broyden-mixing scheme, WC =      100.0
 initial mixing is a Kerker type mixing with AMIX =  0.0500 and BMIX =      0.0001
 Hartree-type preconditioning will be used
 using additional bands           32
 real space projection scheme for non local part
 use partial core corrections
 no Harris-corrections to forces 
 use gradient corrections 
 use of overlap-Matrix (Vanderbilt PP)
 Gauss-broadening in eV      SIGMA  =   0.10


--------------------------------------------------------------------------------------------------------


  energy-cutoff  :      440.00
  volume of cell :     4162.27
      direct lattice vectors                 reciprocal lattice vectors
    16.612109082 -0.228888569  0.000000000     0.060691974  0.035920095 -0.000000000
    -8.306054541 14.034229193  0.000000000     0.000989844  0.071840191 -0.000000000
     0.000000000  0.000000000 18.000000000    -0.000000000 -0.000000000  0.055555556

  length of vectors
    16.613685868 16.307977528 18.000000000     0.070524953  0.071847009  0.055555556



 k-points in units of 2pi/SCALE and weight: K-Points                                
   0.00000000  0.00000000  0.00000000       0.250
   0.03641518  0.02155206  0.00000000       0.250
   0.00059391  0.04310411  0.00000000       0.250
   0.03700909  0.06465617  0.00000000       0.250

 k-points in reciprocal lattice and weights: K-Points                                
   0.00000000  0.00000000  0.00000000       0.250
   0.50000000  0.00000000  0.00000000       0.250
   0.00000000  0.50000000  0.00000000       0.250
   0.50000000  0.50000000  0.00000000       0.250

 position of ions in fractional coordinates (direct lattice) 
   0.04827203  0.11797009  0.47390079
   0.27434348  0.51295521  0.48703582
   0.18150534  0.50738686  0.48783874
   0.55690401  0.07731175  0.47900337
   0.37080807  0.45806563  0.45550258
   0.04263130  0.97787851  0.49997903
   0.04741794  0.69436557  0.51803023
   0.40892576  0.94941381  0.46401599
   0.02324317  0.82908079  0.52072004
   0.43606733  0.61592182  0.51296054
   0.51914522  0.91087034  0.47742006
   0.11574727  0.60314077  0.51049599
   0.71322014  0.19665242  0.49823871
   0.85880319  0.36414230  0.48384674
   0.47675381  0.41771396  0.42841763
   0.90153316  0.98426695  0.47478885
   0.02042370  0.43271806  0.47658204
   0.67321517  0.04025427  0.52100269
   0.59425827  0.71953627  0.51244648
   0.76274496  0.85232181  0.50433281
   0.63416639  0.88490111  0.51210092
   0.94877929  0.53062172  0.49593765
   0.88854049  0.83648022  0.52145666
   0.54294289  0.56931593  0.46880146
   0.10263560  0.21576968  0.47108228
   0.09562355  0.07392458  0.49031156
   0.46245565  0.04107938  0.46647389
   0.38699931  0.39227733  0.42864850
   0.28312433  0.44299375  0.46082107
   0.62039689  0.16831253  0.48067409
   0.08162654  0.92645029  0.51107332
   0.94354854  0.93309939  0.49857346
   0.07258604  0.78537398  0.52249574
   0.12662654  0.68500937  0.52724422
   0.34644899  0.59888823  0.51415053
   0.55135625  0.85205198  0.47714488
   0.42653073  0.87873066  0.46575140
   0.50762083  0.69542225  0.53951633
   0.19389297  0.59429935  0.50858349
   0.03018388  0.52194705  0.49357289
   0.77262833  0.28908308  0.48997141
   0.73620975  0.13252817  0.52684710
   0.80736563  0.93605009  0.46860585
   0.10182349  0.42920989  0.47133327
   0.93717370  0.35570525  0.46818584
   0.95428180  0.07755814  0.46083927
   0.69083422  0.97050600  0.54101130
   0.58180086  0.00790450  0.49133969
   0.66319528  0.81605917  0.51504093
   0.61397496  0.65782384  0.48092062
   0.86494389  0.45065032  0.49115109
   0.92795693  0.78489874  0.53233335
   0.79529589  0.80046255  0.53284861
   0.96056291  0.61744080  0.50317568
   0.55403656  0.49745976  0.44490102
   0.44874025  0.54713527  0.47830437
   0.31574196  0.70483772  0.54565641
   0.26000883  0.58437809  0.67866446
   0.25149704  0.55671521  0.73789626

 position of ions in cartesian coordinates  (Angst):
  -0.17796573  1.64457030  8.53021414
   0.29678990  7.13613694  8.76664481
  -1.19919637  7.07923898  8.78109732
   8.60919447  0.95754190  8.62206058
   2.35518606  6.34372428  8.19904653
  -7.41411643 13.71401330  8.99962250
  -4.97972625  9.73403215  9.32454406
  -1.09276357 13.23069251  8.35228789
  -6.50027212 11.63018971  9.37296064
   2.12811780  8.54417713  9.23328980
   1.05835835 12.66453669  8.59356115
  -3.08691388  8.43812252  9.18892774
  10.21468511  2.59661714  8.96829677
  11.24194649  4.91388629  8.70924133
   4.45033131  5.75317001  7.71151738
   6.80099215 13.60707734  8.54619935
  -3.25489898  6.06818961  8.57847680
  10.84916963  0.41084638  9.37804840
   3.89537575  9.96211797  9.22403661
   5.59137101 11.78709601  9.07799061
   3.18480430 12.27375158  9.21781657
  11.35385219  7.22970205  8.92687765
   7.81268119 11.53597835  9.38621992
   4.29065741  7.86563678  8.43842623
  -0.08720094  3.00466907  8.47948096
   0.97448733  1.01558729  8.82560805
   7.34115608  0.47066658  8.39652998
   3.17059781  5.41673027  7.71567306
   1.02376205  6.15227187  8.29477920
   8.90808774  2.22013483  8.65213368
  -6.33915775 12.98333239  9.19931970
   7.92395678 12.87936321  8.97432234
  -5.31755188 11.00550431  9.40492340
  -3.58619125  9.58459518  9.49039591
   0.78085015  8.32563645  9.25470958
   2.08199995 11.83169367  8.58860781
  -0.21320979 12.23467944  8.38352525
   2.65643751  9.64352657  9.71129388
  -1.71531157  8.29615340  9.15450290
  -3.83390269  7.31821573  8.88431206
  10.43384619  3.88021242  8.81948546
  11.12921044  1.69142066  9.48324776
   5.63716287 12.95194468  8.43490523
  -1.87353788  6.00032367  8.48399885
  12.61392458  4.77754060  8.42734512
  15.20843117  0.87004453  8.29510692
   3.41513754 13.46217964  9.73820339
   9.59928407 -0.02223402  8.84411442
   4.23884030 11.30096360  9.27073682
   4.73549828  9.09151865  8.65657108
  10.62541610  6.12655413  8.84071959
   8.89591004 10.80305001  9.58200025
   6.56285640 11.05184078  9.59127507
  10.82847882  8.44544389  9.05716221
   5.07178788  6.85465164  8.00821835
   2.90998652  7.57591029  8.60947862
  -0.60928063  9.81958442  9.82181530
  -0.53458113  8.14178295 12.21596030
  -0.44621058  7.75550403 13.28213270



--------------------------------------------------------------------------------------------------------


 k-point  1 :   0.0000 0.0000 0.0000  plane waves:   87267
 k-point  2 :   0.5000 0.0000 0.0000  plane waves:   87208
 k-point  3 :   0.0000 0.5000 0.0000  plane waves:   87208
 k-point  4 :   0.5000 0.5000 0.0000  plane waves:   87238

 maximum and minimum number of plane-waves per node :      7294     7246

 maximum number of plane-waves:     87267
 maximum index in each direction: 
   IXMAX=   28   IYMAX=   27   IZMAX=   30
   IXMIN=  -28   IYMIN=  -28   IZMIN=  -30


 real space projection operators:
  total allocation   :       5180.97 KBytes
  max/ min on nodes  :        466.89        397.20


 parallel 3D FFT for wavefunctions:
    minimum data exchange during FFTs selected (reduces bandwidth)
 parallel 3D FFT for charge:
    minimum data exchange during FFTs selected (reduces bandwidth)


 total amount of memory used by VASP MPI-rank0   179055. kBytes
=======================================================================

   base      :      30000. kBytes
   nonlr-proj:       2577. kBytes
   fftplans  :       6275. kBytes
   grid      :      18719. kBytes
   one-center:        155. kBytes
   wavefun   :     121329. kBytes

     INWAV:  cpu time    0.0001: real time    0.0001
 Broyden mixing: mesh for mixing (old mesh)
   NGX = 57   NGY = 55   NGZ = 61
  (NGX  =180   NGY  =168   NGZ  =192)
  gives a total of 191235 points

 initial charge density was supplied:
 charge density of overlapping atoms calculated
 number of electron     280.0000000 magnetization       2.0000000
 keeping initial charge density in first step


--------------------------------------------------------------------------------------------------------


 Maximum index for non-local projection operator          220
 Maximum index for augmentation-charges          175 (set IRDMAX)


--------------------------------------------------------------------------------------------------------


 First call to EWALD:  gamma=   0.110
 Maximum number of real-space cells 3x 3x 3
 Maximum number of reciprocal cells 3x 3x 3

    FEWALD:  cpu time    0.0035: real time    0.0035


--------------------------------------- Iteration      1(   1)  ---------------------------------------


    POTLOK:  cpu time    0.3144: real time    0.3144
    SETDIJ:  cpu time    0.0107: real time    0.0107
    TRIAL :  cpu time   13.0806: real time   13.0839
    CORREC:  cpu time    0.0013: real time    0.0013
    --------------------------------------------
      LOOP:  cpu time   13.4210: real time   13.4348

 eigenvalue-minimisations  :  3440
 total energy-change (2. order) : 0.2653103E+04  (-0.9617353E+04)
 number of electron     280.0000000 magnetization       2.0000000
 augmentation part      280.0000000 magnetization       2.0000000

 Free energy of the ion-electron system (eV)
  ---------------------------------------------------
  alpha Z        PSCENC =        89.52339426
  Ewald energy   TEWEN  =     31610.61031617
  -Hartree energ DENC   =    -43232.08676987
  -exchange      EXHF   =         0.00000000
  -V(xc)+E(xc)   XCENC  =      1060.72906507
  PAW double counting   =     11453.83848114   -11942.90478952
  entropy T*S    EENTRO =        -0.11788293
  eigenvalues    EBANDS =     -1558.22530029
  atomic energy  EATOM  =     15171.73615219
  ---------------------------------------------------
  free energy    TOTEN  =      2653.10266622 eV

  energy without entropy =     2653.22054915  energy(sigma->0) =     2653.16160768


--------------------------------------------------------------------------------------------------------




--------------------------------------- Iteration      1(   2)  ---------------------------------------


    TRIAL :  cpu time   15.7277: real time   15.7309
    CORREC:  cpu time    0.0010: real time    0.0010
    --------------------------------------------
      LOOP:  cpu time   15.7393: real time   15.7430

 eigenvalue-minimisations  :  4108
 total energy-change (2. order) :-0.2415309E+04  (-0.2290328E+04)
 number of electron     280.0000000 magnetization       2.0000000
 augmentation part      280.0000000 magnetization       2.0000000

 Free energy of the ion-electron system (eV)
  ---------------------------------------------------
  alpha Z        PSCENC =        89.52339426
  Ewald energy   TEWEN  =     31610.61031617
  -Hartree energ DENC   =    -43232.08676987
  -exchange      EXHF   =         0.00000000
  -V(xc)+E(xc)   XCENC  =      1060.72906507
  PAW double counting   =     11453.83848114   -11942.90478952
  entropy T*S    EENTRO =        -0.01464062
  eigenvalues    EBANDS =     -3973.63734200
  atomic energy  EATOM  =     15171.73615219
  ---------------------------------------------------
  free energy    TOTEN  =       237.79386682 eV

  energy without entropy =      237.80850744  energy(sigma->0) =      237.80118713


--------------------------------------------------------------------------------------------------------




--------------------------------------- Iteration      1(   3)  ---------------------------------------


    TRIAL :  cpu time   13.5173: real time   13.5214
    CORREC:  cpu time    0.0010: real time    0.0010
    --------------------------------------------
      LOOP:  cpu time   13.5206: real time   13.5315

 eigenvalue-minimisations  :  3312
 total energy-change (2. order) :-0.7182927E+03  (-0.7115946E+03)
 number of electron     280.0000000 magnetization       2.0000000
 augmentation part      280.0000000 magnetization       2.0000000

 Free energy of the ion-electron system (eV)
  ---------------------------------------------------
  alpha Z        PSCENC =        89.52339426
  Ewald energy   TEWEN  =     31610.61031617
  -Hartree energ DENC   =    -43232.08676987
  -exchange      EXHF   =         0.00000000
  -V(xc)+E(xc)   XCENC  =      1060.72906507
  PAW double counting   =     11453.83848114   -11942.90478952
  entropy T*S    EENTRO =        -0.00000000
  eigenvalues    EBANDS =     -4691.94464123
  atomic energy  EATOM  =     15171.73615219
  ---------------------------------------------------
  free energy    TOTEN  =      -480.49879180 eV

  energy without entropy =     -480.49879179  energy(sigma->0) =     -480.49879179


--------------------------------------------------------------------------------------------------------




--------------------------------------- Iteration      1(   4)  ---------------------------------------


    TRIAL :  cpu time   12.6806: real time   12.6835
    CORREC:  cpu time    0.0008: real time    0.0008
    --------------------------------------------
      LOOP:  cpu time   12.6899: real time   12.6931

 eigenvalue-minimisations  :  3360
 total energy-change (2. order) :-0.4003537E+02  (-0.3906012E+02)
 number of electron     280.0000000 magnetization       2.0000000
 augmentation part      280.0000000 magnetization       2.0000000

 Free energy of the ion-electron system (eV)
  ---------------------------------------------------
  alpha Z        PSCENC =        89.52339426
  Ewald energy   TEWEN  =     31610.61031617
  -Hartree energ DENC   =    -43232.08676987
  -exchange      EXHF   =         0.00000000
  -V(xc)+E(xc)   XCENC  =      1060.72906507
  PAW double counting   =     11453.83848114   -11942.90478952
  entropy T*S    EENTRO =        -0.00000000
  eigenvalues    EBANDS =     -4731.98001516
  atomic energy  EATOM  =     15171.73615219
  ---------------------------------------------------
  free energy    TOTEN  =      -520.53416573 eV

  energy without entropy =     -520.53416573  energy(sigma->0) =     -520.53416573


--------------------------------------------------------------------------------------------------------




--------------------------------------- Iteration      1(   5)  ---------------------------------------


    TRIAL :  cpu time   13.9432: real time   13.9457
    CORREC:  cpu time    0.0005: real time    0.0005
    CHARGE:  cpu time    0.3467: real time    0.3482
    --------------------------------------------
      LOOP:  cpu time   14.2984: real time   14.3033

 eigenvalue-minimisations  :  3896
 total energy-change (2. order) :-0.1592531E+01  (-0.1569959E+01)
 number of electron     280.0000013 magnetization       0.0000001
 augmentation part       20.1717722 magnetization       0.0301256

 Free energy of the ion-electron system (eV)
  ---------------------------------------------------
  alpha Z        PSCENC =        89.52339426
  Ewald energy   TEWEN  =     31610.61031617
  -Hartree energ DENC   =    -43232.08676987
  -exchange      EXHF   =         0.00000000
  -V(xc)+E(xc)   XCENC  =      1060.72906507
  PAW double counting   =     11453.83848114   -11942.90478952
  entropy T*S    EENTRO =        -0.00000000
  eigenvalues    EBANDS =     -4733.57254666
  atomic energy  EATOM  =     15171.73615219
  ---------------------------------------------------
  free energy    TOTEN  =      -522.12669723 eV

  energy without entropy =     -522.12669723  energy(sigma->0) =     -522.12669723


--------------------------------------------------------------------------------------------------------




--------------------------------------- Iteration      1(   6)  ---------------------------------------


    POTLOK:  cpu time    0.1982: real time    0.1982
    SETDIJ:  cpu time    0.0104: real time    0.0104
    TRIAL :  cpu time    5.2323: real time    5.2329
    CORREC:  cpu time    1.9140: real time    1.9141
    CHARGE:  cpu time    0.3441: real time    0.3441
    --------------------------------------------
      LOOP:  cpu time    7.7048: real time    7.7120

 eigenvalue-minimisations  :     0
 total energy-change (2. order) : 0.1129625E+03  (-0.2976148E+02)
 number of electron     280.0000007 magnetization       0.0000032
 augmentation part       19.1521725 magnetization       0.0232248

 Free energy of the ion-electron system (eV)
  ---------------------------------------------------
  alpha Z        PSCENC =        89.52339426
  Ewald energy   TEWEN  =     31610.61031617
  -Hartree energ DENC   =    -44510.40494721
  -exchange      EXHF   =         0.00000000
  -V(xc)+E(xc)   XCENC  =      1129.07881042
  PAW double counting   =     28902.11600501   -29401.03127981
  entropy T*S    EENTRO =        -0.00004508
  eigenvalues    EBANDS =     -3400.79260938
  atomic energy  EATOM  =     15171.73615219
  ---------------------------------------------------
  free energy    TOTEN  =      -409.16415836 eV

  energy without entropy =     -409.16411328  energy(sigma->0) =     -409.16413582


--------------------------------------------------------------------------------------------------------




--------------------------------------- Iteration      1(   7)  ---------------------------------------


    POTLOK:  cpu time    0.2035: real time    0.2035
    SETDIJ:  cpu time    0.0101: real time    0.0101
    TRIAL :  cpu time    5.2425: real time    5.2447
    CORREC:  cpu time    1.7953: real time    1.7954
    CHARGE:  cpu time    0.3399: real time    0.3399
    --------------------------------------------
      LOOP:  cpu time    7.6057: real time    7.6086

 eigenvalue-minimisations  :     0
 total energy-change (2. order) :-0.1231622E+02  (-0.1723968E+02)
 number of electron     280.0000008 magnetization      -0.0000028
 augmentation part       18.8342776 magnetization       0.0167741

 Free energy of the ion-electron system (eV)
  ---------------------------------------------------
  alpha Z        PSCENC =        89.52339426
  Ewald energy   TEWEN  =     31610.61031617
  -Hartree energ DENC   =    -44095.17422252
  -exchange      EXHF   =         0.00000000
  -V(xc)+E(xc)   XCENC  =      1108.72026180
  PAW double counting   =     29352.39316157   -29854.48751699
  entropy T*S    EENTRO =        -0.00007388
  eigenvalues    EBANDS =     -3804.80187799
  atomic energy  EATOM  =     15171.73615219
  ---------------------------------------------------
  free energy    TOTEN  =      -421.48037659 eV

  energy without entropy =     -421.48030271  energy(sigma->0) =     -421.48033965


--------------------------------------------------------------------------------------------------------




--------------------------------------- Iteration      1(   8)  ---------------------------------------


    POTLOK:  cpu time    0.2061: real time    0.2062
    SETDIJ:  cpu time    0.0104: real time    0.0104
    TRIAL :  cpu time    5.2106: real time    5.2122
    CORREC:  cpu time    1.8356: real time    1.8357
    CHARGE:  cpu time    0.3362: real time    0.3363
    --------------------------------------------
      LOOP:  cpu time    7.6033: real time    7.6105

 eigenvalue-minimisations  :     0
 total energy-change (2. order) :-0.2999328E+02  (-0.1671490E+01)
 number of electron     280.0000003 magnetization       0.0020308
 augmentation part       18.5864464 magnetization       0.0152147

 Free energy of the ion-electron system (eV)
  ---------------------------------------------------
  alpha Z        PSCENC =        89.52339426
  Ewald energy   TEWEN  =     31610.61031617
  -Hartree energ DENC   =    -43884.30009648
  -exchange      EXHF   =         0.00000000
  -V(xc)+E(xc)   XCENC  =      1094.81031568
  PAW double counting   =     29714.69488805   -30217.75712883
  entropy T*S    EENTRO =        -0.11753193
  eigenvalues    EBANDS =     -4030.79142000
  atomic energy  EATOM  =     15171.73615219
  ---------------------------------------------------
  free energy    TOTEN  =      -451.47365284 eV

  energy without entropy =     -451.35612091  energy(sigma->0) =     -451.41488688


--------------------------------------------------------------------------------------------------------




--------------------------------------- Iteration      1(   9)  ---------------------------------------


    POTLOK:  cpu time    0.2049: real time    0.2049
    SETDIJ:  cpu time    0.0100: real time    0.0100
    TRIAL :  cpu time    5.2394: real time    5.2397
    CORREC:  cpu time    1.7864: real time    1.7878
    CHARGE:  cpu time    0.3426: real time    0.3426
    --------------------------------------------
      LOOP:  cpu time    7.5932: real time    7.5954

 eigenvalue-minimisations  :     0
 total energy-change (2. order) :-0.1840989E+02  (-0.1910078E+02)
 number of electron     280.0000004 magnetization       0.0003130
 augmentation part       18.3111552 magnetization       0.0152139

 Free energy of the ion-electron system (eV)
  ---------------------------------------------------
  alpha Z        PSCENC =        89.52339426
  Ewald energy   TEWEN  =     31610.61031617
  -Hartree energ DENC   =    -43792.71798594
  -exchange      EXHF   =         0.00000000
  -V(xc)+E(xc)   XCENC  =      1091.44120331
  PAW double counting   =     29793.62746344   -30295.70224609
  entropy T*S    EENTRO =        -0.00113969
  eigenvalues    EBANDS =     -4138.28431243
  atomic energy  EATOM  =     15171.73615219
  ---------------------------------------------------
  free energy    TOTEN  =      -469.88354702 eV

  energy without entropy =     -469.88240733  energy(sigma->0) =     -469.88297718


--------------------------------------------------------------------------------------------------------




--------------------------------------- Iteration      1(  10)  ---------------------------------------


    POTLOK:  cpu time    0.2045: real time    0.2045
    SETDIJ:  cpu time    0.0103: real time    0.0103
    TRIAL :  cpu time    5.2314: real time    5.2318
    CORREC:  cpu time    1.8455: real time    1.8457
    CHARGE:  cpu time    0.3343: real time    0.3343
    --------------------------------------------
      LOOP:  cpu time    7.6363: real time    7.6373

 eigenvalue-minimisations  :     0
 total energy-change (2. order) : 0.3030926E+02  (-0.7247022E+01)
 number of electron     280.0000008 magnetization       0.0000000
 augmentation part       18.6579256 magnetization       0.0149188

 Free energy of the ion-electron system (eV)
  ---------------------------------------------------
  alpha Z        PSCENC =        89.52339426
  Ewald energy   TEWEN  =     31610.61031617
  -Hartree energ DENC   =    -43842.70084470
  -exchange      EXHF   =         0.00000000
  -V(xc)+E(xc)   XCENC  =      1092.40037204
  PAW double counting   =     29848.17699905   -30348.64218964
  entropy T*S    EENTRO =        -0.00000000
  eigenvalues    EBANDS =     -4060.67734991
  atomic energy  EATOM  =     15171.73615219
  ---------------------------------------------------
  free energy    TOTEN  =      -439.57429024 eV

  energy without entropy =     -439.57429024  energy(sigma->0) =     -439.57429024


--------------------------------------------------------------------------------------------------------




--------------------------------------- Iteration      1(  11)  ---------------------------------------


    POTLOK:  cpu time    0.2099: real time    0.2100
    SETDIJ:  cpu time    0.0102: real time    0.0102
    TRIAL :  cpu time    5.2570: real time    5.2588
    CORREC:  cpu time    1.8170: real time    1.8171
    CHARGE:  cpu time    0.3401: real time    0.3402
    --------------------------------------------
      LOOP:  cpu time    7.6401: real time    7.6514

 eigenvalue-minimisations  :     0
 total energy-change (2. order) :-0.1115712E+02  (-0.4056949E+01)
 number of electron     280.0000006 magnetization      -0.0200149
 augmentation part       18.4214810 magnetization       0.0113977

 Free energy of the ion-electron system (eV)
  ---------------------------------------------------
  alpha Z        PSCENC =        89.52339426
  Ewald energy   TEWEN  =     31610.61031617
  -Hartree energ DENC   =    -43981.62241576
  -exchange      EXHF   =         0.00000000
  -V(xc)+E(xc)   XCENC  =      1096.50980073
  PAW double counting   =     29829.19986786   -30328.83393954
  entropy T*S    EENTRO =        -0.19742918
  eigenvalues    EBANDS =     -3937.85458979
  atomic energy  EATOM  =     15171.73615219
  ---------------------------------------------------
  free energy    TOTEN  =      -450.73141388 eV

  energy without entropy =     -450.53398470  energy(sigma->0) =     -450.63269929


--------------------------------------------------------------------------------------------------------




--------------------------------------- Iteration      1(  12)  ---------------------------------------


    POTLOK:  cpu time    0.2080: real time    0.2080
    SETDIJ:  cpu time    0.0107: real time    0.0107
    TRIAL :  cpu time    5.2155: real time    5.2175
    CORREC:  cpu time    1.7928: real time    1.7929
    CHARGE:  cpu time    0.3401: real time    0.3401
    --------------------------------------------
      LOOP:  cpu time    7.5777: real time    7.5874

 eigenvalue-minimisations  :     0
 total energy-change (2. order) :-0.2755221E+02  (-0.2412690E+02)
 number of electron     280.0000007 magnetization       0.0048530
 augmentation part       18.6094756 magnetization       0.0147536

 Free energy of the ion-electron system (eV)
  ---------------------------------------------------
  alpha Z        PSCENC =        89.52339426
  Ewald energy   TEWEN  =     31610.61031617
  -Hartree energ DENC   =    -43913.75253800
  -exchange      EXHF   =         0.00000000
  -V(xc)+E(xc)   XCENC  =      1094.20570233
  PAW double counting   =     29799.57438200   -30298.97418746
  entropy T*S    EENTRO =        -0.02296618
  eigenvalues    EBANDS =     -4031.00942089
  atomic energy  EATOM  =     15171.73615219
  ---------------------------------------------------
  free energy    TOTEN  =      -478.28362858 eV

  energy without entropy =     -478.26066240  energy(sigma->0) =     -478.27214549


--------------------------------------------------------------------------------------------------------




--------------------------------------- Iteration      1(  13)  ---------------------------------------


    POTLOK:  cpu time    0.2056: real time    0.2056
    SETDIJ:  cpu time    0.0100: real time    0.0100
    TRIAL :  cpu time    5.1090: real time    5.1094
    CORREC:  cpu time    1.7317: real time    1.7331
    CHARGE:  cpu time    0.3392: real time    0.3392
    --------------------------------------------
      LOOP:  cpu time    7.4000: real time    7.4077

 eigenvalue-minimisations  :     0
 total energy-change (2. order) : 0.2018784E+02  (-0.1775262E+02)
 number of electron     280.0000004 magnetization       0.0030744
 augmentation part       18.2434651 magnetization       0.0139112

 Free energy of the ion-electron system (eV)
  ---------------------------------------------------
  alpha Z        PSCENC =        89.52339426
  Ewald energy   TEWEN  =     31610.61031617
  -Hartree energ DENC   =    -43980.38674589
  -exchange      EXHF   =         0.00000000
  -V(xc)+E(xc)   XCENC  =      1096.33382012
  PAW double counting   =     29812.57691575   -30312.20056077
  entropy T*S    EENTRO =        -0.00403833
  eigenvalues    EBANDS =     -3946.26611747
  atomic energy  EATOM  =     15171.73615219
  ---------------------------------------------------
  free energy    TOTEN  =      -458.09579182 eV

  energy without entropy =     -458.09175349  energy(sigma->0) =     -458.09377265


--------------------------------------------------------------------------------------------------------




--------------------------------------- Iteration      1(  14)  ---------------------------------------


    POTLOK:  cpu time    0.1939: real time    0.1940
    SETDIJ:  cpu time    0.0101: real time    0.0101
    TRIAL :  cpu time    5.1631: real time    5.1635
    CORREC:  cpu time    1.7744: real time    1.7745
    CHARGE:  cpu time    0.3429: real time    0.3429
    --------------------------------------------
      LOOP:  cpu time    7.4881: real time    7.4981

 eigenvalue-minimisations  :     0
 total energy-change (2. order) : 0.1334451E+02  (-0.5150863E+01)
 number of electron     280.0000007 magnetization      -0.0000005
 augmentation part       18.5893481 magnetization       0.0127830

 Free energy of the ion-electron system (eV)
  ---------------------------------------------------
  alpha Z        PSCENC =        89.52339426
  Ewald energy   TEWEN  =     31610.61031617
  -Hartree energ DENC   =    -43924.63059618
  -exchange      EXHF   =         0.00000000
  -V(xc)+E(xc)   XCENC  =      1094.84612096
  PAW double counting   =     29839.14980176   -30338.46914090
  entropy T*S    EENTRO =        -0.00000152
  eigenvalues    EBANDS =     -3987.51329510
  atomic energy  EATOM  =     15171.73615219
  ---------------------------------------------------
  free energy    TOTEN  =      -444.75128519 eV

  energy without entropy =     -444.75128366  energy(sigma->0) =     -444.75128442


--------------------------------------------------------------------------------------------------------




--------------------------------------- Iteration      1(  15)  ---------------------------------------


    POTLOK:  cpu time    0.1986: real time    0.1986
    SETDIJ:  cpu time    0.0102: real time    0.0102
    TRIAL :  cpu time    5.2195: real time    5.2213
    CORREC:  cpu time    1.8056: real time    1.8058
    CHARGE:  cpu time    0.3395: real time    0.3396
    --------------------------------------------
      LOOP:  cpu time    7.5947: real time    7.5975

 eigenvalue-minimisations  :     0
 total energy-change (2. order) :-0.8606897E+01  (-0.2684043E+01)
 number of electron     280.0000003 magnetization      -0.4409256
 augmentation part       18.3747598 magnetization      -0.0379984

 Free energy of the ion-electron system (eV)
  ---------------------------------------------------
  alpha Z        PSCENC =        89.52339426
  Ewald energy   TEWEN  =     31610.61031617
  -Hartree energ DENC   =    -44012.07897838
  -exchange      EXHF   =         0.00000000
  -V(xc)+E(xc)   XCENC  =      1097.09161562
  PAW double counting   =     29812.84170087   -30312.53773877
  entropy T*S    EENTRO =        -0.14582103
  eigenvalues    EBANDS =     -3910.54464242
  atomic energy  EATOM  =     15171.73615219
  ---------------------------------------------------
  free energy    TOTEN  =      -453.35818199 eV

  energy without entropy =     -453.21236096  energy(sigma->0) =     -453.28527148


--------------------------------------------------------------------------------------------------------




--------------------------------------- Iteration      1(  16)  ---------------------------------------


    POTLOK:  cpu time    0.1986: real time    0.1986
    SETDIJ:  cpu time    0.0099: real time    0.0099
    TRIAL :  cpu time    5.1531: real time    5.1553
    CORREC:  cpu time    1.7884: real time    1.7885
    CHARGE:  cpu time    0.3423: real time    0.3423
    --------------------------------------------
      LOOP:  cpu time    7.4955: real time    7.5046

 eigenvalue-minimisations  :     0
 total energy-change (2. order) :-0.2355934E+02  (-0.1413840E+02)
 number of electron     280.0000007 magnetization      -0.6382409
 augmentation part       18.4125913 magnetization      -0.0609548

 Free energy of the ion-electron system (eV)
  ---------------------------------------------------
  alpha Z        PSCENC =        89.52339426
  Ewald energy   TEWEN  =     31610.61031617
  -Hartree energ DENC   =    -43901.98560607
  -exchange      EXHF   =         0.00000000
  -V(xc)+E(xc)   XCENC  =      1095.03450546
  PAW double counting   =     29788.00712999   -30287.41964041
  entropy T*S    EENTRO =        -0.11723155
  eigenvalues    EBANDS =     -4042.27794820
  atomic energy  EATOM  =     15171.73615219
  ---------------------------------------------------
  free energy    TOTEN  =      -476.91751764 eV

  energy without entropy =     -476.80028609  energy(sigma->0) =     -476.85890186


--------------------------------------------------------------------------------------------------------




--------------------------------------- Iteration      1(  17)  ---------------------------------------


    POTLOK:  cpu time    0.1892: real time    0.1892
    SETDIJ:  cpu time    0.0102: real time    0.0102
    TRIAL :  cpu time    4.9664: real time    4.9668
    CORREC:  cpu time    1.6974: real time    1.6975
    CHARGE:  cpu time    0.3462: real time    0.3462
    --------------------------------------------
      LOOP:  cpu time    7.2191: real time    7.2201

 eigenvalue-minimisations  :     0
 total energy-change (2. order) : 0.3584565E+01  (-0.6644914E+01)
 number of electron     280.0000004 magnetization      -1.0685900
 augmentation part       18.3770621 magnetization      -0.1084245

 Free energy of the ion-electron system (eV)
  ---------------------------------------------------
  alpha Z        PSCENC =        89.52339426
  Ewald energy   TEWEN  =     31610.61031617
  -Hartree energ DENC   =    -43995.89151689
  -exchange      EXHF   =         0.00000000
  -V(xc)+E(xc)   XCENC  =      1095.42388694
  PAW double counting   =     29792.95104661   -30292.50944351
  entropy T*S    EENTRO =        -0.08905420
  eigenvalues    EBANDS =     -3945.05955701
  atomic energy  EATOM  =     15171.73615219
  ---------------------------------------------------
  free energy    TOTEN  =      -473.33295279 eV

  energy without entropy =     -473.24389859  energy(sigma->0) =     -473.28842569


--------------------------------------------------------------------------------------------------------




--------------------------------------- Iteration      1(  18)  ---------------------------------------


    POTLOK:  cpu time    0.1934: real time    0.1935
    SETDIJ:  cpu time    0.0105: real time    0.0105
    TRIAL :  cpu time    4.8178: real time    4.8182
    CORREC:  cpu time    1.7162: real time    1.7163
    CHARGE:  cpu time    0.3468: real time    0.3468
    --------------------------------------------
      LOOP:  cpu time    7.0940: real time    7.0951

 eigenvalue-minimisations  :     0
 total energy-change (2. order) :-0.2119247E+01  (-0.4927633E+01)
 number of electron     280.0000008 magnetization      -1.3072374
 augmentation part       18.4061681 magnetization      -0.1371219

 Free energy of the ion-electron system (eV)
  ---------------------------------------------------
  alpha Z        PSCENC =        89.52339426
  Ewald energy   TEWEN  =     31610.61031617
  -Hartree energ DENC   =    -43905.65853396
  -exchange      EXHF   =         0.00000000
  -V(xc)+E(xc)   XCENC  =      1095.26030281
  PAW double counting   =     29786.28203000   -30285.69106506
  entropy T*S    EENTRO =        -0.09537605
  eigenvalues    EBANDS =     -4037.42574243
  atomic energy  EATOM  =     15171.73615219
  ---------------------------------------------------
  free energy    TOTEN  =      -475.45220023 eV

  energy without entropy =     -475.35682418  energy(sigma->0) =     -475.40451221


--------------------------------------------------------------------------------------------------------




--------------------------------------- Iteration      1(  19)  ---------------------------------------


    POTLOK:  cpu time    0.1941: real time    0.1941
    SETDIJ:  cpu time    0.0104: real time    0.0104
    TRIAL :  cpu time    4.9814: real time    4.9818
    CORREC:  cpu time    1.7043: real time    1.7044
    CHARGE:  cpu time    0.3382: real time    0.3382
    --------------------------------------------
      LOOP:  cpu time    7.2325: real time    7.2392

 eigenvalue-minimisations  :     0
 total energy-change (2. order) : 0.7949155E+00  (-0.5150566E+01)
 number of electron     280.0000004 magnetization      -1.6125696
 augmentation part       18.3609165 magnetization      -0.1691940

 Free energy of the ion-electron system (eV)
  ---------------------------------------------------
  alpha Z        PSCENC =        89.52339426
  Ewald energy   TEWEN  =     31610.61031617
  -Hartree energ DENC   =    -43999.95868393
  -exchange      EXHF   =         0.00000000
  -V(xc)+E(xc)   XCENC  =      1095.44399896
  PAW double counting   =     29788.34400163   -30287.92743869
  entropy T*S    EENTRO =        -0.04329422
  eigenvalues    EBANDS =     -3942.33364927
  atomic energy  EATOM  =     15171.73615219
  ---------------------------------------------------
  free energy    TOTEN  =      -474.65728474 eV

  energy without entropy =     -474.61399052  energy(sigma->0) =     -474.63563763


--------------------------------------------------------------------------------------------------------




--------------------------------------- Iteration      1(  20)  ---------------------------------------


    POTLOK:  cpu time    0.1938: real time    0.1938
    SETDIJ:  cpu time    0.0101: real time    0.0101
    TRIAL :  cpu time    5.0891: real time    5.0895
    CORREC:  cpu time    1.7434: real time    1.7435
    CHARGE:  cpu time    0.3399: real time    0.3399
    --------------------------------------------
      LOOP:  cpu time    7.3791: real time    7.3872

 eigenvalue-minimisations  :     0
 total energy-change (2. order) :-0.5627792E+00  (-0.6695575E+00)
 number of electron     280.0000005 magnetization      -1.6432119
 augmentation part       18.3868898 magnetization      -0.1738383

 Free energy of the ion-electron system (eV)
  ---------------------------------------------------
  alpha Z        PSCENC =        89.52339426
  Ewald energy   TEWEN  =     31610.61031617
  -Hartree energ DENC   =    -43903.11769416
  -exchange      EXHF   =         0.00000000
  -V(xc)+E(xc)   XCENC  =      1095.29027035
  PAW double counting   =     29784.08727909   -30283.47622858
  entropy T*S    EENTRO =        -0.10840780
  eigenvalues    EBANDS =     -4039.83025902
  atomic energy  EATOM  =     15171.73615219
  ---------------------------------------------------
  free energy    TOTEN  =      -475.22006390 eV

  energy without entropy =     -475.11165610  energy(sigma->0) =     -475.16586000


--------------------------------------------------------------------------------------------------------




--------------------------------------- Iteration      1(  21)  ---------------------------------------


    POTLOK:  cpu time    0.2003: real time    0.2003
    SETDIJ:  cpu time    0.0101: real time    0.0101
    TRIAL :  cpu time    5.2349: real time    5.2353
    CORREC:  cpu time    1.7887: real time    1.7888
    CHARGE:  cpu time    0.3711: real time    0.3726
    --------------------------------------------
      LOOP:  cpu time    7.6077: real time    7.6202

 eigenvalue-minimisations  :     0
 total energy-change (2. order) :-0.6366719E+01  (-0.5513614E+01)
 number of electron     280.0000008 magnetization      -1.8437592
 augmentation part       18.3696445 magnetization      -0.1959770

 Free energy of the ion-electron system (eV)
  ---------------------------------------------------
  alpha Z        PSCENC =        89.52339426
  Ewald energy   TEWEN  =     31610.61031617
  -Hartree energ DENC   =    -43926.98120619
  -exchange      EXHF   =         0.00000000
  -V(xc)+E(xc)   XCENC  =      1095.17034902
  PAW double counting   =     29775.31765721   -30274.80266225
  entropy T*S    EENTRO =        -0.06227231
  eigenvalues    EBANDS =     -4022.05237546
  atomic energy  EATOM  =     15171.73615219
  ---------------------------------------------------
  free energy    TOTEN  =      -481.58678285 eV

  energy without entropy =     -481.52451054  energy(sigma->0) =     -481.55564670


--------------------------------------------------------------------------------------------------------




--------------------------------------- Iteration      1(  22)  ---------------------------------------


    POTLOK:  cpu time    0.2035: real time    0.2035
    SETDIJ:  cpu time    0.0102: real time    0.0102
    TRIAL :  cpu time    5.1489: real time    5.1493
    CORREC:  cpu time    1.7938: real time    1.7939
    CHARGE:  cpu time    0.3416: real time    0.3417
    --------------------------------------------
      LOOP:  cpu time    7.5030: real time    7.5090

 eigenvalue-minimisations  :     0
 total energy-change (2. order) : 0.6174176E+01  (-0.1580215E+02)
 number of electron     280.0000003 magnetization      -1.9459105
 augmentation part       18.3531515 magnetization      -0.2085903

 Free energy of the ion-electron system (eV)
  ---------------------------------------------------
  alpha Z        PSCENC =        89.52339426
  Ewald energy   TEWEN  =     31610.61031617
  -Hartree energ DENC   =    -43992.16536399
  -exchange      EXHF   =         0.00000000
  -V(xc)+E(xc)   XCENC  =      1095.28995708
  PAW double counting   =     29785.04689065   -30284.61101043
  entropy T*S    EENTRO =        -0.00974024
  eigenvalues    EBANDS =     -3950.78067012
  atomic energy  EATOM  =     15171.73615219
  ---------------------------------------------------
  free energy    TOTEN  =      -475.41260651 eV

  energy without entropy =     -475.40286627  energy(sigma->0) =     -475.40773639


--------------------------------------------------------------------------------------------------------




--------------------------------------- Iteration      1(  23)  ---------------------------------------


    POTLOK:  cpu time    0.2048: real time    0.2048
    SETDIJ:  cpu time    0.0105: real time    0.0105
    TRIAL :  cpu time    5.2154: real time    5.2173
    CORREC:  cpu time    1.7737: real time    1.7738
    CHARGE:  cpu time    0.3391: real time    0.3391
    --------------------------------------------
      LOOP:  cpu time    7.5529: real time    7.5554

 eigenvalue-minimisations  :     0
 total energy-change (2. order) :-0.9388291E-01  (-0.6948650E+00)
 number of electron     280.0000005 magnetization      -1.7029552
 augmentation part       18.3784144 magnetization      -0.1830549

 Free energy of the ion-electron system (eV)
  ---------------------------------------------------
  alpha Z        PSCENC =        89.52339426
  Ewald energy   TEWEN  =     31610.61031617
  -Hartree energ DENC   =    -43900.95149478
  -exchange      EXHF   =         0.00000000
  -V(xc)+E(xc)   XCENC  =      1095.33856824
  PAW double counting   =     29780.71678616   -30280.09671531
  entropy T*S    EENTRO =        -0.07936843
  eigenvalues    EBANDS =     -4042.37375610
  atomic energy  EATOM  =     15171.73615219
  ---------------------------------------------------
  free energy    TOTEN  =      -475.50648942 eV

  energy without entropy =     -475.42712099  energy(sigma->0) =     -475.46680520


--------------------------------------------------------------------------------------------------------




--------------------------------------- Iteration      1(  24)  ---------------------------------------


    POTLOK:  cpu time    0.1952: real time    0.1952
    SETDIJ:  cpu time    0.0102: real time    0.0102
[...]
    156      -1.0741      0.00000
    157      -0.9566      0.00000
    158      -0.5497      0.00000
    159      -0.1625      0.00000
    160      -0.1403      0.00000
    161       0.0081      0.00000
    162       0.3334      0.00000
    163       0.4191      0.00000
    164       0.5834      0.00000
    165       0.7483      0.00000
    166       0.8494      0.00000
    167       1.0618      0.00000
    168       1.1198      0.00000
    169       1.1756      0.00000
    170       1.2838      0.00000
    171       1.4022      0.00000
    172       1.5309      0.00000


--------------------------------------------------------------------------------------------------------


 soft charge-density along one line, spin component           1
         0         1         2         3         4         5         6         7         8         9
 total charge-density along one line

 soft charge-density along one line, spin component           2
         0         1         2         3         4         5         6         7         8         9
 total charge-density along one line

 pseudopotential strength for first ion, spin component:           1
 10.358  13.777   0.000  -0.000   0.000  -0.001   0.000  -0.001
 13.777  18.325   0.001  -0.000   0.001  -0.002   0.001  -0.002
  0.000   0.001  -4.470   0.000   0.000   8.742   0.000  -0.001
 -0.000  -0.000   0.000  -4.468  -0.001   0.000   8.743   0.001
  0.000   0.001   0.000  -0.001  -4.472  -0.001   0.001   8.747
 -0.001  -0.002   8.742   0.000  -0.001 -19.241  -0.001   0.001
  0.000   0.001   0.000   8.743   0.001  -0.001 -19.251   0.000
 -0.001  -0.002  -0.001   0.001   8.747   0.001   0.000 -19.251
 pseudopotential strength for first ion, spin component:           2
 10.333  13.744  -0.001  -0.000   0.000   0.003   0.000  -0.001
 13.744  18.280  -0.001  -0.000   0.000   0.004   0.000  -0.001
 -0.001  -0.001  -4.464   0.000   0.000   8.738  -0.000  -0.000
 -0.000  -0.000   0.000  -4.453  -0.004  -0.000   8.721   0.006
  0.000   0.000   0.000  -0.004  -4.469  -0.000   0.006   8.747
  0.003   0.004   8.738  -0.000  -0.000 -19.245   0.000   0.001
  0.000   0.000  -0.000   8.721   0.006   0.000 -19.225  -0.008
 -0.001  -0.001  -0.000   0.006   8.747   0.001  -0.008 -19.263
 total augmentation occupancy for first ion, spin component:           1
  8.826  -4.171   0.018   0.031   0.062   0.012   0.005   0.012
 -4.171   2.119  -0.007  -0.014  -0.039  -0.010  -0.003  -0.007
  0.018  -0.007   1.821  -0.045   0.003   0.173  -0.006  -0.000
  0.031  -0.014  -0.045   1.183   0.147  -0.006   0.078   0.025
  0.062  -0.039   0.003   0.147   1.795  -0.000   0.025   0.184
  0.012  -0.010   0.173  -0.006  -0.000   0.020  -0.001   0.000
  0.005  -0.003  -0.006   0.078   0.025  -0.001   0.006   0.004
  0.012  -0.007  -0.000   0.025   0.184   0.000   0.004   0.022
 total augmentation occupancy for first ion, spin component:           2
 -0.053   0.047  -0.010  -0.000  -0.000  -0.004  -0.000  -0.001
  0.047  -0.030   0.019  -0.000   0.002   0.004   0.000   0.000
 -0.010   0.019   0.032   0.002  -0.001  -0.001  -0.000  -0.000
 -0.000  -0.000   0.002   0.083  -0.015  -0.000  -0.001  -0.000
 -0.000   0.002  -0.001  -0.015   0.014  -0.000  -0.000  -0.000
 -0.004   0.004  -0.001  -0.000  -0.000  -0.001   0.000  -0.000
 -0.000   0.000  -0.000  -0.001  -0.000   0.000  -0.000   0.000
 -0.001   0.000  -0.000  -0.000  -0.000  -0.000   0.000  -0.000


------------------------ aborting loop because EDIFF is reached ----------------------------------------


    FORLOC:  cpu time    0.0193: real time    0.0192
    FORNL :  cpu time    1.7171: real time    1.7172
    STRESS:  cpu time    5.0881: real time    5.0902
    FORCOR:  cpu time    0.2061: real time    0.2061
    OFIELD:  cpu time    0.0002: real time    0.0002

 ---------------------------------------------------------------------------------------------

         DFTD3 V3.0 Rev 1        
 Edisp (eV)   -3.51947

 E6    (eV) :    -2.4517
 E8    (eV) :    -1.0678
 % E8        : 30.34
    FORVDW:  cpu time    0.0674: real time    0.0679

  FORCE on cell =-STRESS in cart. coord.  units (eV):
  Direction    XX          YY          ZZ          XY          YZ          ZX
  --------------------------------------------------------------------------------------
  Alpha Z    89.52339    89.52339    89.52339
  Ewald   34730.65947 34857.51917-37985.23180  1904.66579  1279.20793   253.64465
  Hartree 36511.10920 36242.50831-28818.47419  1657.36455   815.86572    32.91283
  E(xc)   -1167.07621 -1165.00263 -1192.57765     0.68350     1.99046     1.29570
  Local  -74625.08709-74408.80811 63011.73049 -3549.86016 -2062.23489  -266.77771
  n-local  -481.25292  -482.32095  -459.50829     0.74971     1.74635    -3.71671
  augment   152.31352   152.02351   153.35408    -0.04625     0.26787     0.09170
  Kinetic  4781.16924  4702.92830  5194.46815   -18.49698   -36.60597   -17.44177
  Fock        0.00000     0.00000     0.00000     0.00000     0.00000     0.00000
  vdW        -1.11368    -1.28268    -0.24148    -0.10769     0.06121     0.05617
  -------------------------------------------------------------------------------------
  Total      -9.75506   -12.91167    -6.95730    -5.04754     0.29869     0.06486
  in kB      -3.75501    -4.97008    -2.67807    -1.94294     0.11498     0.02496
  external pressure =       -3.80 kB  Pullay stress =        0.00 kB


 VOLUME and BASIS-vectors are now :
 -----------------------------------------------------------------------------
  energy-cutoff  :      440.00
  volume of cell :     4162.27
      direct lattice vectors                 reciprocal lattice vectors
    16.612109082 -0.228888569  0.000000000     0.060691974  0.035920095 -0.000000000
    -8.306054541 14.034229193  0.000000000     0.000989844  0.071840191 -0.000000000
     0.000000000  0.000000000 18.000000000    -0.000000000 -0.000000000  0.055555556

  length of vectors
    16.613685868 16.307977528 18.000000000     0.070524953  0.071847009  0.055555556


 FORCES acting on ions:
    Electron-Ion                     Ewald-Force                    Non-Local-Force
 -----------------------------------------------------------------------------------------------
   -.542E+02 -.114E+03 0.550E+02   0.538E+02 0.115E+03 -.549E+02   0.333E+00 -.261E+00 -.139E+00
   0.304E+02 0.132E+03 0.537E+02   -.338E+02 -.134E+03 -.544E+02   0.345E+01 0.177E+01 0.761E+00
   -.411E+02 0.114E+03 0.704E+02   0.428E+02 -.116E+03 -.711E+02   -.169E+01 0.192E+01 0.717E+00
   0.152E+03 -.110E+03 0.519E+02   -.154E+03 0.113E+03 -.523E+02   0.139E+01 -.316E+01 0.311E+00
   -.328E+02 0.164E+03 0.973E+02   0.317E+02 -.167E+03 -.985E+02   0.112E+01 0.304E+01 0.114E+01
   -.125E+03 -.817E+02 -.132E+01   0.129E+03 0.824E+02 0.150E+01   -.314E+01 -.736E+00 -.194E+00
   0.571E+02 -.568E+02 -.360E+02   -.590E+02 0.566E+02 0.362E+02   0.201E+01 0.229E+00 -.161E+00
   0.300E+03 -.138E+02 0.105E+03   -.307E+03 0.117E+02 -.105E+03   0.706E+01 0.212E+01 0.168E-01
   -.573E+02 -.368E+01 -.396E+02   0.564E+02 0.310E+01 0.382E+02   0.856E+00 0.638E+00 0.137E+01
   -.362E+02 0.532E+02 -.656E+02   0.363E+02 -.507E+02 0.669E+02   -.115E+00 -.260E+01 -.131E+01
   0.738E+02 -.184E+02 0.980E+02   -.741E+02 0.157E+02 -.981E+02   0.382E+00 0.277E+01 0.772E-01
   0.504E+02 -.274E+02 -.703E+01   -.520E+02 0.305E+02 0.782E+01   0.167E+01 -.312E+01 -.790E+00
   0.402E+02 -.804E+02 -.108E+02   -.394E+02 0.782E+02 0.955E+01   -.892E+00 0.217E+01 0.121E+01
   0.723E+02 0.436E+02 0.346E+02   -.707E+02 -.421E+02 -.332E+02   -.152E+01 -.147E+01 -.137E+01
   -.201E+03 0.256E+03 0.166E+03   0.206E+03 -.262E+03 -.168E+03   -.481E+01 0.611E+01 0.188E+01
   0.256E+01 -.707E+02 0.942E+02   -.469E+01 0.728E+02 -.951E+02   0.219E+01 -.213E+01 0.866E+00
   -.106E+02 0.102E+03 0.798E+02   0.105E+02 -.105E+03 -.808E+02   0.160E+00 0.293E+01 0.101E+01
   -.317E+02 -.858E+02 -.970E+02   0.340E+02 0.876E+02 0.981E+02   -.237E+01 -.185E+01 -.119E+01
   -.905E+02 0.347E+02 -.661E+02   0.900E+02 -.365E+02 0.651E+02   0.423E+00 0.169E+01 0.103E+01
   -.272E+02 0.341E+02 -.618E+01   0.314E+02 -.324E+02 0.587E+01   -.424E+01 -.169E+01 0.316E+00
   -.297E+02 -.215E+02 -.481E+02   0.275E+02 0.243E+02 0.477E+02   0.214E+01 -.285E+01 0.342E+00
   0.144E+03 0.795E+01 0.187E+02   -.148E+03 -.763E+01 -.184E+02   0.350E+01 -.311E+00 -.191E+00
   -.316E+02 0.850E+02 -.698E+02   0.322E+02 -.880E+02 0.706E+02   -.620E+00 0.306E+01 -.842E+00
   -.158E+03 0.865E+02 0.634E+02   0.161E+03 -.860E+02 -.632E+02   -.342E+01 -.502E+00 -.143E+00
   -.693E+02 -.170E+03 0.558E+02   0.717E+02 0.202E+03 -.567E+02   -.238E+01 -.320E+02 0.869E+00
   -.293E+03 -.180E+03 -.676E+01   0.324E+03 0.198E+03 0.100E+02   -.309E+02 -.176E+02 -.325E+01
   0.336E+03 -.216E+03 0.102E+03   -.360E+03 0.239E+03 -.106E+03   0.238E+02 -.232E+02 0.367E+01
   -.538E+02 0.355E+03 0.223E+03   0.418E+02 -.387E+03 -.235E+03   0.120E+02 0.320E+02 0.120E+02
   0.330E+02 0.316E+03 0.166E+03   -.481E+02 -.349E+03 -.178E+03   0.151E+02 0.332E+02 0.117E+02
   0.251E+03 -.249E+03 0.775E+02   -.273E+03 0.277E+03 -.834E+02   0.215E+02 -.281E+02 0.583E+01
   -.290E+03 -.152E+03 -.284E+02   0.324E+03 0.163E+03 0.299E+02   -.343E+02 -.119E+02 -.141E+01
   -.658E+02 -.270E+02 0.663E+01   0.657E+02 0.269E+02 -.670E+01   0.475E-01 0.573E-01 0.569E-01
   -.105E+03 -.154E+03 -.606E+02   0.128E+03 0.173E+03 0.633E+02   -.233E+02 -.198E+02 -.269E+01
   0.136E+02 -.247E+03 -.127E+03   -.604E+00 0.277E+03 0.136E+03   -.130E+02 -.295E+02 -.970E+01
   -.195E+02 0.329E+02 -.577E+02   0.577E+01 -.194E+02 0.651E+02   0.137E+02 -.135E+02 -.738E+01
   0.348E+02 0.948E+02 0.218E+03   -.359E+02 -.127E+03 -.232E+03   0.111E+01 0.318E+02 0.137E+02
   0.199E+03 0.741E+02 0.183E+03   -.206E+03 -.104E+03 -.188E+03   0.631E+01 0.296E+02 0.438E+01
   -.339E+01 -.465E+02 -.306E+03   -.126E+02 0.705E+02 0.327E+03   0.161E+02 -.239E+02 -.213E+02
   0.511E+02 -.944E+01 0.308E+02   -.411E+02 0.226E+02 -.279E+02   -.100E+02 -.131E+02 -.283E+01
   0.818E+02 0.388E+02 0.434E+02   -.848E+02 -.407E+02 -.444E+02   0.298E+01 0.197E+01 0.953E+00
   0.160E+03 -.619E+02 0.187E+02   -.179E+03 0.702E+02 -.201E+02   0.184E+02 -.827E+01 0.142E+01
   -.162E+03 -.156E+03 -.189E+03   0.192E+03 0.170E+03 0.202E+03   -.301E+02 -.137E+02 -.130E+02
   0.764E+02 -.121E+03 0.251E+03   -.105E+03 0.136E+03 -.267E+03   0.283E+02 -.152E+02 0.166E+02
   -.688E+02 0.283E+03 0.155E+03   0.830E+02 -.315E+03 -.165E+03   -.142E+02 0.328E+02 0.103E+02
   -.370E+02 0.243E+03 0.150E+03   0.471E+02 -.277E+03 -.160E+03   -.101E+02 0.333E+02 0.917E+01
   0.120E+03 -.202E+03 0.180E+03   -.148E+03 0.224E+03 -.191E+03   0.276E+02 -.211E+02 0.112E+02
   -.142E+03 -.142E+03 -.301E+03   0.171E+03 0.151E+03 0.321E+03   -.290E+02 -.882E+01 -.202E+02
   0.684E+02 -.958E+02 0.264E+02   -.674E+02 0.976E+02 -.266E+02   -.990E+00 -.173E+01 0.218E+00
   -.773E+02 0.759E+01 -.925E+02   0.799E+02 -.455E+01 0.964E+02   -.264E+01 -.302E+01 -.385E+01
   -.305E+03 0.600E+02 0.109E+03   0.339E+03 -.501E+02 -.119E+03   -.341E+02 -.999E+01 0.967E+01
   0.334E+03 0.137E+02 0.117E+02   -.370E+03 -.142E+02 -.108E+02   0.360E+02 0.478E+00 -.867E+00
   -.893E+01 0.239E+03 -.147E+03   0.890E+01 -.273E+03 0.157E+03   0.392E-01 0.347E+02 -.950E+01
   -.625E+02 0.235E+03 -.220E+03   0.584E+02 -.266E+03 0.238E+03   0.418E+01 0.312E+02 -.176E+02
   0.296E+03 -.114E+02 0.257E+02   -.331E+03 0.171E+02 -.275E+02   0.351E+02 -.569E+01 0.191E+01
   -.348E+03 0.128E+03 0.137E+03   0.384E+03 -.123E+03 -.140E+03   -.353E+02 -.473E+01 0.264E+01
   -.913E+02 0.121E+03 0.558E+02   0.926E+02 -.122E+03 -.572E+02   -.129E+01 0.126E+01 0.142E+01
   0.158E+03 -.485E+03 -.474E+03   -.157E+03 0.507E+03 0.490E+03   -.306E+00 -.223E+02 -.154E+02
   0.197E+02 -.219E+02 -.134E+03   -.218E+02 0.308E+02 0.109E+03   0.203E+01 -.884E+01 0.248E+02
   -.192E+02 0.124E+03 -.584E+03   0.239E+02 -.145E+03 0.641E+03   -.469E+01 0.210E+02 -.576E+02
 -----------------------------------------------------------------------------------------------
   0.834E+01 0.451E+02 0.394E+02   0.391E-12 -.483E-12 -.455E-12   -.831E+01 -.452E+02 -.394E+02


 POSITION                                       TOTAL-FORCE (eV/Angst)
 -----------------------------------------------------------------------------------
     -0.17883      1.64442      8.52774        -0.013219     -0.028400     -0.035320
      0.29749      7.13728      8.76520         0.022459      0.001559     -0.011912
     -1.19772      7.07985      8.78291         0.007066     -0.011223     -0.002953
      8.60887      0.96006      8.62070        -0.010926      0.003018     -0.029401
      2.35433      6.34348      8.19788        -0.030548     -0.008765     -0.025968
     -7.41223     13.71369      8.99893        -0.023087      0.011145     -0.008176
     -4.98127      9.73450      9.32383         0.015577      0.048062      0.024535
     -1.09384     13.23219      8.35075         0.003743      0.038561     -0.034180
     -6.50061     11.63197      9.37542        -0.011554      0.029992      0.026543
      2.12822      8.54571      9.23365        -0.009878     -0.030106     -0.014132
      1.05717     12.66741      8.59417        -0.001161      0.002182      0.005038
     -3.08433      8.43558      9.18888         0.016763      0.000959      0.008321
     10.21397      2.59813      8.96831        -0.024655      0.005140     -0.015511
     11.23983      4.91122      8.71200         0.029157      0.037404      0.023537
      4.45116      5.75144      7.71165         0.012493      0.047159      0.017860
      6.80151     13.60780      8.54403         0.021554     -0.049513     -0.018249
     -3.25673      6.06360      8.58015         0.044695     -0.018187      0.015324
     10.84922      0.41286      9.37723        -0.020226      0.011668     -0.009096
      3.89450      9.96097      9.22343        -0.023227      0.008214      0.006932
      5.59095     11.78471      9.07928         0.019156     -0.030049      0.015188
      3.18459     12.27663      9.21637        -0.016330     -0.020668     -0.004709
     11.35594      7.22863      8.92773         0.029814      0.002012      0.039017
      7.81732     11.53430      9.38859        -0.002121      0.007975      0.017340
      4.29045      7.86496      8.43883         0.001083      0.005688     -0.005094
     -0.08855      3.00419      8.47863        -0.015249     -0.017495     -0.018865
      0.97385      1.01612      8.82658        -0.001646      0.021214     -0.003380
      7.34115      0.47240      8.39368        -0.031225      0.041255     -0.046454
      3.17278      5.41591      7.71359         0.032903     -0.021656     -0.013255
      1.02185      6.14995      8.29214        -0.009004      0.029438     -0.043309
      8.91095      2.22053      8.65055        -0.039107      0.033759     -0.046387
     -6.34149     12.98449      9.19918         0.059080      0.014394      0.009430
      7.92643     12.87924      8.97479        -0.023075     -0.008464     -0.007204
     -5.32052     11.00616      9.40686         0.072800     -0.058084      0.021224
     -3.58344      9.58583      9.49085        -0.035186      0.005842     -0.023519
      0.78190      8.32703      9.25775        -0.014122     -0.036312      0.017527
      2.07976     11.83097      8.58980        -0.008655      0.021928      0.037816
     -0.21307     12.23671      8.38291        -0.035464      0.036545     -0.014470
      2.65541      9.64245      9.71099         0.006902      0.050353      0.021140
     -1.71421      8.29481      9.15468         0.027531      0.029818      0.034078
     -3.83063      7.31646      8.88536        -0.028615     -0.012212      0.021380
     10.43304      3.87955      8.81776        -0.064074     -0.020226     -0.000246
     11.12553      1.69336      9.48234         0.014999      0.030881      0.015676
      5.63740     12.94928      8.43465         0.009552     -0.040157     -0.009186
     -1.87288      6.00254      8.48277        -0.013365     -0.030571     -0.019613
     12.61179      4.77442      8.42814        -0.000237     -0.045112      0.016877
     15.20664      0.87014      8.29123         0.011279     -0.040945     -0.064647
      3.41390     13.46410      9.73877         0.006059      0.005618     -0.009817
      9.59961     -0.02078      8.84369        -0.024803      0.035453     -0.013930
      4.23789     11.29899      9.27218        -0.006109      0.020685      0.011578
      4.73373      9.09032      8.65631         0.011925      0.000722     -0.005140
     10.62788      6.12585      8.84378         0.007941     -0.005914      0.059660
      8.89838     10.80285      9.58289         0.003551     -0.014025      0.036406
      6.56294     11.05222      9.59262         0.042790     -0.024620      0.035768
     10.82659      8.44515      9.06039         0.011326     -0.010198      0.037817
      5.07302      6.85471      8.00596         0.017843     -0.059639     -0.039813
      2.91031      7.57648      8.60828        -0.017078     -0.030030     -0.023067
     -0.60808      9.82038      9.82287         0.001995     -0.007544      0.028505
     -0.53471      8.14322     12.21545         0.002265      0.022675      0.052650
     -0.44651      7.75463     13.28394        -0.010356      0.018800     -0.040164
 -----------------------------------------------------------------------------------
    total drift:                                0.030409     -0.014631     -0.013287


--------------------------------------------------------------------------------------------------------



  FREE ENERGIE OF THE ION-ELECTRON SYSTEM (eV)
  ---------------------------------------------------
  free  energy   TOTEN  =      -489.08617111 eV

  energy  without entropy=     -489.08103757  energy(sigma->0) =     -489.08360434

 d Force = 0.2794087E-02[ 0.130E-02, 0.429E-02]  d Energy = 0.2732967E-02 0.611E-04
 d Force = 0.6146564E+01[ 0.615E+01, 0.615E+01]  d Ewald  = 0.6146563E+01 0.690E-06


--------------------------------------------------------------------------------------------------------


    POTLOK:  cpu time    0.2524: real time    0.2524


--------------------------------------------------------------------------------------------------------


 Conjugate gradient step on ions:
 trial-energy change:   -0.002733  1 .order   -0.002794   -0.004287   -0.001301
  (g-gl).g = 0.428E-02      g.g   = 0.504E-02  gl.gl    = 0.769E-02
 g(Force)  = 0.504E-02   g(Stress)= 0.000E+00 ortho     = 0.650E-04
 gamma     =   0.55596
 trial     =   0.84452
 opt step  =   1.21254  (harmonic =   1.21254) maximal distance =0.00243023
 next E    =  -489.086516   (d E  =  -0.00308)


--------------------------------------------------------------------------------------------------------


  
 reached required accuracy - stopping structural energy minimisation
     LOOP+:  cpu time   61.4259: real time   61.4669
    4ORBIT:  cpu time    0.0000: real time    0.0000

 total amount of memory used by VASP MPI-rank0   179055. kBytes
=======================================================================

   base      :      30000. kBytes
   nonlr-proj:       2577. kBytes
   fftplans  :       6275. kBytes
   grid      :      18719. kBytes
   one-center:        155. kBytes
   wavefun   :     121329. kBytes

  
  
 General timing and accounting informations for this job:
 ========================================================
  
                  Total CPU time used (sec):      876.368
                            User time (sec):      875.053
                          System time (sec):        1.316
                         Elapsed time (sec):      877.190
  
                   Maximum memory used (kb):      245556.
                   Average memory used (kb):           0.
  
                          Minor page faults:       392936
                          Major page faults:            0
                 Voluntary context switches:         2704
