       N       E                     dE             d eps       ncg     rms          rms(c)
DAV:   1     0.256435556707E+04    0.25644E+04   -0.10170E+05  3912   0.114E+03
DAV:   2     0.479615783736E+02   -0.25164E+04   -0.24172E+04  4856   0.284E+02
DAV:   3    -0.491130858160E+03   -0.53909E+03   -0.53494E+03  4172   0.146E+02
DAV:   4    -0.513778206253E+03   -0.22647E+02   -0.22046E+02  4152   0.408E+01
DAV:   5    -0.514929834771E+03   -0.11516E+01   -0.11397E+01  5152   0.764E+00    0.381E+01
DAV:   6    -0.492318237861E+03    0.22612E+02   -0.57405E+01  4216   0.216E+01    0.228E+01
DAV:   7    -0.489538822455E+03    0.27794E+01   -0.37177E+01  4312   0.157E+01    0.154E+01
DAV:   8    -0.487963334236E+03    0.15755E+01   -0.14923E+01  4128   0.111E+01    0.108E+01
DAV:   9    -0.488140890497E+03   -0.17756E+00   -0.16072E+01  4816   0.865E+00    0.623E+00
DAV:  10    -0.487427049021E+03    0.71384E+00   -0.71360E+00  4616   0.685E+00    0.319E+00
DAV:  11    -0.487359334814E+03    0.67714E-01   -0.31536E+00  4592   0.389E+00    0.233E+00
DAV:  12    -0.487272051128E+03    0.87284E-01   -0.15829E+00  4808   0.253E+00    0.139E+00
DAV:  13    -0.487235256330E+03    0.36795E-01   -0.21914E-01  3984   0.125E+00    0.752E-01
DAV:  14    -0.487230474968E+03    0.47814E-02   -0.11197E-01  4120   0.709E-01    0.433E-01
DAV:  15    -0.487231895150E+03   -0.14202E-02   -0.90770E-02  4088   0.546E-01    0.445E-01
DAV:  16    -0.487229160205E+03    0.27349E-02   -0.53750E-02  4328   0.392E-01    0.221E-01
DAV:  17    -0.487229111673E+03    0.48531E-04   -0.97671E-03  3960   0.182E-01    0.117E-01
DAV:  18    -0.487229299264E+03   -0.18759E-03   -0.36329E-03  4000   0.107E-01    0.118E-01
DAV:  19    -0.487229364959E+03   -0.65695E-04   -0.30567E-03  3568   0.752E-02    0.872E-02
DAV:  20    -0.487229315335E+03    0.49624E-04   -0.22389E-04  2264   0.345E-02
   1 F= -.49115965E+03 E0= -.49115965E+03  d E =0.000000E+00  mag=    -0.0000
