       N       E                     dE             d eps       ncg     rms          rms(c)
DAV:   1     0.253390996664E+04    0.25339E+04   -0.11220E+05  4384   0.107E+03
DAV:   2    -0.240529744135E+03   -0.27744E+04   -0.26513E+04  5456   0.280E+02
DAV:   3    -0.699968743624E+03   -0.45944E+03   -0.45530E+03  4624   0.120E+02
DAV:   4    -0.716628526307E+03   -0.16660E+02   -0.16516E+02  4640   0.281E+01
DAV:   5    -0.717180791410E+03   -0.55227E+00   -0.55064E+00  5320   0.429E+00    0.480E+01
DAV:   6    -0.710782812676E+03    0.63980E+01   -0.71946E+01  4784   0.302E+01    0.711E+01
DAV:   7    -0.675611612054E+03    0.35171E+02   -0.75995E+01  5336   0.598E+01    0.253E+01
DAV:   8    -0.668379360832E+03    0.72323E+01   -0.30690E+01  4736   0.124E+01    0.217E+01
DAV:   9    -0.664622138560E+03    0.37572E+01   -0.22925E+01  4616   0.132E+01    0.145E+01
DAV:  10    -0.663613906469E+03    0.10082E+01   -0.78846E+00  5296   0.972E+00    0.738E+00
DAV:  11    -0.663565509962E+03    0.48397E-01   -0.96128E-01  4648   0.269E+00    0.538E+00
DAV:  12    -0.663419992597E+03    0.14552E+00   -0.45180E-01  4648   0.248E+00    0.278E+00
DAV:  13    -0.663436243096E+03   -0.16250E-01   -0.16142E-01  4736   0.105E+00    0.199E+00
DAV:  14    -0.663440754694E+03   -0.45116E-02   -0.28607E-02  4400   0.399E-01    0.166E+00
DAV:  15    -0.663439819199E+03    0.93549E-03   -0.63880E-03  4856   0.237E-01    0.108E+00
DAV:  16    -0.663439235240E+03    0.58396E-03   -0.26056E-03  4720   0.126E-01    0.828E-01
DAV:  17    -0.663439145732E+03    0.89508E-04   -0.91290E-04  4184   0.789E-02
   1 F= -.67000840E+03 E0= -.67000840E+03  d E =0.000000E+00  mag=     1.0010
