 vasp.5.4.4.18Apr17-6-g9f103f2a35 (build Jan 14 2022 15:04:31) complex          
  
 executed on             LinuxIFC date 2023.01.27  22:54:36
 running on   48 total cores
 distrk:  each k-point on   48 cores,    1 groups
 distr:  one band on NCORES_PER_BAND=  12 cores,    4 groups


--------------------------------------------------------------------------------------------------------


 INCAR:
 POTCAR:    PAW_PBE C 08Apr2002                   
 POTCAR:    PAW_PBE N 08Apr2002                   
 POTCAR:    PAW_PBE C 08Apr2002                   
 POTCAR:    PAW_PBE Cr_pv 02Aug2007               
 POTCAR:    PAW_PBE C 08Apr2002                   
 POTCAR:    PAW_PBE O 08Apr2002                   
 POTCAR:    PAW_PBE C 08Apr2002                   
   SHA256 =  253f7b50bb8d59471dbedb8285d89021f4a42ed1a2c5d38a03a736e69125dd95 C/
   COPYR  = (c) Copyright 08Apr2002 Georg Kresse                                
   COPYR  = This file is part of the software VASP. Any use, copying, and all ot
   COPYR  = If you do not have a valid VASP license, you may not use, copy or di
   VRHFIN =C: s2p2                                                              
   LEXCH  = PE                                                                  
   EATOM  =   147.1560 eV,   10.8157 Ry                                         
                                                                                
   TITEL  = PAW_PBE C 08Apr2002                                                 
   LULTRA =        F    use ultrasoft PP ?                                      
   IUNSCR =        1    unscreen: 0-lin 1-nonlin 2-no                           
   RPACOR =    1.200    partial core radius                                     
   POMASS =   12.011; ZVAL   =    4.000    mass and valenz                      
   RCORE  =    1.500    outmost cutoff radius                                   
   RWIGS  =    1.630; RWIGS  =    0.863    wigner-seitz radius (au A)           
   ENMAX  =  400.000; ENMIN  =  300.000 eV                                      
   ICORE  =        2    local potential                                         
   LCOR   =        T    correct aug charges                                     
   LPAW   =        T    paw PP                                                  
   EAUG   =  644.873                                                            
   DEXC   =    0.000                                                            
   RMAX   =    1.529    core radius for proj-oper                               
   RAUG   =    1.300    factor for augmentation sphere                          
   RDEP   =    1.501    radius for radial grids                                 
   RDEPT  =    1.300    core radius for aug-charge                              
                                                                                
   Atomic configuration                                                         
    4 entries                                                                   
     n  l   j            E        occ.                                          
     1  0  0.50      -273.3789   2.0000                                         
     2  0  0.50       -13.7508   2.0000                                         
     2  1  0.50        -5.2854   2.0000                                         
     3  2  1.50        -5.4423   0.0000                                         
   Description                                                                  
     l       E           TYP  RCUT    TYP  RCUT                                 
     0    -13.7508458     23  1.200                                             
     0     -8.2022199     23  1.200                                             
     1     -5.2854383     23  1.500                                             
     1     34.0145650     23  1.500                                             
     2     -5.4423304      7  1.500                                             
  local pseudopotential read in
  partial core-charges read in
  partial kinetic energy density read in
  atomic valenz-charges read in
  non local Contribution for L=           0  read in
    real space projection operators read in
  non local Contribution for L=           0  read in
    real space projection operators read in
  non local Contribution for L=           1  read in
    real space projection operators read in
  non local Contribution for L=           1  read in
    real space projection operators read in
    PAW grid and wavefunctions read in
 
   number of l-projection  operators is LMAX  =           4
   number of lm-projection operators is LMMAX =           8
 
 POTCAR:    PAW_PBE N 08Apr2002                   
   SHA256 =  e053789ff3a61a86a1b75d8a110fcc91f86041011e7b0817c7c99e4e8a6349d7 N/
   COPYR  = (c) Copyright 08Apr2002 Georg Kresse                                
   COPYR  = This file is part of the software VASP. Any use, copying, and all ot
   COPYR  = If you do not have a valid VASP license, you may not use, copy or di
   VRHFIN =N: s2p3                                                              
   LEXCH  = PE                                                                  
   EATOM  =   264.5486 eV,   19.4438 Ry                                         
                                                                                
   TITEL  = PAW_PBE N 08Apr2002                                                 
   LULTRA =        F    use ultrasoft PP ?                                      
   IUNSCR =        1    unscreen: 0-lin 1-nonlin 2-no                           
   RPACOR =    1.200    partial core radius                                     
   POMASS =   14.001; ZVAL   =    5.000    mass and valenz                      
   RCORE  =    1.500    outmost cutoff radius                                   
   RWIGS  =    1.400; RWIGS  =    0.741    wigner-seitz radius (au A)           
   ENMAX  =  400.000; ENMIN  =  300.000 eV                                      
   ICORE  =        2    local potential                                         
   LCOR   =        T    correct aug charges                                     
   LPAW   =        T    paw PP                                                  
   EAUG   =  627.112                                                            
   DEXC   =    0.000                                                            
   RMAX   =    1.529    core radius for proj-oper                               
   RAUG   =    1.300    factor for augmentation sphere                          
   RDEP   =    1.514    radius for radial grids                                 
   RDEPT  =    1.338    core radius for aug-charge                              
                                                                                
   Atomic configuration                                                         
    4 entries                                                                   
     n  l   j            E        occ.                                          
     1  0  0.50      -384.7179   2.0000                                         
     2  0  0.50       -18.5828   2.0000                                         
     2  1  0.50        -7.0898   3.0000                                         
     3  2  1.50        -6.8029   0.0000                                         
   Description                                                                  
     l       E           TYP  RCUT    TYP  RCUT                                 
     0    -18.5828119     23  1.200                                             
     0    -13.5018863     23  1.200                                             
     1     -7.0897853     23  1.500                                             
     1      9.5240782     23  1.500                                             
     2     -6.8029130      7  1.500                                             
  local pseudopotential read in
  partial core-charges read in
  partial kinetic energy density read in
  atomic valenz-charges read in
  non local Contribution for L=           0  read in
    real space projection operators read in
  non local Contribution for L=           0  read in
    real space projection operators read in
  non local Contribution for L=           1  read in
    real space projection operators read in
  non local Contribution for L=           1  read in
    real space projection operators read in
    PAW grid and wavefunctions read in
 
   number of l-projection  operators is LMAX  =           4
   number of lm-projection operators is LMMAX =           8
 
 POTCAR:    PAW_PBE C 08Apr2002                   
   SHA256 =  253f7b50bb8d59471dbedb8285d89021f4a42ed1a2c5d38a03a736e69125dd95 C/
   COPYR  = (c) Copyright 08Apr2002 Georg Kresse                                
   COPYR  = This file is part of the software VASP. Any use, copying, and all ot
   COPYR  = If you do not have a valid VASP license, you may not use, copy or di
   VRHFIN =C: s2p2                                                              
   LEXCH  = PE                                                                  
   EATOM  =   147.1560 eV,   10.8157 Ry                                         
                                                                                
   TITEL  = PAW_PBE C 08Apr2002                                                 
   LULTRA =        F    use ultrasoft PP ?                                      
   IUNSCR =        1    unscreen: 0-lin 1-nonlin 2-no                           
   RPACOR =    1.200    partial core radius                                     
   POMASS =   12.011; ZVAL   =    4.000    mass and valenz                      
   RCORE  =    1.500    outmost cutoff radius                                   
   RWIGS  =    1.630; RWIGS  =    0.863    wigner-seitz radius (au A)           
   ENMAX  =  400.000; ENMIN  =  300.000 eV                                      
   ICORE  =        2    local potential                                         
   LCOR   =        T    correct aug charges                                     
   LPAW   =        T    paw PP                                                  
   EAUG   =  644.873                                                            
   DEXC   =    0.000                                                            
   RMAX   =    1.529    core radius for proj-oper                               
   RAUG   =    1.300    factor for augmentation sphere                          
   RDEP   =    1.501    radius for radial grids                                 
   RDEPT  =    1.300    core radius for aug-charge                              
                                                                                
   Atomic configuration                                                         
    4 entries                                                                   
     n  l   j            E        occ.                                          
     1  0  0.50      -273.3789   2.0000                                         
     2  0  0.50       -13.7508   2.0000                                         
     2  1  0.50        -5.2854   2.0000                                         
     3  2  1.50        -5.4423   0.0000                                         
   Description                                                                  
     l       E           TYP  RCUT    TYP  RCUT                                 
     0    -13.7508458     23  1.200                                             
     0     -8.2022199     23  1.200                                             
     1     -5.2854383     23  1.500                                             
     1     34.0145650     23  1.500                                             
     2     -5.4423304      7  1.500                                             
  local pseudopotential read in
  partial core-charges read in
  partial kinetic energy density read in
  atomic valenz-charges read in
  non local Contribution for L=           0  read in
    real space projection operators read in
  non local Contribution for L=           0  read in
    real space projection operators read in
  non local Contribution for L=           1  read in
    real space projection operators read in
  non local Contribution for L=           1  read in
    real space projection operators read in
    PAW grid and wavefunctions read in
 
   number of l-projection  operators is LMAX  =           4
   number of lm-projection operators is LMMAX =           8
 
 POTCAR:    PAW_PBE Cr_pv 02Aug2007               
   SHA256 =  c9a7df34d3cdbacf1090e328ef39c0b420964e11c23f63548d1ac9dd218cdba0 Cr
   COPYR  = (c) Copyright 02Aug2007 Georg Kresse                                
   COPYR  = This file is part of the software VASP. Any use, copying, and all ot
   COPYR  = If you do not have a valid VASP license, you may not use, copy or di
   VRHFIN =Cr : p6d5s1                                                          
   LEXCH  = PE                                                                  
   EATOM  =  1647.9177 eV,  121.1185 Ry                                         
                                                                                
   TITEL  = PAW_PBE Cr_pv 02Aug2007                                             
   LULTRA =        F    use ultrasoft PP ?                                      
   IUNSCR =        1    unscreen: 0-lin 1-nonlin 2-no                           
   RPACOR =    2.080    partial core radius                                     
   POMASS =   51.996; ZVAL   =   12.000    mass and valenz                      
   RCORE  =    2.300    outmost cutoff radius                                   
   RWIGS  =    2.500; RWIGS  =    1.323    wigner-seitz radius (au A)           
   ENMAX  =  265.681; ENMIN  =  199.261 eV                                      
   ICORE  =        3    local potential                                         
   LCOR   =        T    correct aug charges                                     
   LPAW   =        T    paw PP                                                  
   EAUG   =  519.424                                                            
   DEXC   =    0.000                                                            
   RMAX   =    2.356    core radius for proj-oper                               
   RAUG   =    1.300    factor for augmentation sphere                          
   RDEP   =    2.447    radius for radial grids                                 
   RDEPT  =    1.882    core radius for aug-charge                              
                                                                                
   Atomic configuration                                                         
    8 entries                                                                   
     n  l   j            E        occ.                                          
     1  0  0.50     -5880.4963   2.0000                                         
     2  0  0.50      -667.0865   2.0000                                         
     2  1  1.50      -560.6250   6.0000                                         
     3  0  0.50       -73.9860   2.0000                                         
     3  1  1.50       -45.4378   6.0000                                         
     3  2  2.50        -2.9137   5.0000                                         
     4  0  0.50        -4.0071   1.0000                                         
     4  3  2.50        -1.3606   0.0000                                         
   Description                                                                  
     l       E           TYP  RCUT    TYP  RCUT                                 
     1    -45.4377911     23  2.000                                             
     1      1.3605826     23  2.000                                             
     2     -2.9136672     23  2.300                                             
     2     -4.2742498     23  2.300                                             
     0     -4.0071320     23  2.300                                             
     0      9.4498803     23  2.300                                             
     3      2.7211652     23  2.300                                             
  local pseudopotential read in
  partial core-charges read in
  partial kinetic energy density read in
  atomic valenz-charges read in
  non local Contribution for L=           1  read in
    real space projection operators read in
  non local Contribution for L=           1  read in
    real space projection operators read in
  non local Contribution for L=           2  read in
    real space projection operators read in
  non local Contribution for L=           2  read in
    real space projection operators read in
  non local Contribution for L=           0  read in
    real space projection operators read in
  non local Contribution for L=           0  read in
    real space projection operators read in
    PAW grid and wavefunctions read in
 
   number of l-projection  operators is LMAX  =           6
   number of lm-projection operators is LMMAX =          18
 
 POTCAR:    PAW_PBE C 08Apr2002                   
   SHA256 =  253f7b50bb8d59471dbedb8285d89021f4a42ed1a2c5d38a03a736e69125dd95 C/
   COPYR  = (c) Copyright 08Apr2002 Georg Kresse                                
   COPYR  = This file is part of the software VASP. Any use, copying, and all ot
   COPYR  = If you do not have a valid VASP license, you may not use, copy or di
   VRHFIN =C: s2p2                                                              
   LEXCH  = PE                                                                  
   EATOM  =   147.1560 eV,   10.8157 Ry                                         
                                                                                
   TITEL  = PAW_PBE C 08Apr2002                                                 
   LULTRA =        F    use ultrasoft PP ?                                      
   IUNSCR =        1    unscreen: 0-lin 1-nonlin 2-no                           
   RPACOR =    1.200    partial core radius                                     
   POMASS =   12.011; ZVAL   =    4.000    mass and valenz                      
   RCORE  =    1.500    outmost cutoff radius                                   
   RWIGS  =    1.630; RWIGS  =    0.863    wigner-seitz radius (au A)           
   ENMAX  =  400.000; ENMIN  =  300.000 eV                                      
   ICORE  =        2    local potential                                         
   LCOR   =        T    correct aug charges                                     
   LPAW   =        T    paw PP                                                  
   EAUG   =  644.873                                                            
   DEXC   =    0.000                                                            
   RMAX   =    1.529    core radius for proj-oper                               
   RAUG   =    1.300    factor for augmentation sphere                          
   RDEP   =    1.501    radius for radial grids                                 
   RDEPT  =    1.300    core radius for aug-charge                              
                                                                                
   Atomic configuration                                                         
    4 entries                                                                   
     n  l   j            E        occ.                                          
     1  0  0.50      -273.3789   2.0000                                         
     2  0  0.50       -13.7508   2.0000                                         
     2  1  0.50        -5.2854   2.0000                                         
     3  2  1.50        -5.4423   0.0000                                         
   Description                                                                  
     l       E           TYP  RCUT    TYP  RCUT                                 
     0    -13.7508458     23  1.200                                             
     0     -8.2022199     23  1.200                                             
     1     -5.2854383     23  1.500                                             
     1     34.0145650     23  1.500                                             
     2     -5.4423304      7  1.500                                             
  local pseudopotential read in
  partial core-charges read in
  partial kinetic energy density read in
  atomic valenz-charges read in
  non local Contribution for L=           0  read in
    real space projection operators read in
  non local Contribution for L=           0  read in
    real space projection operators read in
  non local Contribution for L=           1  read in
    real space projection operators read in
  non local Contribution for L=           1  read in
    real space projection operators read in
    PAW grid and wavefunctions read in
 
   number of l-projection  operators is LMAX  =           4
   number of lm-projection operators is LMMAX =           8
 
 POTCAR:    PAW_PBE O 08Apr2002                   
   SHA256 =  818f92134a0a090dccd8ba1447fa70422a3b330e708bb4f08108d8ae51209ddf O/
   COPYR  = (c) Copyright 08Apr2002 Georg Kresse                                
   COPYR  = This file is part of the software VASP. Any use, copying, and all ot
   COPYR  = If you do not have a valid VASP license, you may not use, copy or di
   VRHFIN =O: s2p4                                                              
   LEXCH  = PE                                                                  
   EATOM  =   432.3788 eV,   31.7789 Ry                                         
                                                                                
   TITEL  = PAW_PBE O 08Apr2002                                                 
   LULTRA =        F    use ultrasoft PP ?                                      
   IUNSCR =        1    unscreen: 0-lin 1-nonlin 2-no                           
   RPACOR =    1.200    partial core radius                                     
   POMASS =   16.000; ZVAL   =    6.000    mass and valenz                      
   RCORE  =    1.520    outmost cutoff radius                                   
   RWIGS  =    1.550; RWIGS  =    0.820    wigner-seitz radius (au A)           
   ENMAX  =  400.000; ENMIN  =  300.000 eV                                      
   ICORE  =        2    local potential                                         
   LCOR   =        T    correct aug charges                                     
   LPAW   =        T    paw PP                                                  
   EAUG   =  605.392                                                            
   DEXC   =    0.000                                                            
   RMAX   =    1.553    core radius for proj-oper                               
   RAUG   =    1.300    factor for augmentation sphere                          
   RDEP   =    1.550    radius for radial grids                                 
   RDEPT  =    1.329    core radius for aug-charge                              
                                                                                
   Atomic configuration                                                         
    4 entries                                                                   
     n  l   j            E        occ.                                          
     1  0  0.50      -514.6923   2.0000                                         
     2  0  0.50       -23.9615   2.0000                                         
     2  1  0.50        -9.0305   4.0000                                         
     3  2  1.50        -9.5241   0.0000                                         
   Description                                                                  
     l       E           TYP  RCUT    TYP  RCUT                                 
     0    -23.9615318     23  1.200                                             
     0     -9.5240782     23  1.200                                             
     1     -9.0304911     23  1.520                                             
     1      8.1634956     23  1.520                                             
     2     -9.5240782      7  1.500                                             
  local pseudopotential read in
  partial core-charges read in
  partial kinetic energy density read in
  kinetic energy density of atom read in
  atomic valenz-charges read in
  non local Contribution for L=           0  read in
    real space projection operators read in
  non local Contribution for L=           0  read in
    real space projection operators read in
  non local Contribution for L=           1  read in
    real space projection operators read in
  non local Contribution for L=           1  read in
    real space projection operators read in
    PAW grid and wavefunctions read in
 
   number of l-projection  operators is LMAX  =           4
   number of lm-projection operators is LMMAX =           8
 

 ----------------------------------------------------------------------------- 
|                                                                             |
|  ADVICE TO THIS USER RUNNING 'VASP/VAMP'   (HEAR YOUR MASTER'S VOICE ...):  |
|                                                                             |
|      You have a (more or less) 'large supercell' and for larger cells       |
|      it might be more efficient to use real space projection opertators     |
|      So try LREAL= Auto  in the INCAR   file.                               |
|      Mind:          For very  accurate calculation you might also keep the  |
|      reciprocal projection scheme          (i.e. LREAL=.FALSE.)             |
|                                                                             |
 ----------------------------------------------------------------------------- 

  PAW_PBE C 08Apr2002                   :
 energy of atom  1       EATOM= -147.1560
 kinetic energy error for atom=    0.0132 (will be added to EATOM!!)
  PAW_PBE N 08Apr2002                   :
 energy of atom  2       EATOM= -264.5486
 kinetic energy error for atom=    0.0298 (will be added to EATOM!!)
  PAW_PBE C 08Apr2002                   :
 energy of atom  3       EATOM= -147.1560
 kinetic energy error for atom=    0.0132 (will be added to EATOM!!)
  PAW_PBE Cr_pv 02Aug2007               :
 energy of atom  4       EATOM=-1647.9177
 kinetic energy error for atom=    0.0134 (will be added to EATOM!!)
  PAW_PBE C 08Apr2002                   :
 energy of atom  5       EATOM= -147.1560
 kinetic energy error for atom=    0.0132 (will be added to EATOM!!)
  PAW_PBE O 08Apr2002                   :
 energy of atom  6       EATOM= -432.3788
 kinetic energy error for atom=    0.0458 (will be added to EATOM!!)
 
 
 POSCAR: POSCAR-clean                            
  positions in cartesian coordinates
  No initial velocities read in
 exchange correlation table for  LEXCH =        8
   RHO(1)=    0.500       N(1)  =     2000
   RHO(2)=  100.500       N(2)  =     4000

 VTST: version 3.2, (02/03/18)

 CHAIN: initializing optimizer
 
 OPT: Using VASP Dynamics algorithm
 CHAIN: Read ICHAIN            0
 
 POSCAR: POSCAR-clean                            
  positions in cartesian coordinates
  No initial velocities read in
 


--------------------------------------------------------------------------------------------------------


 ion  position               nearest neighbor table
   1  0.999  1.000  0.484-   2 1.42  60 1.43  70 1.44
   2  0.056  0.111  0.484-   1 1.42  13 1.42  15 1.43
   3  0.168  0.002  0.483-   4 1.42  62 1.43  60 1.43
   4  0.224  0.113  0.484-   3 1.42  15 1.42  17 1.43
   5  0.334  0.002  0.484-   6 1.42  62 1.43  64 1.43
   6  0.390  0.113  0.484-   5 1.42  19 1.42  17 1.43
   7  0.501  1.000  0.484-   8 1.42  64 1.43  66 1.44
   8  0.556  0.111  0.484-   7 1.42  21 1.42  19 1.43
   9  0.666  0.997  0.484-  68 1.42  10 1.42  66 1.42
  10  0.722  0.109  0.484-   9 1.42  23 1.42  21 1.43
  11  0.831  0.997  0.484-  68 1.42  12 1.42  70 1.42
  12  0.887  0.109  0.484-  11 1.42  23 1.42  13 1.43
  13  0.999  0.165  0.484-   2 1.42  14 1.42  12 1.43
  14  0.054  0.276  0.484-  13 1.42  25 1.42  27 1.43
  15  0.167  0.168  0.484-  16 1.42   4 1.42   2 1.43
  16  0.223  0.280  0.486-  15 1.42  27 1.42  29 1.45
  17  0.335  0.170  0.485-  18 1.42   4 1.43   6 1.43
  18  0.391  0.281  0.488-  17 1.42  29 1.44  31 1.44
  19  0.501  0.168  0.484-  20 1.42   6 1.42   8 1.43
  20  0.557  0.280  0.486-  19 1.42  33 1.42  31 1.45
  21  0.667  0.165  0.483-   8 1.42  22 1.42  10 1.43
  22  0.722  0.276  0.484-  21 1.42  35 1.42  33 1.43
  23  0.833  0.165  0.484-  24 1.42  12 1.42  10 1.42
  24  0.888  0.276  0.484-  23 1.42  35 1.42  25 1.42
  25  0.999  0.332  0.484-  26 1.42  14 1.42  24 1.42
  26  0.054  0.444  0.485-  39 1.42  37 1.42  25 1.42
  27  0.165  0.333  0.486-  28 1.42  16 1.42  14 1.43
  28  0.219  0.444  0.488-  41 1.41  39 1.42  27 1.42
  29  0.336  0.338  0.489-  30 1.42  18 1.44  16 1.45
  30  0.388  0.449  0.495-  41 1.41  29 1.42  71 2.00
  31  0.503  0.338  0.489-  32 1.42  18 1.44  20 1.45
  32  0.561  0.449  0.496-  43 1.41  31 1.42  71 2.00
  33  0.668  0.333  0.486-  34 1.42  20 1.42  22 1.43
  34  0.725  0.444  0.487-  43 1.41  45 1.42  33 1.42
  35  0.833  0.332  0.484-  36 1.42  22 1.42  24 1.42
  36  0.890  0.444  0.484-  45 1.42  37 1.42  35 1.42
  37  1.000  0.500  0.484-  36 1.42  26 1.42  38 1.42
  38  0.056  0.611  0.484-  47 1.42  49 1.42  37 1.42
  39  0.165  0.500  0.486-  26 1.42  28 1.42  40 1.42
  40  0.220  0.611  0.486-  49 1.42  51 1.42  39 1.42
  41  0.329  0.500  0.491-  30 1.41  28 1.41  42 1.43
  42  0.386  0.612  0.491-  51 1.41  53 1.42  41 1.43
  43  0.671  0.500  0.491-  32 1.41  34 1.41  44 1.43
  44  0.727  0.612  0.491-  57 1.41  55 1.42  43 1.43
  45  0.835  0.500  0.486-  36 1.42  34 1.42  46 1.42
  46  0.891  0.611  0.485-  47 1.42  57 1.42  45 1.42
  47  0.001  0.667  0.484-  46 1.42  38 1.42  48 1.42
  48  0.057  0.779  0.484-  61 1.42  47 1.42  59 1.43
  49  0.166  0.667  0.485-  40 1.42  38 1.42  50 1.42
  50  0.222  0.779  0.484-  49 1.42  61 1.42  63 1.43
  51  0.331  0.667  0.488-  42 1.41  52 1.42  40 1.42
  52  0.388  0.778  0.486-  51 1.42  65 1.42  63 1.42
  53  0.496  0.663  0.496-  42 1.42  54 1.42  71 1.99
  54  0.554  0.774  0.489-  53 1.42  67 1.43  65 1.44
  55  0.668  0.663  0.496-  44 1.42  56 1.42  71 1.99
  56  0.721  0.774  0.489-  55 1.42  67 1.43  69 1.44
  57  0.836  0.667  0.487-  44 1.41  58 1.42  46 1.42
  58  0.890  0.778  0.486-  57 1.42  69 1.42  59 1.42
  59  0.001  0.835  0.484-  60 1.42  58 1.42  48 1.43
  60  0.056  0.946  0.483-  59 1.42   1 1.43   3 1.43
  61  0.168  0.835  0.484-  62 1.42  48 1.42  50 1.42
  62  0.223  0.946  0.484-  61 1.42   3 1.43   5 1.43
  63  0.333  0.835  0.484-  64 1.42  52 1.42  50 1.43
  64  0.390  0.946  0.484-  63 1.42   7 1.43   5 1.43
  65  0.499  0.831  0.486-  66 1.42  52 1.42  54 1.44
  66  0.556  0.943  0.484-  65 1.42   9 1.42   7 1.44
  67  0.666  0.831  0.488-  68 1.41  54 1.43  56 1.43
  68  0.721  0.941  0.485-  67 1.41   9 1.42  11 1.42
  69  0.833  0.831  0.486-  70 1.42  58 1.42  56 1.44
  70  0.887  0.943  0.484-  69 1.42  11 1.42   1 1.44
  71  0.528  0.556  0.541-  53 1.99  55 1.99  30 2.00  32 2.00
  72  0.528  0.556  0.940-  73 1.16
  73  0.478  0.499  0.996-  72 1.16
 

IMPORTANT INFORMATION: All symmetrisations will be switched off!
NOSYMM: (Re-)initialisation of all symmetry stuff for point group C_1.

 
 
 KPOINTS: K-Points                                

Automatic generation of k-mesh.
Space group operators:
 irot       det(A)        alpha          n_x          n_y          n_z        tau_x        tau_y        tau_z
    1     1.000000     0.000000     1.000000     0.000000     0.000000     0.000000     0.000000     0.000000
 
 Subroutine IBZKPT returns following result:
 ===========================================
 
 Found      5 irreducible k-points:
 
 Following reciprocal coordinates:
            Coordinates               Weight
  0.000000  0.000000  0.000000      1.000000
  0.333333 -0.000000  0.000000      2.000000
 -0.000000  0.333333  0.000000      2.000000
  0.333333  0.333333  0.000000      2.000000
 -0.333333  0.333333  0.000000      2.000000
 
 Following cartesian coordinates:
            Coordinates               Weight
  0.000000  0.000000  0.000000      1.000000
  0.022436  0.013067  0.000000      2.000000
 -0.000000  0.026135  0.000000      2.000000
  0.022436  0.039202  0.000000      2.000000
 -0.022436  0.013067  0.000000      2.000000
 
 TETIRR: Found     24 inequivalent tetrahedra from       54


--------------------------------------------------------------------------------------------------------




 Dimension of arrays:
   k-points           NKPTS =      5   k-points in BZ     NKDIM =      5   number of bands    NBANDS=    192
   number of dos      NEDOS =   4000   number of ions     NIONS =     73
   non local maximal  LDIM  =      6   non local SUM 2l+1 LMDIM =     18
   total plane-waves  NPLWV = 512000
   max r-space proj   IRMAX =      1   max aug-charges    IRDMAX=   6467
   dimension x,y,z NGX =    80 NGY =   80 NGZ =   80
   dimension x,y,z NGXF=   160 NGYF=  160 NGZF=  160
   support grid    NGXF=   160 NGYF=  160 NGZF=  160
   ions per type =              67   1   2   1   1   1
   NGX,Y,Z   is equivalent  to a cutoff of   8.95,  9.01,  8.87 a.u.
   NGXF,Y,Z  is equivalent  to a cutoff of  17.90, 18.02, 17.73 a.u.

 SYSTEM =  unknown system                          
 POSCAR =  POSCAR-clean                            

 Startparameter for this run:
   NWRITE =      2    write-flag & timer
   PREC   = normal    normal or accurate (medium, high low for compatibility)
   ISTART =      0    job   : 0-new  1-cont  2-samecut
   ICHARG =      2    charge: 1-file 2-atom 10-const
   ISPIN  =      2    spin polarized calculation?
   LNONCOLLINEAR =      F non collinear calculations
   LSORBIT =      F    spin-orbit coupling
   INIWAV =      1    electr: 0-lowe 1-rand  2-diag
   LASPH  =      F    aspherical Exc in radial PAW
   METAGGA=      F    non-selfconsistent MetaGGA calc.

 Electronic Relaxation 1
   ENCUT  =  440.0 eV  32.34 Ry    5.69 a.u.  25.41 25.24 25.66*2*pi/ulx,y,z
   ENINI  =  440.0     initial cutoff
   ENAUG  =  644.9 eV  augmentation charge cutoff
   NELM   =    100;   NELMIN=  2; NELMDL= -5     # of ELM steps 
   EDIFF  = 0.1E-03   stopping-criterion for ELM
   LREAL  =      F    real-space projection
   NLSPLINE    = F    spline interpolate recip. space projectors
   LCOMPAT=      F    compatible to vasp.4.4
   GGA_COMPAT  = T    GGA compatible to vasp.4.4-vasp.4.6
   LMAXPAW     = -100 max onsite density
   LMAXMIX     =    2 max onsite mixed and CHGCAR
   VOSKOWN=      0    Vosko Wilk Nusair interpolation
   ROPT   =    0.00000   0.00000   0.00000   0.00000
   ROPT   =    0.00000   0.00000
 Ionic relaxation
   EDIFFG = -.1E-01   stopping-criterion for IOM
   NSW    =      0    number of steps for IOM
   NBLOCK =      1;   KBLOCK =      1    inner block; outer block 
   IBRION =     -1    ionic relax: 0-MD 1-quasi-New 2-CG
   NFREE  =      0    steps in history (QN), initial steepest desc. (CG)
   ISIF   =      2    stress and relaxation
   IWAVPR =     10    prediction:  0-non 1-charg 2-wave 3-comb
   ISYM   =      0    0-nonsym 1-usesym 2-fastsym
   LCORR  =      T    Harris-Foulkes like correction to forces

   POTIM  = 0.5000    time-step for ionic-motion
   TEIN   =    0.0    initial temperature
   TEBEG  =    0.0;   TEEND  =   0.0 temperature during run
   SMASS  =  -3.00    Nose mass-parameter (am)
   estimated Nose-frequenzy (Omega)   =  0.10E-29 period in steps =****** mass=  -0.504E-26a.u.
   SCALEE = 1.0000    scale energy and forces
   NPACO  =    256;   APACO  = 16.0  distance and # of slots for P.C.
   PSTRESS=    0.0 pullay stress

  Mass of Ions in am
   POMASS =  12.01 14.00 12.01 52.00 12.01 16.00
  Ionic Valenz
   ZVAL   =   4.00  5.00  4.00 12.00  4.00  6.00
  Atomic Wigner-Seitz radii
   RWIGS  =  -1.00 -1.00 -1.00 -1.00 -1.00 -1.00
  virtual crystal weights 
   VCA    =   1.00  1.00  1.00  1.00  1.00  1.00
   NELECT =     303.0000    total number of electrons
   NUPDOWN=      -1.0000    fix difference up-down

 DOS related values:
   EMIN   = -14.00;   EMAX   =  6.00  energy-range for DOS
   EFERMI =   0.00
   ISMEAR =    -5;   SIGMA  =   0.20  broadening in eV -4-tet -1-fermi 0-gaus

 Electronic relaxation 2 (details)
   IALGO  =     38    algorithm
   LDIAG  =      T    sub-space diagonalisation (order eigenvalues)
   LSUBROT=      F    optimize rotation matrix (better conditioning)
   TURBO    =      0    0=normal 1=particle mesh
   IRESTART =      0    0=no restart 2=restart with 2 vectors
   NREBOOT  =      0    no. of reboots
   NMIN     =      0    reboot dimension
   EREF     =   0.00    reference energy to select bands
   IMIX   =      4    mixing-type and parameters
     AMIX     =   0.25;   BMIX     =  0.00
     AMIX_MAG =   1.00;   BMIX_MAG =  0.00
     AMIN     =   0.10
     WC   =   100.;   INIMIX=   1;  MIXPRE=   1;  MAXMIX= -45

 Intra band minimization:
   WEIMIN = 0.0000     energy-eigenvalue tresh-hold
   EBREAK =  0.13E-06  absolut break condition
   DEPER  =   0.30     relativ break condition  

   TIME   =   0.40     timestep for ELM

  volume/ion in A,a.u.               =      38.94       262.75
  Fermi-wavevector in a.u.,A,eV,Ry     =   0.776241  1.466884  8.198201  0.602551
  Thomas-Fermi vector in A             =   1.878678
 
 Write flags
   LWAVE        =      F    write WAVECAR
   LDOWNSAMPLE  =      F    k-point downsampling of WAVECAR
   LCHARG       =      F    write CHGCAR
   LVTOT        =      F    write LOCPOT, total local potential
   LVHAR        =      F    write LOCPOT, Hartree potential only
   LELF         =      F    write electronic localiz. function (ELF)
   LORBIT       =     11    0 simple, 1 ext, 2 COOP (PROOUT), +10 PAW based schemes


 Dipole corrections
   LMONO  =      F    monopole corrections only (constant potential shift)
   LDIPOL =      F    correct potential (dipole corrections)
   IDIPOL =      0    1-x, 2-y, 3-z, 4-all directions 
   EPSILON=  1.0000000 bulk dielectric constant

 Exchange correlation treatment:
   GGA     =    --    GGA type
   LEXCH   =     8    internal setting for exchange type
   VOSKOWN=      0    Vosko Wilk Nusair interpolation
   LHFCALC =     F    Hartree Fock is set to
   LHFONE  =     F    Hartree Fock one center treatment
   AEXX    =    0.0000 exact exchange contribution

 Linear response parameters
   LEPSILON=     F    determine dielectric tensor
   LRPA    =     F    only Hartree local field effects (RPA)
   LNABLA  =     F    use nabla operator in PAW spheres
   LVEL    =     F    velocity operator in full k-point grid
   LINTERFAST=   F  fast interpolation
   KINTER  =     0    interpolate to denser k-point grid
   CSHIFT  =0.1000    complex shift for real part using Kramers Kronig
   OMEGAMAX=  -1.0    maximum frequency
   DEG_THRESHOLD= 0.2000000E-02 threshold for treating states as degnerate
   RTIME   =   -0.100 relaxation time in fs
  (WPLASMAI=    0.000 imaginary part of plasma frequency in eV, 0.658/RTIME)
   DFIELD  = 0.0000000 0.0000000 0.0000000 field for delta impulse in time
 
 Orbital magnetization related:
   ORBITALMAG=     F  switch on orbital magnetization
   LCHIMAG   =     F  perturbation theory with respect to B field
   DQ        =  0.001000  dq finite difference perturbation B field
   LLRAUG    =     F  two centre corrections for induced B field



--------------------------------------------------------------------------------------------------------


 Static calculation
 charge density and potential will be updated during run
 spin polarized calculation
 Variant of blocked Davidson
 Davidson routine will perform the subspace rotation
 perform sub-space diagonalisation
    after iterative eigenvector-optimisation
 modified Broyden-mixing scheme, WC =      100.0
 initial mixing is a Kerker type mixing with AMIX =  0.2500 and BMIX =      0.0001
 Hartree-type preconditioning will be used
 using additional bands           40
 reciprocal scheme for non local part
 use partial core corrections
 calculate Harris-corrections to forces 
   (improved forces if not selfconsistent)
 use gradient corrections 
 use of overlap-Matrix (Vanderbilt PP)
 Fermi weights with tetrahedron method with Bloechl corrections


--------------------------------------------------------------------------------------------------------


  energy-cutoff  :      440.00
  volume of cell :     2842.34
      direct lattice vectors                 reciprocal lattice vectors
    14.856884906  0.000020497  0.000000000     0.067308807  0.039202376  0.000000000
    -7.428442453 12.754318856  0.000000000    -0.000000108  0.078404751  0.000000000
     0.000000000  0.000000000 15.000000000     0.000000000  0.000000000  0.066666667

  length of vectors
    14.856884906 14.759891828 15.000000000     0.077892886  0.078404751  0.066666667


 
 k-points in units of 2pi/SCALE and weight: K-Points                                
   0.00000000  0.00000000  0.00000000       0.111
   0.02243627  0.01306746  0.00000000       0.222
  -0.00000004  0.02613492  0.00000000       0.222
   0.02243623  0.03920238  0.00000000       0.222
  -0.02243631  0.01306746  0.00000000       0.222
 
 k-points in reciprocal lattice and weights: K-Points                                
   0.00000000  0.00000000  0.00000000       0.111
   0.33333333 -0.00000000  0.00000000       0.222
  -0.00000000  0.33333333  0.00000000       0.222
   0.33333333  0.33333333  0.00000000       0.222
  -0.33333333  0.33333333  0.00000000       0.222
 
 position of ions in fractional coordinates (direct lattice) 
   0.99940112  0.99989654  0.48357584
   0.05553203  0.11125565  0.48366298
   0.16782220  0.00202458  0.48346816
   0.22351942  0.11335516  0.48418507
   0.33444725  0.00201007  0.48366738
   0.39008600  0.11333775  0.48432010
   0.50073253  0.99986516  0.48366176
   0.55596197  0.11122429  0.48359416
   0.66649927  0.99725358  0.48423892
   0.72198564  0.10851393  0.48350673
   0.83102337  0.99727011  0.48436062
   0.88678957  0.10852800  0.48370830
   0.99856057  0.16488565  0.48375544
   0.05405889  0.27631112  0.48443228
   0.16728308  0.16810163  0.48429284
   0.22299598  0.27967790  0.48598339
   0.33522256  0.17018232  0.48534854
   0.39087515  0.28148299  0.48846625
   0.50106519  0.16807772  0.48434523
   0.55692701  0.27965925  0.48596496
   0.66656270  0.16486297  0.48345784
   0.72248146  0.27629103  0.48396412
   0.83266097  0.16507456  0.48358239
   0.88827275  0.27630980  0.48370122
   0.99910332  0.33217938  0.48425294
   0.05443226  0.44371615  0.48468861
   0.16524211  0.33275075  0.48597299
   0.21925885  0.44395580  0.48774453
   0.33551332  0.33798582  0.48929813
   0.38794983  0.44877501  0.49524876
   0.50274278  0.33799036  0.48945787
   0.56110220  0.44878448  0.49555925
   0.66774413  0.33273622  0.48561114
   0.72492108  0.44394883  0.48725207
   0.83330342  0.33216988  0.48383949
   0.88950100  0.44371230  0.48416885
   0.99997704  0.49973872  0.48421144
   0.05578080  0.61134945  0.48421967
   0.16472122  0.49984778  0.48626742
   0.22049305  0.61126661  0.48624329
   0.32933346  0.49968006  0.49115936
   0.38578577  0.61215209  0.49110022
   0.67060346  0.49967836  0.49112836
   0.72662407  0.61215277  0.49107205
   0.83534525  0.49984704  0.48550794
   0.89098998  0.61126577  0.48548468
   0.00130858  0.66741181  0.48418049
   0.05672378  0.77897785  0.48384368
   0.16631483  0.66740629  0.48469930
   0.22247585  0.77896745  0.48425251
   0.33108127  0.66715679  0.48763202
   0.38823865  0.77836036  0.48592850
   0.49583062  0.66310291  0.49554541
   0.55376699  0.77422622  0.48926175
   0.66754435  0.66309721  0.49586923
   0.72073061  0.77422371  0.48942844
   0.83630403  0.66716229  0.48714113
   0.89037252  0.77837480  0.48556137
   0.00134077  0.83459093  0.48396564
   0.05625733  0.94569505  0.48345875
   0.16755781  0.83488524  0.48368397
   0.22328797  0.94633171  0.48354784
   0.33347641  0.83457042  0.48442613
   0.38967390  0.94567170  0.48375441
   0.49886001  0.83141172  0.48590622
   0.55559138  0.94264671  0.48429252
   0.66550009  0.83072693  0.48847369
   0.72072049  0.94117730  0.48540861
   0.83281690  0.83143097  0.48587061
   0.88732557  0.94267128  0.48432228
   0.52788435  0.55580684  0.54104093
   0.52788435  0.55580684  0.93970760
   0.47782248  0.49889729  0.99606341
 
 position of ions in cartesian coordinates  (Angst):
   7.42031349 12.75301973  7.25363754
  -0.00142327  1.41899118  7.25494474
   2.47827569  0.02582560  7.25202238
   2.47874993  1.44577250  7.26277605
   4.95391258  0.02564399  7.25501067
   4.95353982  1.44555377  7.26480152
   0.01188487 12.75260928  7.25492637
   7.43363975  1.41860149  7.25391235
   2.49406216 12.71930380  7.26358382
   9.92036809  1.38403605  7.25260096
   4.93825491 12.71951800  7.26540931
  12.36873658  1.38421890  7.25562444
  13.61065597  2.10302458  7.25633160
  -1.24941460  3.52416127  7.26648419
   1.23657217  2.14402522  7.26439264
   1.23545446  3.56710571  7.28975079
   3.71617341  2.17056648  7.28022817
   3.71620684  3.59013183  7.32699369
   6.19571210  2.14372717  7.26517839
   6.19676792  3.56687466  7.28947436
   8.67837018  2.10272854  7.25186761
   8.68141185  3.52391875  7.25946177
  11.14450136  2.10543063  7.25373584
  11.14441454  3.52416155  7.25551828
  12.37598766  4.23674220  7.26379413
  -2.48742602  5.65929840  7.27032922
  -0.01683672  4.24401249  7.28959487
  -0.04039656  5.66235830  7.31616790
   2.47397454  4.31078585  7.33947196
   2.43002665  5.72382754  7.42873135
   4.95844967  4.31084709  7.34186806
   5.00246112  5.72395188  7.43338878
   7.44888588  4.24383752  7.28416717
   7.47222079  5.66227973  7.30878103
   9.91278810  4.23661766  7.25759238
   9.91912270  5.65926637  7.26253268
  11.14426353  6.37384744  7.26317166
  -3.71264529  7.79734697  7.26329498
  -1.26584628  6.37522140  7.29401128
  -1.26491889  7.79629374  7.29364941
   1.18102474  6.37308562  7.36739045
   1.18423816  7.80759085  7.36650326
   6.25124644  6.37307088  7.36692536
   6.24802860  7.80760648  7.36608069
   8.69754331  6.37522570  7.28261907
   8.69658302  7.79629686  7.28227023
  -4.93838882  8.51238304  7.26270742
  -4.94385345  9.93533301  7.25765526
  -2.48686896  8.51231598  7.27048953
  -2.48121683  9.93520376  7.26378762
  -0.03709953  8.50913726  7.31448029
  -0.01398819  9.92746418  7.28892756
   2.44067670  8.45743614  7.43318115
   2.47595752  9.87473947  7.33892625
   4.99185007  8.45736696  7.43803843
   4.95653550  9.87471086  7.34142661
   7.46889605  8.50921774  7.30711702
   7.44604960  9.92765861  7.28342051
  -6.17979100 10.64463888  7.25948454
  -6.18923260 12.06169731  7.25188129
  -3.71250983 10.64839597  7.25525953
  -3.71240695 12.06982094  7.25321767
  -1.24513774 10.64438403  7.26639189
  -1.23552743 12.06140636  7.25631612
   1.23541161 10.60410039  7.28859323
   1.25196038 12.02282809  7.26438787
   3.71625098 10.59536979  7.32710529
   3.71617996 12.00409017  7.28112918
   6.19682772 10.60435280  7.28805913
   6.18031455 12.02314823  7.26483413
   3.71393781  7.08894854  8.11561399
   3.71393781  7.08894854 14.09561399
   3.39292386  6.36310485 14.94095117
 


--------------------------------------------------------------------------------------------------------


 k-point  1 :   0.0000 0.0000 0.0000  plane waves:   59573
 k-point  2 :   0.3333-0.0000 0.0000  plane waves:   59536
 k-point  3 :  -0.0000 0.3333 0.0000  plane waves:   59600
 k-point  4 :   0.3333 0.3333 0.0000  plane waves:   59608
 k-point  5 :  -0.3333 0.3333 0.0000  plane waves:   59536

 maximum and minimum number of plane-waves per node :      5000     4941

 maximum number of plane-waves:     59608
 maximum index in each direction: 
   IXMAX=   25   IYMAX=   25   IZMAX=   25
   IXMIN=  -25   IYMIN=  -25   IZMIN=  -25


 parallel 3D FFT for wavefunctions:
    minimum data exchange during FFTs selected (reduces bandwidth)
 parallel 3D FFT for charge:
    minimum data exchange during FFTs selected (reduces bandwidth)


 total amount of memory used by VASP MPI-rank0   116041. kBytes
=======================================================================

   base      :      30000. kBytes
   nonl-proj :      27286. kBytes
   fftplans  :       4700. kBytes
   grid      :      15193. kBytes
   one-center:        217. kBytes
   wavefun   :      38645. kBytes
 
     INWAV:  cpu time    0.0000: real time    0.0005
 Broyden mixing: mesh for mixing (old mesh)
   NGX = 51   NGY = 51   NGZ = 51
  (NGX  =160   NGY  =160   NGZ  =160)
  gives a total of 132651 points

 initial charge density was supplied:
 charge density of overlapping atoms calculated
 number of electron     303.0000000 magnetization       2.0000000
 keeping initial charge density in first step


--------------------------------------------------------------------------------------------------------


 Maximum index for augmentation-charges          178 (set IRDMAX)


--------------------------------------------------------------------------------------------------------


 First call to EWALD:  gamma=   0.125
 Maximum number of real-space cells 3x 3x 3
 Maximum number of reciprocal cells 3x 3x 3

    FEWALD:  cpu time    0.0045: real time    0.0047


--------------------------------------- Iteration      1(   1)  ---------------------------------------


    POTLOK:  cpu time    0.2358: real time    0.2782
    SETDIJ:  cpu time    0.0090: real time    0.0096
     EDDAV:  cpu time   11.4561: real time   11.5557
 BZINTS: Fermi energy:  7.965373;303.000000 electrons
         Band energy:***********;  BLOECHL correction: -0.015064
       DOS:  cpu time    0.1076: real time    0.1077
    --------------------------------------------
      LOOP:  cpu time   11.8085: real time   11.9511

 eigenvalue-minimisations  :  4400
 total energy-change (2. order) : 0.2501106E+04  (-0.1121322E+05)
 number of electron     303.0000000 magnetization       2.0000000
 augmentation part      303.0000000 magnetization       2.0000000

 Free energy of the ion-electron system (eV)
  ---------------------------------------------------
  alpha Z        PSCENC =       167.30009242
  Ewald energy   TEWEN  =     28897.86585108
  -Hartree energ DENC   =    -38576.53103715
  -exchange      EXHF   =         0.00000000
  -V(xc)+E(xc)   XCENC  =      1022.18666075
  PAW double counting   =      9455.23336183    -9546.47664214
  entropy T*S    EENTRO =         0.00000000
  eigenvalues    EBANDS =     -1563.22498263
  atomic energy  EATOM  =     12644.75315347
  Solvation  Ediel_sol  =         0.00000000
  ---------------------------------------------------
  free energy    TOTEN  =      2501.10645764 eV

  energy without entropy =     2501.10645764  energy(sigma->0) =     2501.10645764


--------------------------------------------------------------------------------------------------------




--------------------------------------- Iteration      1(   2)  ---------------------------------------


     EDDAV:  cpu time   15.0411: real time   15.1699
 BZINTS: Fermi energy: -1.347708;303.000000 electrons
         Band energy:***********;  BLOECHL correction: -0.066908
       DOS:  cpu time    0.0114: real time    0.0117
    --------------------------------------------
      LOOP:  cpu time   15.0525: real time   15.1816

 eigenvalue-minimisations  :  5480
 total energy-change (2. order) :-0.2749577E+04  (-0.2624254E+04)
 number of electron     303.0000000 magnetization       2.0000000
 augmentation part      303.0000000 magnetization       2.0000000

 Free energy of the ion-electron system (eV)
  ---------------------------------------------------
  alpha Z        PSCENC =       167.30009242
  Ewald energy   TEWEN  =     28897.86585108
  -Hartree energ DENC   =    -38576.53103715
  -exchange      EXHF   =         0.00000000
  -V(xc)+E(xc)   XCENC  =      1022.18666075
  PAW double counting   =      9455.23336183    -9546.47664214
  entropy T*S    EENTRO =         0.00000000
  eigenvalues    EBANDS =     -4312.80159844
  atomic energy  EATOM  =     12644.75315347
  Solvation  Ediel_sol  =         0.00000000
  ---------------------------------------------------
  free energy    TOTEN  =      -248.47015818 eV

  energy without entropy =     -248.47015818  energy(sigma->0) =     -248.47015818


--------------------------------------------------------------------------------------------------------




--------------------------------------- Iteration      1(   3)  ---------------------------------------


     EDDAV:  cpu time   12.7382: real time   12.8394
 BZINTS: Fermi energy: -4.494322;303.000000 electrons
         Band energy:***********;  BLOECHL correction: -0.035761
       DOS:  cpu time    0.0114: real time    0.0115
    --------------------------------------------
      LOOP:  cpu time   12.7497: real time   12.8509

 eigenvalue-minimisations  :  4576
 total energy-change (2. order) :-0.4542206E+03  (-0.4507627E+03)
 number of electron     303.0000000 magnetization       2.0000000
 augmentation part      303.0000000 magnetization       2.0000000

 Free energy of the ion-electron system (eV)
  ---------------------------------------------------
  alpha Z        PSCENC =       167.30009242
  Ewald energy   TEWEN  =     28897.86585108
  -Hartree energ DENC   =    -38576.53103715
  -exchange      EXHF   =         0.00000000
  -V(xc)+E(xc)   XCENC  =      1022.18666075
  PAW double counting   =      9455.23336183    -9546.47664214
  entropy T*S    EENTRO =         0.00000000
  eigenvalues    EBANDS =     -4767.02218361
  atomic energy  EATOM  =     12644.75315347
  Solvation  Ediel_sol  =         0.00000000
  ---------------------------------------------------
  free energy    TOTEN  =      -702.69074335 eV

  energy without entropy =     -702.69074335  energy(sigma->0) =     -702.69074335


--------------------------------------------------------------------------------------------------------




--------------------------------------- Iteration      1(   4)  ---------------------------------------


     EDDAV:  cpu time   12.8135: real time   12.9220
 BZINTS: Fermi energy: -4.670925;303.000000 electrons
         Band energy:***********;  BLOECHL correction: -0.026879
       DOS:  cpu time    0.0115: real time    0.0116
    --------------------------------------------
      LOOP:  cpu time   12.8250: real time   12.9335

 eigenvalue-minimisations  :  4664
 total energy-change (2. order) :-0.1626734E+02  (-0.1613120E+02)
 number of electron     303.0000000 magnetization       2.0000000
 augmentation part      303.0000000 magnetization       2.0000000

 Free energy of the ion-electron system (eV)
  ---------------------------------------------------
  alpha Z        PSCENC =       167.30009242
  Ewald energy   TEWEN  =     28897.86585108
  -Hartree energ DENC   =    -38576.53103715
  -exchange      EXHF   =         0.00000000
  -V(xc)+E(xc)   XCENC  =      1022.18666075
  PAW double counting   =      9455.23336183    -9546.47664214
  entropy T*S    EENTRO =         0.00000000
  eigenvalues    EBANDS =     -4783.28952707
  atomic energy  EATOM  =     12644.75315347
  Solvation  Ediel_sol  =         0.00000000
  ---------------------------------------------------
  free energy    TOTEN  =      -718.95808680 eV

  energy without entropy =     -718.95808680  energy(sigma->0) =     -718.95808680


--------------------------------------------------------------------------------------------------------




--------------------------------------- Iteration      1(   5)  ---------------------------------------


     EDDAV:  cpu time   13.9971: real time   14.0664
 BZINTS: Fermi energy: -4.681389;303.000000 electrons
         Band energy:***********;  BLOECHL correction: -0.026278
       DOS:  cpu time    0.0111: real time    0.0112
    CHARGE:  cpu time    0.1857: real time    0.1918
    MIXING:  cpu time    0.0035: real time    0.0049
    --------------------------------------------
      LOOP:  cpu time   14.1975: real time   14.2742

 eigenvalue-minimisations  :  5272
 total energy-change (2. order) :-0.5335309E+00  (-0.5324396E+00)
 number of electron     302.9999978 magnetization       0.0369059
 augmentation part       12.3791707 magnetization       0.0705357

 Broyden mixing:
  rms(total) = 0.47637E+01    rms(broyden)= 0.47631E+01
  rms(prec ) = 0.55184E+01
  weight for this iteration     100.00

 Free energy of the ion-electron system (eV)
  ---------------------------------------------------
  alpha Z        PSCENC =       167.30009242
  Ewald energy   TEWEN  =     28897.86585108
  -Hartree energ DENC   =    -38576.53103715
  -exchange      EXHF   =         0.00000000
  -V(xc)+E(xc)   XCENC  =      1022.18666075
  PAW double counting   =      9455.23336183    -9546.47664214
  entropy T*S    EENTRO =         0.00000000
  eigenvalues    EBANDS =     -4783.82305799
  atomic energy  EATOM  =     12644.75315347
  Solvation  Ediel_sol  =         0.00000000
  ---------------------------------------------------
  free energy    TOTEN  =      -719.49161773 eV

  energy without entropy =     -719.49161773  energy(sigma->0) =     -719.49161773


--------------------------------------------------------------------------------------------------------




--------------------------------------- Iteration      1(   6)  ---------------------------------------


    POTLOK:  cpu time    0.1394: real time    0.1432
    SETDIJ:  cpu time    0.0101: real time    0.0101
     EDDAV:  cpu time   12.4945: real time   12.5765
 BZINTS: Fermi energy: -5.523864;303.000000 electrons
         Band energy:***********;  BLOECHL correction: -0.019354
       DOS:  cpu time    0.0119: real time    0.0120
    CHARGE:  cpu time    0.1640: real time    0.1699
    MIXING:  cpu time    0.0033: real time    0.0036
    --------------------------------------------
      LOOP:  cpu time   12.8232: real time   12.9153

 eigenvalue-minimisations  :  4840
 total energy-change (2. order) :-0.1934852E+00  (-0.8901175E+01)
 number of electron     303.0000020 magnetization       0.0321498
 augmentation part       18.0137286 magnetization       0.0312316

 Broyden mixing:
  rms(total) = 0.74451E+01    rms(broyden)= 0.74448E+01
  rms(prec ) = 0.85206E+01
  weight for this iteration     100.00

 eigenvalues of (default mixing * dielectric matrix)
  average eigenvalue GAMMA=   0.2832
  0.2832

 Free energy of the ion-electron system (eV)
  ---------------------------------------------------
  alpha Z        PSCENC =       167.30009242
  Ewald energy   TEWEN  =     28897.86585108
  -Hartree energ DENC   =    -38952.16110214
  -exchange      EXHF   =         0.00000000
  -V(xc)+E(xc)   XCENC  =      1034.96555721
  PAW double counting   =     13242.53993775   -13333.76312495
  entropy T*S    EENTRO =         0.00000000
  eigenvalues    EBANDS =     -4421.18546776
  atomic energy  EATOM  =     12644.75315347
  Solvation  Ediel_sol  =         0.00000000
  ---------------------------------------------------
  free energy    TOTEN  =      -719.68510291 eV

  energy without entropy =     -719.68510291  energy(sigma->0) =     -719.68510291


--------------------------------------------------------------------------------------------------------




--------------------------------------- Iteration      1(   7)  ---------------------------------------


    POTLOK:  cpu time    0.1390: real time    0.1456
    SETDIJ:  cpu time    0.0105: real time    0.0105
     EDDAV:  cpu time   13.0965: real time   13.1805
 BZINTS: Fermi energy: -4.139672;303.000000 electrons
         Band energy:***********;  BLOECHL correction: -0.021373
       DOS:  cpu time    0.0120: real time    0.0121
    CHARGE:  cpu time    0.1643: real time    0.1680
    MIXING:  cpu time    0.0039: real time    0.0042
    --------------------------------------------
      LOOP:  cpu time   13.4261: real time   13.5208

 eigenvalue-minimisations  :  5008
 total energy-change (2. order) : 0.4609583E+02  (-0.6368037E+01)
 number of electron     303.0000011 magnetization       0.5215292
 augmentation part       14.5274344 magnetization       0.3532352

 Broyden mixing:
  rms(total) = 0.26758E+01    rms(broyden)= 0.26752E+01
  rms(prec ) = 0.29532E+01
  weight for this iteration     100.00

 eigenvalues of (default mixing * dielectric matrix)
  average eigenvalue GAMMA=   0.6300
  0.9404  0.3196

 Free energy of the ion-electron system (eV)
  ---------------------------------------------------
  alpha Z        PSCENC =       167.30009242
  Ewald energy   TEWEN  =     28897.86585108
  -Hartree energ DENC   =    -39093.84677494
  -exchange      EXHF   =         0.00000000
  -V(xc)+E(xc)   XCENC  =      1039.45270372
  PAW double counting   =     14484.88730292   -14580.65047694
  entropy T*S    EENTRO =         0.00000000
  eigenvalues    EBANDS =     -4233.35112032
  atomic energy  EATOM  =     12644.75315347
  Solvation  Ediel_sol  =         0.00000000
  ---------------------------------------------------
  free energy    TOTEN  =      -673.58926858 eV

  energy without entropy =     -673.58926858  energy(sigma->0) =     -673.58926858


--------------------------------------------------------------------------------------------------------




--------------------------------------- Iteration      1(   8)  ---------------------------------------


    POTLOK:  cpu time    0.1622: real time    0.1649
    SETDIJ:  cpu time    0.0106: real time    0.0107
     EDDAV:  cpu time   12.8818: real time   12.9541
 BZINTS: Fermi energy: -2.494638;303.000000 electrons
         Band energy:***********;  BLOECHL correction: -0.038912
       DOS:  cpu time    0.0123: real time    0.0123
    CHARGE:  cpu time    0.1631: real time    0.1647
    MIXING:  cpu time    0.0037: real time    0.0037
    --------------------------------------------
      LOOP:  cpu time   13.2337: real time   13.3104

 eigenvalue-minimisations  :  4912
 total energy-change (2. order) : 0.3367754E+01  (-0.3716305E+01)
 number of electron     302.9999987 magnetization       0.3537891
 augmentation part       12.2238301 magnetization       0.1985084

 Broyden mixing:
  rms(total) = 0.26446E+01    rms(broyden)= 0.26438E+01
  rms(prec ) = 0.31208E+01
  weight for this iteration     100.00

 eigenvalues of (default mixing * dielectric matrix)
  average eigenvalue GAMMA=   1.1220
  2.5764  0.3949  0.3949

 Free energy of the ion-electron system (eV)
  ---------------------------------------------------
  alpha Z        PSCENC =       167.30009242
  Ewald energy   TEWEN  =     28897.86585108
  -Hartree energ DENC   =    -39381.15609687
  -exchange      EXHF   =         0.00000000
  -V(xc)+E(xc)   XCENC  =      1049.17955779
  PAW double counting   =     18145.05729074   -18244.03317161
  entropy T*S    EENTRO =         0.00000000
  eigenvalues    EBANDS =     -3949.18819124
  atomic energy  EATOM  =     12644.75315347
  Solvation  Ediel_sol  =         0.00000000
  ---------------------------------------------------
  free energy    TOTEN  =      -670.22151422 eV

  energy without entropy =     -670.22151422  energy(sigma->0) =     -670.22151422


--------------------------------------------------------------------------------------------------------




--------------------------------------- Iteration      1(   9)  ---------------------------------------


    POTLOK:  cpu time    0.1347: real time    0.1377
    SETDIJ:  cpu time    0.0086: real time    0.0087
     EDDAV:  cpu time   12.0979: real time   12.1615
 BZINTS: Fermi energy: -2.776174;303.000000 electrons
         Band energy:***********;  BLOECHL correction: -0.079998
       DOS:  cpu time    0.0109: real time    0.0110
    CHARGE:  cpu time    0.1659: real time    0.1667
    MIXING:  cpu time    0.0036: real time    0.0036
    --------------------------------------------
      LOOP:  cpu time   12.4217: real time   12.4892

 eigenvalue-minimisations  :  4624
 total energy-change (2. order) : 0.6158180E+01  (-0.2400480E+01)
 number of electron     303.0000015 magnetization       0.0222698
 augmentation part       14.9387326 magnetization      -0.0323236

 Broyden mixing:
  rms(total) = 0.20172E+01    rms(broyden)= 0.20156E+01
  rms(prec ) = 0.25693E+01
  weight for this iteration     100.00

 eigenvalues of (default mixing * dielectric matrix)
  average eigenvalue GAMMA=   1.0781
  2.7880  0.8181  0.3532  0.3532

 Free energy of the ion-electron system (eV)
  ---------------------------------------------------
  alpha Z        PSCENC =       167.30009242
  Ewald energy   TEWEN  =     28897.86585108
  -Hartree energ DENC   =    -39799.44185258
  -exchange      EXHF   =         0.00000000
  -V(xc)+E(xc)   XCENC  =      1064.37525189
  PAW double counting   =     25916.30313841   -26018.62743889
  entropy T*S    EENTRO =         0.00000000
  eigenvalues    EBANDS =     -3536.59153005
  atomic energy  EATOM  =     12644.75315347
  Solvation  Ediel_sol  =         0.00000000
  ---------------------------------------------------
  free energy    TOTEN  =      -664.06333424 eV

  energy without entropy =     -664.06333424  energy(sigma->0) =     -664.06333424


--------------------------------------------------------------------------------------------------------




--------------------------------------- Iteration      1(  10)  ---------------------------------------


    POTLOK:  cpu time    0.1255: real time    0.1278
    SETDIJ:  cpu time    0.0105: real time    0.0106
     EDDAV:  cpu time   13.1969: real time   13.2703
 BZINTS: Fermi energy: -1.217921;303.000000 electrons
         Band energy:***********;  BLOECHL correction: -0.071297
       DOS:  cpu time    0.0119: real time    0.0119
    CHARGE:  cpu time    0.1609: real time    0.1613
    MIXING:  cpu time    0.0038: real time    0.0039
    --------------------------------------------
      LOOP:  cpu time   13.5095: real time   13.5858

 eigenvalue-minimisations  :  5176
 total energy-change (2. order) : 0.1843868E+01  (-0.2137458E+01)
 number of electron     303.0000006 magnetization      -0.0228105
 augmentation part       12.5942490 magnetization      -0.0797886

 Broyden mixing:
  rms(total) = 0.11656E+01    rms(broyden)= 0.11636E+01
  rms(prec ) = 0.13865E+01
  weight for this iteration     100.00

 eigenvalues of (default mixing * dielectric matrix)
  average eigenvalue GAMMA=   1.1870
  3.4277  1.2145  0.6279  0.3323  0.3323

 Free energy of the ion-electron system (eV)
  ---------------------------------------------------
  alpha Z        PSCENC =       167.30009242
  Ewald energy   TEWEN  =     28897.86585108
  -Hartree energ DENC   =    -39834.50091767
  -exchange      EXHF   =         0.00000000
  -V(xc)+E(xc)   XCENC  =      1065.75684750
  PAW double counting   =     27960.29746276   -28063.11891172
  entropy T*S    EENTRO =         0.00000000
  eigenvalues    EBANDS =     -3500.57304434
  atomic energy  EATOM  =     12644.75315347
  Solvation  Ediel_sol  =         0.00000000
  ---------------------------------------------------
  free energy    TOTEN  =      -662.21946650 eV

  energy without entropy =     -662.21946650  energy(sigma->0) =     -662.21946650


--------------------------------------------------------------------------------------------------------




--------------------------------------- Iteration      1(  11)  ---------------------------------------


    POTLOK:  cpu time    0.1109: real time    0.1139
    SETDIJ:  cpu time    0.0105: real time    0.0105
     EDDAV:  cpu time   13.6864: real time   13.7647
 BZINTS: Fermi energy: -1.741185;303.000000 electrons
         Band energy:***********;  BLOECHL correction: -0.013986
       DOS:  cpu time    0.0116: real time    0.0117
    CHARGE:  cpu time    0.1647: real time    0.1658
    MIXING:  cpu time    0.0040: real time    0.0040
    --------------------------------------------
      LOOP:  cpu time   13.9881: real time   14.0706

 eigenvalue-minimisations  :  5384
 total energy-change (2. order) : 0.7062485E+00  (-0.1516091E+00)
 number of electron     303.0000012 magnetization      -0.6640445
 augmentation part       13.4076080 magnetization      -0.2626418

 Broyden mixing:
  rms(total) = 0.69955E+00    rms(broyden)= 0.69845E+00
  rms(prec ) = 0.71733E+00
  weight for this iteration     100.00

 eigenvalues of (default mixing * dielectric matrix)
  average eigenvalue GAMMA=   1.1231
  3.4612  1.3725  0.9010  0.3440  0.3440  0.3158

 Free energy of the ion-electron system (eV)
  ---------------------------------------------------
  alpha Z        PSCENC =       167.30009242
  Ewald energy   TEWEN  =     28897.86585108
  -Hartree energ DENC   =    -39820.93135648
  -exchange      EXHF   =         0.00000000
  -V(xc)+E(xc)   XCENC  =      1065.58726028
  PAW double counting   =     29699.83714980   -29802.17227051
  entropy T*S    EENTRO =         0.00000000
  eigenvalues    EBANDS =     -3513.75309808
  atomic energy  EATOM  =     12644.75315347
  Solvation  Ediel_sol  =         0.00000000
  ---------------------------------------------------
  free energy    TOTEN  =      -661.51321802 eV

  energy without entropy =     -661.51321802  energy(sigma->0) =     -661.51321802


--------------------------------------------------------------------------------------------------------




--------------------------------------- Iteration      1(  12)  ---------------------------------------


    POTLOK:  cpu time    0.1466: real time    0.1489
    SETDIJ:  cpu time    0.0091: real time    0.0101
     EDDAV:  cpu time   12.3039: real time   12.6784
 BZINTS: Fermi energy: -2.032006;303.000000 electrons
         Band energy:***********;  BLOECHL correction:  0.000000
       DOS:  cpu time    0.0070: real time    0.0076
    CHARGE:  cpu time    0.1619: real time    0.1646
    MIXING:  cpu time    0.0040: real time    0.0040
    --------------------------------------------
      LOOP:  cpu time   12.6324: real time   13.0135

 eigenvalue-minimisations  :  4712
 total energy-change (2. order) :-0.2823297E+00  (-0.5914842E-01)
 number of electron     303.0000011 magnetization      -0.8887657
 augmentation part       13.6631209 magnetization      -0.5441609

 Broyden mixing:
  rms(total) = 0.65144E+00    rms(broyden)= 0.65104E+00
  rms(prec ) = 0.71922E+00
  weight for this iteration     100.00

 eigenvalues of (default mixing * dielectric matrix)
  average eigenvalue GAMMA=   1.2264
  3.6194  1.7761  1.2153  0.6538  0.6538  0.3334  0.3334

 Free energy of the ion-electron system (eV)
  ---------------------------------------------------
  alpha Z        PSCENC =       167.30009242
  Ewald energy   TEWEN  =     28897.86585108
  -Hartree energ DENC   =    -39782.11748591
  -exchange      EXHF   =         0.00000000
  -V(xc)+E(xc)   XCENC  =      1064.47191163
  PAW double counting   =     30599.98763135   -30701.67009962
  entropy T*S    EENTRO =         0.00000000
  eigenvalues    EBANDS =     -3552.38660216
  atomic energy  EATOM  =     12644.75315347
  Solvation  Ediel_sol  =         0.00000000
  ---------------------------------------------------
  free energy    TOTEN  =      -661.79554774 eV

  energy without entropy =     -661.79554774  energy(sigma->0) =     -661.79554774


--------------------------------------------------------------------------------------------------------




--------------------------------------- Iteration      1(  13)  ---------------------------------------


    POTLOK:  cpu time    0.1334: real time    0.1358
    SETDIJ:  cpu time    0.0378: real time    0.0382
     EDDAV:  cpu time   12.1675: real time   12.2391
 BZINTS: Fermi energy: -2.124990;303.000000 electrons
         Band energy:***********;  BLOECHL correction: -0.000257
       DOS:  cpu time    0.0102: real time    0.0102
    CHARGE:  cpu time    0.1653: real time    0.1664
    MIXING:  cpu time    0.0041: real time    0.0041
    --------------------------------------------
      LOOP:  cpu time   12.5183: real time   12.5938

 eigenvalue-minimisations  :  4656
 total energy-change (2. order) :-0.1615009E+00  (-0.3882909E-01)
 number of electron     303.0000009 magnetization      -0.8527025
 augmentation part       13.6883473 magnetization      -0.7509022

 Broyden mixing:
  rms(total) = 0.47248E+00    rms(broyden)= 0.47240E+00
  rms(prec ) = 0.55783E+00
  weight for this iteration     100.00

 eigenvalues of (default mixing * dielectric matrix)
  average eigenvalue GAMMA=   1.2307
  3.6320  1.6671  1.6671  0.8370  0.8370  0.3339  0.3339  0.5380

 Free energy of the ion-electron system (eV)
  ---------------------------------------------------
  alpha Z        PSCENC =       167.30009242
  Ewald energy   TEWEN  =     28897.86585108
  -Hartree energ DENC   =    -39749.69983360
  -exchange      EXHF   =         0.00000000
  -V(xc)+E(xc)   XCENC  =      1063.70890206
  PAW double counting   =     31662.02948572   -31763.12202164
  entropy T*S    EENTRO =         0.00000000
  eigenvalues    EBANDS =     -3584.79267814
  atomic energy  EATOM  =     12644.75315347
  Solvation  Ediel_sol  =         0.00000000
  ---------------------------------------------------
  free energy    TOTEN  =      -661.95704862 eV

  energy without entropy =     -661.95704862  energy(sigma->0) =     -661.95704862


--------------------------------------------------------------------------------------------------------




--------------------------------------- Iteration      1(  14)  ---------------------------------------


    POTLOK:  cpu time    0.1539: real time    0.1568
    SETDIJ:  cpu time    0.0100: real time    0.0104
     EDDAV:  cpu time   12.7988: real time   12.8753
 BZINTS: Fermi energy: -2.087721;303.000000 electrons
         Band energy:***********;  BLOECHL correction: -0.003265
       DOS:  cpu time    0.0110: real time    0.0112
    CHARGE:  cpu time    0.1631: real time    0.1636
    MIXING:  cpu time    0.0043: real time    0.0043
    --------------------------------------------
      LOOP:  cpu time   13.1411: real time   13.2216

 eigenvalue-minimisations  :  4968
 total energy-change (2. order) : 0.2219949E-01  (-0.1124522E-01)
 number of electron     303.0000007 magnetization      -0.8858594
 augmentation part       13.5963614 magnetization      -0.8635290

 Broyden mixing:
  rms(total) = 0.35989E+00    rms(broyden)= 0.35983E+00
  rms(prec ) = 0.41500E+00
  weight for this iteration     100.00

 eigenvalues of (default mixing * dielectric matrix)
  average eigenvalue GAMMA=   1.3488
  3.6547  2.1696  2.1696  1.1172  1.1172  0.3336  0.3336  0.6220  0.6220

 Free energy of the ion-electron system (eV)
  ---------------------------------------------------
  alpha Z        PSCENC =       167.30009242
  Ewald energy   TEWEN  =     28897.86585108
  -Hartree energ DENC   =    -39751.17800859
  -exchange      EXHF   =         0.00000000
  -V(xc)+E(xc)   XCENC  =      1063.79622093
  PAW double counting   =     31745.60956681   -31846.68133498
  entropy T*S    EENTRO =         0.00000000
  eigenvalues    EBANDS =     -3583.40039027
  atomic energy  EATOM  =     12644.75315347
  Solvation  Ediel_sol  =         0.00000000
  ---------------------------------------------------
  free energy    TOTEN  =      -661.93484913 eV

  energy without entropy =     -661.93484913  energy(sigma->0) =     -661.93484913


--------------------------------------------------------------------------------------------------------




--------------------------------------- Iteration      1(  15)  ---------------------------------------


    POTLOK:  cpu time    0.1336: real time    0.1359
    SETDIJ:  cpu time    0.0084: real time    0.0086
     EDDAV:  cpu time   12.2587: real time   12.3286
 BZINTS: Fermi energy: -2.076987;303.000000 electrons
         Band energy:***********;  BLOECHL correction: -0.003650
       DOS:  cpu time    0.0106: real time    0.0106
    CHARGE:  cpu time    0.1617: real time    0.1621
    MIXING:  cpu time    0.0043: real time    0.0045
    --------------------------------------------
      LOOP:  cpu time   12.5773: real time   12.6504

 eigenvalue-minimisations  :  4632
 total energy-change (2. order) :-0.4194133E-01  (-0.9367248E-02)
 number of electron     303.0000006 magnetization      -0.9026058
 augmentation part       13.6035057 magnetization      -1.0033908

 Broyden mixing:
  rms(total) = 0.32000E+00    rms(broyden)= 0.31995E+00
  rms(prec ) = 0.38165E+00
  weight for this iteration     100.00

 eigenvalues of (default mixing * dielectric matrix)
  average eigenvalue GAMMA=   1.2957
  3.5890  2.1478  2.1478  1.3002  1.3002  0.3337  0.3337  0.6438  0.6438  0.5173

 Free energy of the ion-electron system (eV)
  ---------------------------------------------------
  alpha Z        PSCENC =       167.30009242
  Ewald energy   TEWEN  =     28897.86585108
  -Hartree energ DENC   =    -39751.75126987
  -exchange      EXHF   =         0.00000000
  -V(xc)+E(xc)   XCENC  =      1063.91505092
  PAW double counting   =     31811.84665649   -31912.82717970
  entropy T*S    EENTRO =         0.00000000
  eigenvalues    EBANDS =     -3583.07914528
  atomic energy  EATOM  =     12644.75315347
  Solvation  Ediel_sol  =         0.00000000
  ---------------------------------------------------
  free energy    TOTEN  =      -661.97679045 eV

  energy without entropy =     -661.97679045  energy(sigma->0) =     -661.97679045


--------------------------------------------------------------------------------------------------------




--------------------------------------- Iteration      1(  16)  ---------------------------------------


    POTLOK:  cpu time    0.1430: real time    0.1451
    SETDIJ:  cpu time    0.0101: real time    0.0101
     EDDAV:  cpu time   12.6687: real time   12.7473
 BZINTS: Fermi energy: -2.082536;303.000000 electrons
         Band energy:***********;  BLOECHL correction: -0.003742
       DOS:  cpu time    0.0110: real time    0.0110
    CHARGE:  cpu time    0.1626: real time    0.1662
    MIXING:  cpu time    0.0044: real time    0.0047
    --------------------------------------------
      LOOP:  cpu time   12.9998: real time   13.0845

 eigenvalue-minimisations  :  4808
 total energy-change (2. order) : 0.1370239E-01  (-0.2580336E-02)
 number of electron     303.0000006 magnetization      -0.9486337
 augmentation part       13.5615296 magnetization      -1.0924768

 Broyden mixing:
  rms(total) = 0.24181E+00    rms(broyden)= 0.24180E+00
  rms(prec ) = 0.29400E+00
  weight for this iteration     100.00

 eigenvalues of (default mixing * dielectric matrix)
  average eigenvalue GAMMA=   1.3300
  3.6133  2.3995  2.3995  1.5543  1.2137  0.3337  0.3337  0.7937  0.7937  0.5976
  0.5976

 Free energy of the ion-electron system (eV)
  ---------------------------------------------------
  alpha Z        PSCENC =       167.30009242
  Ewald energy   TEWEN  =     28897.86585108
  -Hartree energ DENC   =    -39748.92693428
  -exchange      EXHF   =         0.00000000
  -V(xc)+E(xc)   XCENC  =      1063.88303270
  PAW double counting   =     31825.67353010   -31926.60349663
  entropy T*S    EENTRO =         0.00000000
  eigenvalues    EBANDS =     -3585.90831693
  atomic energy  EATOM  =     12644.75315347
  Solvation  Ediel_sol  =         0.00000000
  ---------------------------------------------------
  free energy    TOTEN  =      -661.96308806 eV

  energy without entropy =     -661.96308806  energy(sigma->0) =     -661.96308806


[...]
   0.912E+01 -.135E+01 0.448E+01   -.904E+01 0.127E+01 -.443E+01   -.715E-01 0.674E-01 -.491E-01   -.238E-01 -.317E-02 -.475E-02
   0.291E+02 0.105E+02 0.151E+02   -.282E+02 -.109E+02 -.157E+02   -.908E+00 0.518E+00 0.645E+00   -.605E-01 -.171E-01 -.247E-01
   0.277E+02 -.932E+01 0.157E+02   -.268E+02 0.952E+01 -.163E+02   -.874E+00 -.326E+00 0.642E+00   -.582E-01 0.904E-02 -.253E-01
   -.291E+02 0.104E+02 0.145E+02   0.282E+02 -.108E+02 -.151E+02   0.923E+00 0.511E+00 0.607E+00   0.604E-01 -.179E-01 -.246E-01
   -.277E+02 -.907E+01 0.151E+02   0.268E+02 0.926E+01 -.157E+02   0.889E+00 -.316E+00 0.602E+00   0.580E-01 0.886E-02 -.252E-01
   -.858E+01 0.738E+00 0.709E+01   0.841E+01 -.720E+00 -.704E+01   0.157E+00 0.111E-01 -.409E-01   0.189E-01 0.841E-03 -.477E-02
   -.873E+01 -.121E+01 0.717E+01   0.864E+01 0.113E+01 -.713E+01   0.755E-01 0.683E-01 -.381E-01   0.244E-01 -.304E-02 -.472E-02
   -.463E+01 -.423E+01 0.776E+01   0.458E+01 0.422E+01 -.780E+01   0.302E-01 -.566E-02 0.442E-01   0.415E-02 0.114E-01 -.268E-02
   -.272E+01 -.358E+01 0.684E+01   0.277E+01 0.360E+01 -.682E+01   -.655E-01 -.132E-01 -.189E-01   0.130E-02 0.159E-02 -.209E-02
   0.503E+01 -.430E+01 0.585E+01   -.498E+01 0.429E+01 -.589E+01   -.263E-01 -.675E-02 0.326E-01   -.375E-02 0.121E-01 -.266E-02
   0.299E+01 -.373E+01 0.542E+01   -.304E+01 0.375E+01 -.540E+01   0.665E-01 -.125E-01 -.223E-01   -.837E-03 0.143E-02 -.207E-02
   0.165E+02 -.714E+01 0.670E+01   -.162E+02 0.682E+01 -.678E+01   -.227E+00 0.309E+00 0.995E-01   -.254E-01 0.648E-02 -.670E-02
   0.975E+01 -.966E+01 0.741E+01   -.996E+01 0.939E+01 -.737E+01   0.201E+00 0.239E+00 -.396E-01   -.208E-01 0.222E-01 -.575E-02
   -.243E+01 -.346E+02 0.271E+02   0.895E+01 0.301E+02 -.261E+02   -.625E+01 0.429E+01 -.101E+01   -.950E-01 0.925E-01 -.699E-01
   0.483E+01 -.116E+02 0.134E+02   -.551E+01 0.947E+01 -.136E+02   0.717E+00 0.209E+01 0.241E+00   -.361E-01 0.352E-01 -.222E-01
   0.178E+01 -.344E+02 0.247E+02   -.830E+01 0.299E+02 -.237E+02   0.625E+01 0.430E+01 -.106E+01   0.937E-01 0.934E-01 -.697E-01
   -.520E+01 -.114E+02 0.124E+02   0.589E+01 0.924E+01 -.126E+02   -.721E+00 0.210E+01 0.231E+00   0.357E-01 0.356E-01 -.221E-01
   -.163E+02 -.692E+01 0.824E+01   0.160E+02 0.660E+01 -.832E+01   0.235E+00 0.312E+00 0.106E+00   0.264E-01 0.686E-02 -.661E-02
   -.968E+01 -.932E+01 0.839E+01   0.989E+01 0.904E+01 -.835E+01   -.201E+00 0.240E+00 -.411E-01   0.210E-01 0.229E-01 -.572E-02
   -.569E+01 -.304E+01 0.821E+01   0.576E+01 0.303E+01 -.824E+01   -.114E+00 -.230E-01 0.328E-01   0.139E-01 0.132E-01 -.273E-02
   -.443E+01 -.497E+01 0.802E+01   0.467E+01 0.499E+01 -.803E+01   -.230E+00 -.308E-01 0.878E-02   0.102E-01 -.236E-02 -.179E-02
   0.104E+00 -.241E+01 0.626E+01   -.102E+00 0.249E+01 -.628E+01   -.384E-03 -.755E-01 0.234E-01   0.844E-03 -.255E-03 -.163E-02
   0.260E-01 -.177E+01 0.619E+01   -.276E-01 0.180E+01 -.618E+01   -.490E-03 -.551E-01 -.172E-01   0.119E-03 0.470E-02 -.167E-02
   0.587E+01 -.327E+01 0.667E+01   -.593E+01 0.326E+01 -.670E+01   0.117E+00 -.208E-01 0.238E-01   -.144E-01 0.121E-01 -.271E-02
   0.448E+01 -.522E+01 0.707E+01   -.472E+01 0.524E+01 -.708E+01   0.230E+00 -.296E-01 0.802E-02   -.102E-01 -.275E-02 -.177E-02
   0.745E+01 -.527E+01 0.113E+02   -.755E+01 0.451E+01 -.114E+02   0.156E+00 0.727E+00 0.869E-01   -.147E-01 0.292E-01 -.806E-02
   0.131E+02 -.890E+01 0.929E+01   -.144E+02 0.831E+01 -.933E+01   0.131E+01 0.614E+00 0.449E-01   -.299E-02 0.112E-01 -.334E-02
   -.175E+00 0.155E+02 0.567E+01   0.180E+00 -.225E+02 -.504E+01   -.342E-02 0.706E+01 -.621E+00   -.143E-03 0.377E-01 -.176E-01
   -.809E-01 -.946E+01 0.921E+01   0.816E-01 0.883E+01 -.931E+01   -.183E-02 0.642E+00 0.116E+00   0.375E-04 0.502E-01 -.781E-02
   -.751E+01 -.501E+01 0.111E+02   0.761E+01 0.424E+01 -.111E+02   -.154E+00 0.728E+00 0.829E-01   0.143E-01 0.294E-01 -.800E-02
   -.131E+02 -.862E+01 0.896E+01   0.145E+02 0.803E+01 -.900E+01   -.131E+01 0.613E+00 0.431E-01   0.311E-02 0.116E-01 -.331E-02
   -.150E+01 0.693E+01 -.615E+03   0.160E+01 -.683E+01 0.596E+03   -.112E+00 -.673E-01 0.192E+02   -.324E-02 -.320E-01 -.117E+00
   -.637E+02 -.144E+03 0.107E+03   0.710E+02 0.160E+03 -.126E+03   -.774E+01 -.175E+02 0.204E+02   -.180E-03 -.798E-03 0.114E-01
   0.557E+02 0.126E+03 -.139E+03   -.714E+02 -.162E+03 0.181E+03   0.162E+02 0.366E+02 -.426E+02   -.906E-03 -.244E-02 0.903E-02
 -----------------------------------------------------------------------------------------------
   -.836E+01 -.188E+02 0.383E+01   -.568E-13 0.227E-12 -.284E-13   0.836E+01 0.188E+02 -.304E+01   -.276E-02 -.135E-01 -.774E+00
 
 
 POSITION                                       TOTAL-FORCE (eV/Angst)
 -----------------------------------------------------------------------------------
      7.42031     12.75302      7.25364        -0.007637      0.010448      0.002488
     -0.00142      1.41899      7.25494        -0.005514     -0.029641      0.003881
      2.47828      0.02583      7.25202        -0.002410     -0.001282     -0.001841
      2.47875      1.44577      7.26278         0.014793     -0.006591      0.000236
      4.95391      0.02564      7.25501         0.003393      0.001256     -0.004994
      4.95354      1.44555      7.26480        -0.017899     -0.007671     -0.002674
      0.01188     12.75261      7.25493         0.008919      0.011987      0.002298
      7.43364      1.41860      7.25391         0.001770     -0.027177      0.003803
      2.49406     12.71930      7.26358         0.029632     -0.004166      0.002897
      9.92037      1.38404      7.25260        -0.021068      0.001563      0.001170
      4.93825     12.71952      7.26541        -0.029475     -0.005221      0.000570
     12.36874      1.38422      7.25562         0.019123      0.002353     -0.001752
     13.61066      2.10302      7.25633        -0.010528      0.018822     -0.001024
     -1.24941      3.52416      7.26648         0.026982      0.023487     -0.003256
      1.23657      2.14403      7.26439        -0.007612     -0.012260      0.003865
      1.23545      3.56711      7.28975         0.023078     -0.003316     -0.001191
      3.71617      2.17057      7.28023         0.000477     -0.049091      0.003390
      3.71621      3.59013      7.32699        -0.001166     -0.008112     -0.012213
      6.19571      2.14373      7.26518         0.008935     -0.011044      0.000860
      6.19677      3.56687      7.28947        -0.022573     -0.000661     -0.004239
      8.67837      2.10273      7.25187         0.012923      0.020432      0.001959
      8.68141      3.52392      7.25946        -0.029306      0.024387      0.002218
     11.14450      2.10543      7.25374         0.000997     -0.011367      0.000705
     11.14441      3.52416      7.25552        -0.002298      0.025865     -0.004361
     12.37599      4.23674      7.26379        -0.011839      0.007459     -0.005678
     -2.48743      5.65930      7.27033         0.001185     -0.018624     -0.007326
     -0.01684      4.24401      7.28959        -0.028536      0.007427      0.002147
     -0.04040      5.66236      7.31617         0.054578      0.014337      0.023051
      2.47397      4.31079      7.33947         0.012262     -0.026718     -0.002136
      2.43003      5.72383      7.42873         0.206277      0.122634     -0.062288
      4.95845      4.31085      7.34187        -0.013070     -0.021862     -0.006704
      5.00246      5.72395      7.43339        -0.206008      0.124972     -0.069394
      7.44889      4.24384      7.28417         0.029448      0.006107      0.002750
      7.47222      5.66228      7.30878        -0.057003      0.017411      0.025625
      9.91279      4.23662      7.25759         0.016353      0.006597     -0.001030
      9.91912      5.65927      7.26253        -0.000607     -0.017957     -0.000636
     11.14426      6.37385      7.26317         0.001353      0.004751     -0.007457
     -3.71265      7.79735      7.26329         0.000836     -0.006380     -0.004163
     -1.26585      6.37522      7.29401         0.000498      0.027470     -0.001981
     -1.26492      7.79629      7.29365        -0.019445     -0.020012     -0.008098
      1.18102      6.37309      7.36739        -0.062514      0.102943      0.003138
      1.18424      7.80759      7.36650        -0.072159     -0.107251      0.015568
      6.25125      6.37307      7.36693         0.066427      0.101112     -0.002675
      6.24803      7.80761      7.36608         0.068270     -0.105734      0.009653
      8.69754      6.37523      7.28262         0.001779      0.028093      0.005672
      8.69658      7.79630      7.28227         0.020107     -0.020662     -0.000653
     -4.93839      8.51238      7.26271        -0.014909     -0.011793     -0.000180
     -4.94385      9.93533      7.25766        -0.014999      0.006523     -0.001026
     -2.48687      8.51232      7.27049         0.018714     -0.010269     -0.007776
     -2.48122      9.93520      7.26379         0.014734      0.007359     -0.005986
     -0.03710      8.50914      7.31448         0.073657     -0.000188      0.023103
     -0.01399      9.92746      7.28893        -0.028581     -0.007020     -0.006447
      2.44068      8.45744      7.43318         0.195824     -0.095055     -0.069155
      2.47596      9.87474      7.33893         0.017809     -0.028269      0.010187
      4.99185      8.45737      7.43804        -0.193500     -0.102431     -0.076522
      4.95654      9.87471      7.34143        -0.020944     -0.027501      0.005780
      7.46890      8.50922      7.30712        -0.070846      0.001236      0.024532
      7.44605      9.92766      7.28342         0.026350     -0.009312     -0.005891
     -6.17979     10.64464      7.25948        -0.034334     -0.018775      0.000004
     -6.18923     12.06170      7.25188         0.018658     -0.014317     -0.001058
     -3.71251     10.64840      7.25526         0.002354      0.003994     -0.002531
     -3.71241     12.06982      7.25322        -0.001968     -0.016751     -0.004104
     -1.24514     10.64438      7.26639         0.036142     -0.017964     -0.004461
     -1.23553     12.06141      7.25632        -0.018965     -0.013960     -0.004050
      1.23541     10.60410      7.28859         0.038893     -0.006586     -0.009132
      1.25196     12.02283      7.26439        -0.008412      0.036289     -0.000309
      3.71625     10.59537      7.32711         0.001188      0.055148     -0.009472
      3.71618     12.00409      7.28113        -0.001098      0.061311      0.005329
      6.19683     10.60435      7.28806        -0.039064     -0.009274     -0.011919
      6.18031     12.02315      7.26483         0.006679      0.034183     -0.003531
      3.71394      7.08895      8.11561        -0.004423     -0.004350      0.262633
      3.71394      7.08895     14.09561        -0.491221     -1.109413      1.273577
      3.39292      6.36310     14.94095         0.490532      1.108069     -1.281778
 -----------------------------------------------------------------------------------
    total drift:                               -0.000046     -0.003956      0.017379


--------------------------------------------------------------------------------------------------------



  FREE ENERGIE OF THE ION-ELECTRON SYSTEM (eV)
  ---------------------------------------------------
  free  energy   TOTEN  =      -668.34000216 eV

  energy  without entropy=     -668.34000216  energy(sigma->0) =     -668.34000216
 


--------------------------------------------------------------------------------------------------------


    POTLOK:  cpu time    0.1453: real time    0.1458


--------------------------------------------------------------------------------------------------------


 stress matrix after NEB project (eV)
     -2.61707     -0.32870      0.39643
     -0.32870     -3.53417      0.90801
      0.39643      0.90801     -4.28537
  FORCES: max atom, RMS     1.763914    0.301406
  FORCE total and by dimension    2.575212    1.281778
  Stress total and by dimension    6.315312    4.285366
     LOOP+:  cpu time  344.6967: real time  347.2611
    4ORBIT:  cpu time    0.0000: real time    0.0000
 


 total charge     
 
# of ion       s       p       d       tot
------------------------------------------
    1        0.862   1.779   0.000   2.641
    2        0.864   1.785   0.000   2.649
    3        0.864   1.781   0.000   2.645
    4        0.864   1.783   0.000   2.647
    5        0.864   1.781   0.000   2.645
    6        0.864   1.783   0.000   2.647
    7        0.862   1.779   0.000   2.641
    8        0.864   1.785   0.000   2.649
    9        0.851   1.750   0.000   2.601
   10        0.862   1.789   0.000   2.651
   11        0.851   1.750   0.000   2.601
   12        0.862   1.789   0.000   2.651
   13        0.863   1.786   0.000   2.649
   14        0.865   1.787   0.000   2.652
   15        0.863   1.780   0.000   2.643
   16        0.864   1.770   0.000   2.634
   17        0.863   1.774   0.000   2.637
   18        0.864   1.773   0.000   2.637
   19        0.863   1.780   0.000   2.643
   20        0.864   1.770   0.000   2.634
   21        0.863   1.786   0.000   2.649
   22        0.865   1.787   0.000   2.652
   23        0.866   1.793   0.000   2.659
   24        0.865   1.794   0.000   2.660
   25        0.866   1.790   0.000   2.655
   26        0.868   1.797   0.000   2.665
   27        0.866   1.788   0.000   2.654
   28        0.870   1.802   0.000   2.672
   29        0.862   1.759   0.000   2.621
   30        0.874   1.686   0.000   2.561
   31        0.862   1.759   0.000   2.621
   32        0.874   1.686   0.000   2.560
   33        0.866   1.788   0.000   2.655
   34        0.870   1.802   0.000   2.672
   35        0.866   1.790   0.000   2.655
   36        0.868   1.797   0.000   2.665
   37        0.868   1.794   0.000   2.662
   38        0.867   1.797   0.000   2.664
   39        0.868   1.799   0.000   2.667
   40        0.868   1.798   0.000   2.666
   41        0.876   1.785   0.000   2.660
   42        0.875   1.782   0.000   2.658
   43        0.876   1.785   0.000   2.661
   44        0.875   1.782   0.000   2.658
   45        0.868   1.799   0.000   2.667
   46        0.868   1.798   0.000   2.666
   47        0.868   1.793   0.000   2.662
   48        0.865   1.790   0.000   2.655
   49        0.868   1.793   0.000   2.662
   50        0.865   1.790   0.000   2.655
   51        0.871   1.802   0.000   2.674
   52        0.866   1.795   0.000   2.661
   53        0.871   1.682   0.000   2.553
   54        0.859   1.766   0.000   2.625
   55        0.871   1.682   0.000   2.552
   56        0.859   1.766   0.000   2.625
   57        0.871   1.803   0.000   2.674
   58        0.866   1.795   0.000   2.661
   59        0.866   1.789   0.000   2.655
   60        0.864   1.786   0.000   2.650
   61        0.866   1.789   0.000   2.655
   62        0.864   1.787   0.000   2.651
   63        0.866   1.789   0.000   2.655
   64        0.864   1.786   0.000   2.650
   65        0.865   1.776   0.000   2.641
   66        0.861   1.786   0.000   2.647
   67        0.851   1.737   0.000   2.588
   68        1.210   2.686   0.000   3.895
   69        0.865   1.776   0.000   2.641
   70        0.861   1.786   0.000   2.647
   71        0.388   6.288   4.290  10.966
   72        1.035   1.404   0.000   2.439
   73        1.637   3.514   0.000   5.151
--------------------------------------------------
tot         63.986 136.611   4.290 204.887
 


 magnetization (x)
 
# of ion       s       p       d       tot
------------------------------------------
    1       -0.000  -0.001   0.000  -0.001
    2        0.000   0.006   0.000   0.007
    3       -0.000  -0.002   0.000  -0.003
    4        0.001   0.010   0.000   0.010
    5       -0.000  -0.002   0.000  -0.003
    6        0.001   0.010   0.000   0.011
    7       -0.000  -0.001   0.000  -0.001
    8        0.000   0.007   0.000   0.007
    9       -0.000  -0.001   0.000  -0.001
   10        0.000   0.002   0.000   0.003
   11       -0.000  -0.001   0.000  -0.001
   12        0.000   0.003   0.000   0.003
   13       -0.000  -0.001   0.000  -0.001
   14        0.000   0.005   0.000   0.005
   15       -0.000  -0.002   0.000  -0.002
   16        0.001   0.006   0.000   0.007
   17       -0.001  -0.006   0.000  -0.007
   18        0.002   0.032   0.000   0.034
   19       -0.000  -0.002   0.000  -0.002
   20        0.001   0.006   0.000   0.007
   21       -0.000  -0.001   0.000  -0.002
   22        0.000   0.005   0.000   0.005
   23       -0.000  -0.000   0.000  -0.000
   24        0.000   0.004   0.000   0.004
   25        0.000   0.003   0.000   0.003
   26        0.000   0.002   0.000   0.002
   27       -0.000  -0.001   0.000  -0.001
   28        0.001   0.006   0.000   0.006
   29       -0.001  -0.009   0.000  -0.010
   30        0.015   0.086   0.000   0.101
   31       -0.001  -0.009   0.000  -0.010
   32        0.015   0.085   0.000   0.100
   33       -0.000  -0.001   0.000  -0.001
   34        0.001   0.006   0.000   0.006
   35        0.000   0.003   0.000   0.003
   36        0.000   0.002   0.000   0.002
   37        0.000   0.002   0.000   0.002
   38        0.000   0.004   0.000   0.004
   39        0.000   0.006   0.000   0.006
   40        0.000   0.007   0.000   0.007
   41       -0.001   0.005   0.000   0.004
   42       -0.000   0.012   0.000   0.011
   43       -0.001   0.005   0.000   0.004
   44       -0.001   0.011   0.000   0.011
   45        0.000   0.006   0.000   0.006
   46        0.000   0.007   0.000   0.007
   47       -0.000  -0.002   0.000  -0.002
   48        0.001   0.010   0.000   0.011
   49       -0.000  -0.002   0.000  -0.002
   50        0.001   0.011   0.000   0.011
   51        0.000   0.007   0.000   0.007
   52        0.000   0.003   0.000   0.003
   53        0.015   0.085   0.000   0.100
   54       -0.001  -0.009   0.000  -0.010
   55        0.015   0.084   0.000   0.099
   56       -0.001  -0.009   0.000  -0.010
   57        0.000   0.007   0.000   0.007
   58        0.000   0.003   0.000   0.003
   59       -0.000  -0.001   0.000  -0.001
   60        0.000   0.002   0.000   0.002
   61       -0.000  -0.002   0.000  -0.002
   62        0.001   0.011   0.000   0.012
   63       -0.000  -0.001   0.000  -0.001
   64        0.000   0.002   0.000   0.002
   65        0.001   0.003   0.000   0.004
   66        0.000   0.006   0.000   0.007
   67        0.003   0.050   0.000   0.053
   68       -0.000   0.004   0.000   0.004
   69        0.001   0.004   0.000   0.004
   70        0.000   0.006   0.000   0.006
   71       -0.034   0.014  -1.913  -1.933
   72        0.000   0.000   0.000   0.000
   73       -0.000  -0.000   0.000  -0.000
--------------------------------------------------
tot          0.032   0.600  -1.913  -1.282
 
 BZINTS: Fermi energy: -2.060833;303.000000 electrons
         Band energy:***********;  BLOECHL correction: -0.002959

 total amount of memory used by VASP MPI-rank0   116041. kBytes
=======================================================================

   base      :      30000. kBytes
   nonl-proj :      27286. kBytes
   fftplans  :       4700. kBytes
   grid      :      15193. kBytes
   one-center:        217. kBytes
   wavefun   :      38645. kBytes
 
  
  
 General timing and accounting informations for this job:
 ========================================================
  
                  Total CPU time used (sec):      363.534
                            User time (sec):      357.351
                          System time (sec):        6.182
                         Elapsed time (sec):      374.381
  
                   Maximum memory used (kb):      474592.
                   Average memory used (kb):           0.
  
                          Minor page faults:       393738
                          Major page faults:            0
                 Voluntary context switches:         7941
