       N       E                     dE             d eps       ncg     rms          rms(c)
DAV:   1     0.248673133713E+04    0.24867E+04   -0.96111E+04  3896   0.110E+03
DAV:   2     0.112424851893E+03   -0.23743E+04   -0.22758E+04  4976   0.266E+02
DAV:   3    -0.458930289731E+03   -0.57136E+03   -0.56661E+03  4292   0.142E+02
DAV:   4    -0.485552038055E+03   -0.26622E+02   -0.25911E+02  4120   0.410E+01
DAV:   5    -0.487032164601E+03   -0.14801E+01   -0.14635E+01  5248   0.838E+00    0.346E+01
DAV:   6    -0.467919032007E+03    0.19113E+02   -0.66229E+01  4400   0.190E+01    0.198E+01
DAV:   7    -0.466824646937E+03    0.10944E+01   -0.29251E+01  4184   0.143E+01    0.141E+01
DAV:   8    -0.465821238240E+03    0.10034E+01   -0.15751E+01  4160   0.104E+01    0.101E+01
DAV:   9    -0.466036871016E+03   -0.21563E+00   -0.18796E+01  4776   0.793E+00    0.643E+00
DAV:  10    -0.465203467678E+03    0.83340E+00   -0.74944E+00  4576   0.661E+00    0.325E+00
DAV:  11    -0.465093047041E+03    0.11042E+00   -0.33849E+00  4288   0.391E+00    0.248E+00
DAV:  12    -0.464988868876E+03    0.10418E+00   -0.16324E+00  4648   0.238E+00    0.134E+00
DAV:  13    -0.464961902159E+03    0.26967E-01   -0.18007E-01  4080   0.110E+00    0.761E-01
DAV:  14    -0.464956476415E+03    0.54257E-02   -0.78220E-02  4208   0.618E-01    0.444E-01
DAV:  15    -0.464958059356E+03   -0.15829E-02   -0.82511E-02  4280   0.471E-01    0.486E-01
DAV:  16    -0.464955515634E+03    0.25437E-02   -0.64763E-02  4264   0.370E-01    0.283E-01
DAV:  17    -0.464955079418E+03    0.43622E-03   -0.14499E-02  4024   0.184E-01    0.116E-01
DAV:  18    -0.464955236863E+03   -0.15745E-03   -0.30182E-03  3864   0.947E-02    0.983E-02
DAV:  19    -0.464955335812E+03   -0.98948E-04   -0.18281E-03  3040   0.525E-02    0.931E-02
DAV:  20    -0.464955121679E+03    0.21413E-03   -0.73497E-04  2160   0.303E-02    0.655E-02
DAV:  21    -0.464955013336E+03    0.10834E-03   -0.17262E-03  2736   0.348E-02    0.289E-02
DAV:  22    -0.464955133869E+03   -0.12053E-03   -0.22511E-04  2088   0.283E-02    0.183E-02
DAV:  23    -0.464955131706E+03    0.21621E-05   -0.72626E-05  2080   0.168E-02
   1 F= -.46851225E+03 E0= -.46851225E+03  d E =0.000000E+00  mag=     0.0000
