 vasp.5.4.4.18Apr17-6-g9f103f2a35 (build Nov  8 2022 18:58:45) complex           
 executed on             LinuxGNU date 2023.04.13  15:54:36
 running on   48 total cores
 distrk:  each k-point on   48 cores,    1 groups
 distr:  one band on NCORES_PER_BAND=  12 cores,    4 groups


--------------------------------------------------------------------------------------------------------


 INCAR:
 POTCAR:    PAW_PBE C 08Apr2002                   
 POTCAR:    PAW_PBE N 08Apr2002                   
 POTCAR:    PAW_PBE Ge_d 03Jul2007                
 POTCAR:    PAW_PBE C 08Apr2002                   
 POTCAR:    PAW_PBE O 08Apr2002                   
 POTCAR:    PAW_PBE C 08Apr2002                   
   SHA256 =  253f7b50bb8d59471dbedb8285d89021f4a42ed1a2c5d38a03a736e69125dd95 C/
   COPYR  = (c) Copyright 08Apr2002 Georg Kresse                                
   COPYR  = This file is part of the software VASP. Any use, copying, and all ot
   COPYR  = If you do not have a valid VASP license, you may not use, copy or di
   VRHFIN =C: s2p2                                                              
   LEXCH  = PE                                                                  
   EATOM  =   147.1560 eV,   10.8157 Ry                                         
                                                                                
   TITEL  = PAW_PBE C 08Apr2002                                                 
   LULTRA =        F    use ultrasoft PP ?                                      
   IUNSCR =        1    unscreen: 0-lin 1-nonlin 2-no                           
   RPACOR =    1.200    partial core radius                                     
   POMASS =   12.011; ZVAL   =    4.000    mass and valenz                      
   RCORE  =    1.500    outmost cutoff radius                                   
   RWIGS  =    1.630; RWIGS  =    0.863    wigner-seitz radius (au A)           
   ENMAX  =  400.000; ENMIN  =  300.000 eV                                      
   ICORE  =        2    local potential                                         
   LCOR   =        T    correct aug charges                                     
   LPAW   =        T    paw PP                                                  
   EAUG   =  644.873                                                            
   DEXC   =    0.000                                                            
   RMAX   =    1.529    core radius for proj-oper                               
   RAUG   =    1.300    factor for augmentation sphere                          
   RDEP   =    1.501    radius for radial grids                                 
   RDEPT  =    1.300    core radius for aug-charge                              
                                                                                
   Atomic configuration                                                         
    4 entries                                                                   
     n  l   j            E        occ.                                          
     1  0  0.50      -273.3789   2.0000                                         
     2  0  0.50       -13.7508   2.0000                                         
     2  1  0.50        -5.2854   2.0000                                         
     3  2  1.50        -5.4423   0.0000                                         
   Description                                                                  
     l       E           TYP  RCUT    TYP  RCUT                                 
     0    -13.7508458     23  1.200                                             
     0     -8.2022199     23  1.200                                             
     1     -5.2854383     23  1.500                                             
     1     34.0145650     23  1.500                                             
     2     -5.4423304      7  1.500                                             
  local pseudopotential read in
  partial core-charges read in
  partial kinetic energy density read in
  atomic valenz-charges read in
  non local Contribution for L=           0  read in
    real space projection operators read in
  non local Contribution for L=           0  read in
    real space projection operators read in
  non local Contribution for L=           1  read in
    real space projection operators read in
  non local Contribution for L=           1  read in
    real space projection operators read in
    PAW grid and wavefunctions read in

   number of l-projection  operators is LMAX  =           4
   number of lm-projection operators is LMMAX =           8

 POTCAR:    PAW_PBE N 08Apr2002                   
   SHA256 =  e053789ff3a61a86a1b75d8a110fcc91f86041011e7b0817c7c99e4e8a6349d7 N/
   COPYR  = (c) Copyright 08Apr2002 Georg Kresse                                
   COPYR  = This file is part of the software VASP. Any use, copying, and all ot
   COPYR  = If you do not have a valid VASP license, you may not use, copy or di
   VRHFIN =N: s2p3                                                              
   LEXCH  = PE                                                                  
   EATOM  =   264.5486 eV,   19.4438 Ry                                         
                                                                                
   TITEL  = PAW_PBE N 08Apr2002                                                 
   LULTRA =        F    use ultrasoft PP ?                                      
   IUNSCR =        1    unscreen: 0-lin 1-nonlin 2-no                           
   RPACOR =    1.200    partial core radius                                     
   POMASS =   14.001; ZVAL   =    5.000    mass and valenz                      
   RCORE  =    1.500    outmost cutoff radius                                   
   RWIGS  =    1.400; RWIGS  =    0.741    wigner-seitz radius (au A)           
   ENMAX  =  400.000; ENMIN  =  300.000 eV                                      
   ICORE  =        2    local potential                                         
   LCOR   =        T    correct aug charges                                     
   LPAW   =        T    paw PP                                                  
   EAUG   =  627.112                                                            
   DEXC   =    0.000                                                            
   RMAX   =    1.529    core radius for proj-oper                               
   RAUG   =    1.300    factor for augmentation sphere                          
   RDEP   =    1.514    radius for radial grids                                 
   RDEPT  =    1.338    core radius for aug-charge                              
                                                                                
   Atomic configuration                                                         
    4 entries                                                                   
     n  l   j            E        occ.                                          
     1  0  0.50      -384.7179   2.0000                                         
     2  0  0.50       -18.5828   2.0000                                         
     2  1  0.50        -7.0898   3.0000                                         
     3  2  1.50        -6.8029   0.0000                                         
   Description                                                                  
     l       E           TYP  RCUT    TYP  RCUT                                 
     0    -18.5828119     23  1.200                                             
     0    -13.5018863     23  1.200                                             
     1     -7.0897853     23  1.500                                             
     1      9.5240782     23  1.500                                             
     2     -6.8029130      7  1.500                                             
  local pseudopotential read in
  partial core-charges read in
  partial kinetic energy density read in
  atomic valenz-charges read in
  non local Contribution for L=           0  read in
    real space projection operators read in
  non local Contribution for L=           0  read in
    real space projection operators read in
  non local Contribution for L=           1  read in
    real space projection operators read in
  non local Contribution for L=           1  read in
    real space projection operators read in
    PAW grid and wavefunctions read in

   number of l-projection  operators is LMAX  =           4
   number of lm-projection operators is LMMAX =           8

 POTCAR:    PAW_PBE Ge_d 03Jul2007                
   SHA256 =  944b26c40d2d7c4f4eb1ff3a2e8dbfdd7129146276cd341854bfd5c0e57780ed Ge
   COPYR  = (c) Copyright 03Jul2007 Georg Kresse                                
   COPYR  = This file is part of the software VASP. Any use, copying, and all ot
   COPYR  = If you do not have a valid VASP license, you may not use, copy or di
   VRHFIN =Ge: 3d4s4p                                                           
   LEXCH  = PE                                                                  
   EATOM  =  2596.2402 eV,  190.8183 Ry                                         
                                                                                
   TITEL  = PAW_PBE Ge_d 03Jul2007                                              
   LULTRA =        F    use ultrasoft PP ?                                      
   IUNSCR =        1    unscreen: 0-lin 1-nonlin 2-no                           
   RPACOR =    2.000    partial core radius                                     
   POMASS =   72.610; ZVAL   =   14.000    mass and valenz                      
   RCORE  =    2.300    outmost cutoff radius                                   
   RWIGS  =    2.300; RWIGS  =    1.217    wigner-seitz radius (au A)           
   ENMAX  =  310.294; ENMIN  =  232.720 eV                                      
   ICORE  =        3    local potential                                         
   LCOR   =        T    correct aug charges                                     
   LPAW   =        T    paw PP                                                  
   EAUG   =  531.356                                                            
   DEXC   =    0.000                                                            
   RMAX   =    2.342    core radius for proj-oper                               
   RAUG   =    1.300    factor for augmentation sphere                          
   RDEP   =    2.318    radius for radial grids                                 
   RDEPT  =    1.783    core radius for aug-charge                              
                                                                                
   Atomic configuration                                                         
    9 entries                                                                   
     n  l   j            E        occ.                                          
     1  0  0.50    -10959.8463   2.0000                                         
     2  0  0.50     -1371.6056   2.0000                                         
     2  1  1.50     -1198.4791   6.0000                                         
     3  0  0.50      -168.4733   2.0000                                         
     3  1  1.50      -115.6019   6.0000                                         
     3  2  2.50       -29.3106  10.0000                                         
     4  0  0.50       -11.7309   2.0000                                         
     4  1  0.50        -3.8952   2.0000                                         
     4  3  2.50        -4.0817   0.0000                                         
   Description                                                                  
     l       E           TYP  RCUT    TYP  RCUT                                 
     2    -29.3105938     23  2.200                                             
     2    -13.6058260     23  2.200                                             
     0    -11.7309493     23  2.300                                             
     0     -7.4578696     23  2.300                                             
     1     -3.8952261     23  2.300                                             
     1      6.1178114     23  2.300                                             
     3     -1.3605826     23  2.300                                             
  local pseudopotential read in
  partial core-charges read in
  partial kinetic energy density read in
  atomic valenz-charges read in
  non local Contribution for L=           2  read in
    real space projection operators read in
  non local Contribution for L=           2  read in
    real space projection operators read in
  non local Contribution for L=           0  read in
    real space projection operators read in
  non local Contribution for L=           0  read in
    real space projection operators read in
  non local Contribution for L=           1  read in
    real space projection operators read in
  non local Contribution for L=           1  read in
    real space projection operators read in
    PAW grid and wavefunctions read in

   number of l-projection  operators is LMAX  =           6
   number of lm-projection operators is LMMAX =          18

 POTCAR:    PAW_PBE C 08Apr2002                   
   SHA256 =  253f7b50bb8d59471dbedb8285d89021f4a42ed1a2c5d38a03a736e69125dd95 C/
   COPYR  = (c) Copyright 08Apr2002 Georg Kresse                                
   COPYR  = This file is part of the software VASP. Any use, copying, and all ot
   COPYR  = If you do not have a valid VASP license, you may not use, copy or di
   VRHFIN =C: s2p2                                                              
   LEXCH  = PE                                                                  
   EATOM  =   147.1560 eV,   10.8157 Ry                                         
                                                                                
   TITEL  = PAW_PBE C 08Apr2002                                                 
   LULTRA =        F    use ultrasoft PP ?                                      
   IUNSCR =        1    unscreen: 0-lin 1-nonlin 2-no                           
   RPACOR =    1.200    partial core radius                                     
   POMASS =   12.011; ZVAL   =    4.000    mass and valenz                      
   RCORE  =    1.500    outmost cutoff radius                                   
   RWIGS  =    1.630; RWIGS  =    0.863    wigner-seitz radius (au A)           
   ENMAX  =  400.000; ENMIN  =  300.000 eV                                      
   ICORE  =        2    local potential                                         
   LCOR   =        T    correct aug charges                                     
   LPAW   =        T    paw PP                                                  
   EAUG   =  644.873                                                            
   DEXC   =    0.000                                                            
   RMAX   =    1.529    core radius for proj-oper                               
   RAUG   =    1.300    factor for augmentation sphere                          
   RDEP   =    1.501    radius for radial grids                                 
   RDEPT  =    1.300    core radius for aug-charge                              
                                                                                
   Atomic configuration                                                         
    4 entries                                                                   
     n  l   j            E        occ.                                          
     1  0  0.50      -273.3789   2.0000                                         
     2  0  0.50       -13.7508   2.0000                                         
     2  1  0.50        -5.2854   2.0000                                         
     3  2  1.50        -5.4423   0.0000                                         
   Description                                                                  
     l       E           TYP  RCUT    TYP  RCUT                                 
     0    -13.7508458     23  1.200                                             
     0     -8.2022199     23  1.200                                             
     1     -5.2854383     23  1.500                                             
     1     34.0145650     23  1.500                                             
     2     -5.4423304      7  1.500                                             
  local pseudopotential read in
  partial core-charges read in
  partial kinetic energy density read in
  atomic valenz-charges read in
  non local Contribution for L=           0  read in
    real space projection operators read in
  non local Contribution for L=           0  read in
    real space projection operators read in
  non local Contribution for L=           1  read in
    real space projection operators read in
  non local Contribution for L=           1  read in
    real space projection operators read in
    PAW grid and wavefunctions read in

   number of l-projection  operators is LMAX  =           4
   number of lm-projection operators is LMMAX =           8

 POTCAR:    PAW_PBE O 08Apr2002                   
   SHA256 =  818f92134a0a090dccd8ba1447fa70422a3b330e708bb4f08108d8ae51209ddf O/
   COPYR  = (c) Copyright 08Apr2002 Georg Kresse                                
   COPYR  = This file is part of the software VASP. Any use, copying, and all ot
   COPYR  = If you do not have a valid VASP license, you may not use, copy or di
   VRHFIN =O: s2p4                                                              
   LEXCH  = PE                                                                  
   EATOM  =   432.3788 eV,   31.7789 Ry                                         
                                                                                
   TITEL  = PAW_PBE O 08Apr2002                                                 
   LULTRA =        F    use ultrasoft PP ?                                      
   IUNSCR =        1    unscreen: 0-lin 1-nonlin 2-no                           
   RPACOR =    1.200    partial core radius                                     
   POMASS =   16.000; ZVAL   =    6.000    mass and valenz                      
   RCORE  =    1.520    outmost cutoff radius                                   
   RWIGS  =    1.550; RWIGS  =    0.820    wigner-seitz radius (au A)           
   ENMAX  =  400.000; ENMIN  =  300.000 eV                                      
   ICORE  =        2    local potential                                         
   LCOR   =        T    correct aug charges                                     
   LPAW   =        T    paw PP                                                  
   EAUG   =  605.392                                                            
   DEXC   =    0.000                                                            
   RMAX   =    1.553    core radius for proj-oper                               
   RAUG   =    1.300    factor for augmentation sphere                          
   RDEP   =    1.550    radius for radial grids                                 
   RDEPT  =    1.329    core radius for aug-charge                              
                                                                                
   Atomic configuration                                                         
    4 entries                                                                   
     n  l   j            E        occ.                                          
     1  0  0.50      -514.6923   2.0000                                         
     2  0  0.50       -23.9615   2.0000                                         
     2  1  0.50        -9.0305   4.0000                                         
     3  2  1.50        -9.5241   0.0000                                         
   Description                                                                  
     l       E           TYP  RCUT    TYP  RCUT                                 
     0    -23.9615318     23  1.200                                             
     0     -9.5240782     23  1.200                                             
     1     -9.0304911     23  1.520                                             
     1      8.1634956     23  1.520                                             
     2     -9.5240782      7  1.500                                             
  local pseudopotential read in
  partial core-charges read in
  partial kinetic energy density read in
  kinetic energy density of atom read in
  atomic valenz-charges read in
  non local Contribution for L=           0  read in
    real space projection operators read in
  non local Contribution for L=           0  read in
    real space projection operators read in
  non local Contribution for L=           1  read in
    real space projection operators read in
  non local Contribution for L=           1  read in
    real space projection operators read in
    PAW grid and wavefunctions read in

   number of l-projection  operators is LMAX  =           4
   number of lm-projection operators is LMMAX =           8


 ----------------------------------------------------------------------------- 
|                                                                             |
|  ADVICE TO THIS USER RUNNING 'VASP/VAMP'   (HEAR YOUR MASTER'S VOICE ...):  |
|                                                                             |
|      You have a (more or less) 'large supercell' and for larger cells       |
|      it might be more efficient to use real space projection opertators     |
|      So try LREAL= Auto  in the INCAR   file.                               |
|      Mind:          For very  accurate calculation you might also keep the  |
|      reciprocal projection scheme          (i.e. LREAL=.FALSE.)             |
|                                                                             |
 ----------------------------------------------------------------------------- 

  PAW_PBE C 08Apr2002                   :
 energy of atom  1       EATOM= -147.1560
 kinetic energy error for atom=    0.0132 (will be added to EATOM!!)
  PAW_PBE N 08Apr2002                   :
 energy of atom  2       EATOM= -264.5486
 kinetic energy error for atom=    0.0298 (will be added to EATOM!!)
  PAW_PBE Ge_d 03Jul2007                :
 energy of atom  3       EATOM=-2596.2402
 kinetic energy error for atom=    0.0090 (will be added to EATOM!!)
  PAW_PBE C 08Apr2002                   :
 energy of atom  4       EATOM= -147.1560
 kinetic energy error for atom=    0.0132 (will be added to EATOM!!)
  PAW_PBE O 08Apr2002                   :
 energy of atom  5       EATOM= -432.3788
 kinetic energy error for atom=    0.0458 (will be added to EATOM!!)


 POSCAR: POSCAR-c3n4                             
  positions in cartesian coordinates
  No initial velocities read in
 exchange correlation table for  LEXCH =        8
   RHO(1)=    0.500       N(1)  =     2000
   RHO(2)=  100.500       N(2)  =     4000



--------------------------------------------------------------------------------------------------------


 ion  position               nearest neighbor table
   1  0.106  0.214  0.436-  26 1.47  46 1.48  25 1.56
   2  0.288  0.399  0.443-  29 1.45  35 1.52  25 1.58
   3  0.104  0.392  0.437-  44 1.45  39 1.52  25 1.57
   4  0.447  0.064  0.516-  30 1.46  27 1.47  48 1.55
   5  0.453  0.401  0.422-  28 1.46  29 1.47  56 1.57
   6  0.112  0.053  0.459-  26 1.46  31 1.47  32 1.54
   7  0.096  0.712  0.494-  54 1.46  34 1.49  33 1.55
   8  0.284  0.890  0.511-  27 1.47  37 1.49  33 1.56
   9  0.109  0.895  0.508-  31 1.46  52 1.48  33 1.58
  10  0.448  0.548  0.512-  38 1.46  56 1.49  35 1.50
  11  0.445  0.885  0.499-  37 1.47  36 1.47  48 1.52
  12  0.087  0.542  0.491-  34 1.45  40 1.48  39 1.49
  13  0.616  0.223  0.483-  42 1.48  30 1.49  41 1.55
  14  0.780  0.390  0.410-  45 1.48  51 1.50  41 1.55
  15  0.610  0.394  0.445-  28 1.47  55 1.48  41 1.60
  16  0.940  0.052  0.471-  46 1.45  43 1.47  32 1.54
  17  0.941  0.387  0.404-  45 1.45  44 1.48  40 1.56
  18  0.623  0.066  0.522-  42 1.46  47 1.47  48 1.55
  19  0.613  0.711  0.541-  50 1.46  38 1.50  49 1.55
  20  0.790  0.897  0.533-  43 1.46  53 1.47  49 1.59
  21  0.609  0.892  0.531-  47 1.47  36 1.48  49 1.58
  22  0.938  0.563  0.430-  51 1.44  54 1.48  40 1.56
  23  0.954  0.902  0.545-  52 1.47  53 1.48  32 1.54
  24  0.621  0.555  0.500-  55 1.45  50 1.46  56 1.55
  25  0.167  0.335  0.435-   1 1.56   3 1.57   2 1.58
  26  0.165  0.161  0.431-   6 1.46   1 1.47
  27  0.336  0.002  0.532-   8 1.47   4 1.47
  28  0.512  0.352  0.402-   5 1.46  15 1.47
  29  0.345  0.361  0.400-   2 1.45   5 1.47
  30  0.506  0.177  0.503-   4 1.46  13 1.49
  31  0.159  0.988  0.457-   9 1.46   6 1.47
  32  0.002  0.002  0.493-  16 1.54  23 1.54   6 1.54
  33  0.165  0.831  0.510-   7 1.55   8 1.56   9 1.58
  34  0.134  0.645  0.528-  12 1.45   7 1.49
  35  0.334  0.491  0.501-  10 1.50   2 1.52  57 2.27
  36  0.503  0.831  0.500-  11 1.47  21 1.48
  37  0.333  0.829  0.489-  11 1.47   8 1.49
  38  0.499  0.648  0.555-  10 1.46  19 1.50
  39  0.142  0.484  0.495-  12 1.49   3 1.52  57 2.29
  40  0.988  0.496  0.446-  12 1.48  22 1.56  17 1.56
  41  0.667  0.330  0.439-  13 1.55  14 1.55  15 1.60
  42  0.680  0.178  0.505-  18 1.46  13 1.48
  43  0.827  0.986  0.478-  20 1.46  16 1.47
  44  0.011  0.348  0.389-   3 1.45  17 1.48
  45  0.830  0.330  0.389-  17 1.45  14 1.48
  46  0.993  0.161  0.445-  16 1.45   1 1.48
  47  0.669  0.005  0.549-  21 1.47  18 1.47
  48  0.505  0.004  0.508-  11 1.52  18 1.55   4 1.55
  49  0.668  0.832  0.544-  19 1.55  21 1.58  20 1.59
  50  0.675  0.666  0.522-  19 1.46  24 1.46
  51  0.832  0.507  0.406-  22 1.44  14 1.50
  52  0.016  0.853  0.559-  23 1.47   9 1.48
  53  0.849  0.860  0.576-  20 1.47  23 1.48
  54  0.004  0.677  0.444-   7 1.46  22 1.48
  55  0.668  0.491  0.494-  24 1.45  15 1.48
  56  0.506  0.502  0.477-  10 1.49  24 1.55   5 1.57
  57  0.287  0.593  0.568-  35 2.27  39 2.29
  58  0.287  0.593  0.966-  59 1.28
  59  0.232  0.530  0.023-  58 1.28


IMPORTANT INFORMATION: All symmetrisations will be switched off!
NOSYMM: (Re-)initialisation of all symmetry stuff for point group C_1.



 KPOINTS: K-Points                                

Automatic generation of k-mesh.
Space group operators:
 irot       det(A)        alpha          n_x          n_y          n_z        tau_x        tau_y        tau_z
    1     1.000000     0.000002     1.000000     0.000000     0.000000     0.000000     0.000000     0.000000
 
 Subroutine IBZKPT returns following result:
 ===========================================
 
 Found      5 irreducible k-points:
 
 Following reciprocal coordinates:
            Coordinates               Weight
  0.000000  0.000000  0.000000      1.000000
  0.333333  0.000000  0.000000      2.000000
  0.000000  0.333333  0.000000      2.000000
  0.333333  0.333333  0.000000      2.000000
 -0.333333  0.333333  0.000000      2.000000
 
 Following cartesian coordinates:
            Coordinates               Weight
  0.000000  0.000000  0.000000      1.000000
  0.024277  0.014368  0.000000      2.000000
  0.000396  0.028736  0.000000      2.000000
  0.024673  0.043104  0.000000      2.000000
 -0.023881  0.014368  0.000000      2.000000
 
 TETIRR: Found     24 inequivalent tetrahedra from       54


--------------------------------------------------------------------------------------------------------




 Dimension of arrays:
   k-points           NKPTS =      5   k-points in BZ     NKDIM =      5   number of bands    NBANDS=    172
   number of dos      NEDOS =   4000   number of ions     NIONS =     59
   non local maximal  LDIM  =      6   non local SUM 2l+1 LMDIM =     18
   total plane-waves  NPLWV = 576000
   max r-space proj   IRMAX =      1   max aug-charges    IRDMAX=   6241
   dimension x,y,z NGX =    80 NGY =   80 NGZ =   90
   dimension x,y,z NGXF=   160 NGYF=  160 NGZF=  180
   support grid    NGXF=   160 NGYF=  160 NGZF=  180
   ions per type =              24  32   1   1   1
   NGX,Y,Z   is equivalent  to a cutoff of   8.73,  8.90,  9.07 a.u.
   NGXF,Y,Z  is equivalent  to a cutoff of  17.47, 17.79, 18.14 a.u.

 SYSTEM =  unknown system                          
 POSCAR =  POSCAR-c3n4                             

 Startparameter for this run:
   NWRITE =      2    write-flag & timer
   PREC   = normal    normal or accurate (medium, high low for compatibility)
   ISTART =      0    job   : 0-new  1-cont  2-samecut
   ICHARG =      2    charge: 1-file 2-atom 10-const
   ISPIN  =      2    spin polarized calculation?
   LNONCOLLINEAR =      F non collinear calculations
   LSORBIT =      F    spin-orbit coupling
   INIWAV =      1    electr: 0-lowe 1-rand  2-diag
   LASPH  =      F    aspherical Exc in radial PAW
   METAGGA=      F    non-selfconsistent MetaGGA calc.

 Electronic Relaxation 1
   ENCUT  =  440.0 eV  32.34 Ry    5.69 a.u.  26.05 25.57 28.22*2*pi/ulx,y,z
   ENINI  =  440.0     initial cutoff
   ENAUG  =  644.9 eV  augmentation charge cutoff
   NELM   =    100;   NELMIN=  2; NELMDL= -5     # of ELM steps 
   EDIFF  = 0.1E-03   stopping-criterion for ELM
   LREAL  =      F    real-space projection
   NLSPLINE    = F    spline interpolate recip. space projectors
   LCOMPAT=      F    compatible to vasp.4.4
   GGA_COMPAT  = T    GGA compatible to vasp.4.4-vasp.4.6
   LMAXPAW     = -100 max onsite density
   LMAXMIX     =    2 max onsite mixed and CHGCAR
   VOSKOWN=      0    Vosko Wilk Nusair interpolation
   ROPT   =    0.00000   0.00000   0.00000   0.00000
   ROPT   =    0.00000
 Ionic relaxation
   EDIFFG = -.1E-01   stopping-criterion for IOM
   NSW    =      0    number of steps for IOM
   NBLOCK =      1;   KBLOCK =      1    inner block; outer block 
   IBRION =     -1    ionic relax: 0-MD 1-quasi-New 2-CG
   NFREE  =      0    steps in history (QN), initial steepest desc. (CG)
   ISIF   =      2    stress and relaxation
   IWAVPR =     10    prediction:  0-non 1-charg 2-wave 3-comb
   ISYM   =      0    0-nonsym 1-usesym 2-fastsym
   LCORR  =      T    Harris-Foulkes like correction to forces

   POTIM  = 0.5000    time-step for ionic-motion
   TEIN   =    0.0    initial temperature
   TEBEG  =    0.0;   TEEND  =   0.0 temperature during run
   SMASS  =  -3.00    Nose mass-parameter (am)
   estimated Nose-frequenzy (Omega)   =  0.10E-29 period in steps =****** mass=  -0.530E-26a.u.
   SCALEE = 1.0000    scale energy and forces
   NPACO  =    256;   APACO  = 16.0  distance and # of slots for P.C.
   PSTRESS=    0.0 pullay stress

  Mass of Ions in am
   POMASS =  12.01 14.00 72.61 12.01 16.00
  Ionic Valenz
   ZVAL   =   4.00  5.00 14.00  4.00  6.00
  Atomic Wigner-Seitz radii
   RWIGS  =  -1.00 -1.00 -1.00 -1.00 -1.00
  virtual crystal weights 
   VCA    =   1.00  1.00  1.00  1.00  1.00
   NELECT =     280.0000    total number of electrons
   NUPDOWN=      -1.0000    fix difference up-down

 DOS related values:
   EMIN   = -14.00;   EMAX   =  6.00  energy-range for DOS
   EFERMI =   0.00
   ISMEAR =    -5;   SIGMA  =   0.20  broadening in eV -4-tet -1-fermi 0-gaus

 Electronic relaxation 2 (details)
   IALGO  =     38    algorithm
   LDIAG  =      T    sub-space diagonalisation (order eigenvalues)
   LSUBROT=      F    optimize rotation matrix (better conditioning)
   TURBO    =      0    0=normal 1=particle mesh
   IRESTART =      0    0=no restart 2=restart with 2 vectors
   NREBOOT  =      0    no. of reboots
   NMIN     =      0    reboot dimension
   EREF     =   0.00    reference energy to select bands
   IMIX   =      4    mixing-type and parameters
     AMIX     =   0.25;   BMIX     =  0.00
     AMIX_MAG =   1.00;   BMIX_MAG =  0.00
     AMIN     =   0.10
     WC   =   100.;   INIMIX=   1;  MIXPRE=   1;  MAXMIX= -45

 Intra band minimization:
   WEIMIN = 0.0000     energy-eigenvalue tresh-hold
   EBREAK =  0.15E-06  absolut break condition
   DEPER  =   0.30     relativ break condition  

   TIME   =   0.40     timestep for ELM

  volume/ion in A,a.u.               =      54.34       366.70
  Fermi-wavevector in a.u.,A,eV,Ry     =   0.726339  1.372582  7.178007  0.527569
  Thomas-Fermi vector in A             =   1.817287

 Write flags
   LWAVE        =      F    write WAVECAR
   LDOWNSAMPLE  =      F    k-point downsampling of WAVECAR
   LCHARG       =      F    write CHGCAR
   LVTOT        =      F    write LOCPOT, total local potential
   LVHAR        =      F    write LOCPOT, Hartree potential only
   LELF         =      F    write electronic localiz. function (ELF)
   LORBIT       =     11    0 simple, 1 ext, 2 COOP (PROOUT), +10 PAW based schemes


 Dipole corrections
   LMONO  =      F    monopole corrections only (constant potential shift)
   LDIPOL =      F    correct potential (dipole corrections)
   IDIPOL =      0    1-x, 2-y, 3-z, 4-all directions 
   EPSILON=  1.0000000 bulk dielectric constant

 Exchange correlation treatment:
   GGA     =    --    GGA type
   LEXCH   =     8    internal setting for exchange type
   VOSKOWN=      0    Vosko Wilk Nusair interpolation
   LHFCALC =     F    Hartree Fock is set to
   LHFONE  =     F    Hartree Fock one center treatment
   AEXX    =    0.0000 exact exchange contribution

 Linear response parameters
   LEPSILON=     F    determine dielectric tensor
   LRPA    =     F    only Hartree local field effects (RPA)
   LNABLA  =     F    use nabla operator in PAW spheres
   LVEL    =     F    velocity operator in full k-point grid
   LINTERFAST=   F  fast interpolation
   KINTER  =     0    interpolate to denser k-point grid
   CSHIFT  =0.1000    complex shift for real part using Kramers Kronig
   OMEGAMAX=  -1.0    maximum frequency
   DEG_THRESHOLD= 0.2000000E-02 threshold for treating states as degnerate
   RTIME   =   -0.100 relaxation time in fs
  (WPLASMAI=    0.000 imaginary part of plasma frequency in eV, 0.658/RTIME)
   DFIELD  = 0.0000000 0.0000000 0.0000000 field for delta impulse in time

 Orbital magnetization related:
   ORBITALMAG=     F  switch on orbital magnetization
   LCHIMAG   =     F  perturbation theory with respect to B field
   DQ        =  0.001000  dq finite difference perturbation B field
   LLRAUG    =     F  two centre corrections for induced B field



--------------------------------------------------------------------------------------------------------


 Static calculation
 charge density and potential will be updated during run
 spin polarized calculation
 Variant of blocked Davidson
 Davidson routine will perform the subspace rotation
 perform sub-space diagonalisation
    after iterative eigenvector-optimisation
 modified Broyden-mixing scheme, WC =      100.0
 initial mixing is a Kerker type mixing with AMIX =  0.2500 and BMIX =      0.0001
 Hartree-type preconditioning will be used
 using additional bands           32
 reciprocal scheme for non local part
 use partial core corrections
 calculate Harris-corrections to forces   (improved forces if not selfconsistent)
 use gradient corrections 
 use of overlap-Matrix (Vanderbilt PP)
 Fermi weights with tetrahedron method with Bloechl corrections


--------------------------------------------------------------------------------------------------------


  energy-cutoff  :      440.00
  volume of cell :     3206.00
      direct lattice vectors                 reciprocal lattice vectors
    15.227766658 -0.209814521  0.000000000     0.066209427  0.039185558 -0.000000000
    -7.613883329 12.864710093  0.000000000     0.001079830  0.078371117 -0.000000000
     0.000000000  0.000000000 16.500000000    -0.000000000 -0.000000000  0.060606061

  length of vectors
    15.229212045 14.948979401 16.500000000     0.076936312  0.078378556  0.060606061



 k-points in units of 2pi/SCALE and weight: K-Points                                
   0.00000000  0.00000000  0.00000000       0.111
   0.02427679  0.01436804  0.00000000       0.222
   0.00039594  0.02873608  0.00000000       0.222
   0.02467273  0.04310411  0.00000000       0.222
  -0.02388085  0.01436804  0.00000000       0.222

 k-points in reciprocal lattice and weights: K-Points                                
   0.00000000  0.00000000  0.00000000       0.111
   0.33333333  0.00000000  0.00000000       0.222
   0.00000000  0.33333333  0.00000000       0.222
   0.33333333  0.33333333  0.00000000       0.222
  -0.33333333  0.33333333  0.00000000       0.222

 position of ions in fractional coordinates (direct lattice) 
   0.10567936  0.21351909  0.43638452
   0.28750403  0.39866334  0.44307848
   0.10379301  0.39177313  0.43720774
   0.44732828  0.06383887  0.51561413
   0.45258916  0.40124889  0.42244582
   0.11203481  0.05273921  0.45860169
   0.09638015  0.71191070  0.49382164
   0.28433946  0.89006364  0.51112159
   0.10941441  0.89537413  0.50804572
   0.44792521  0.54827090  0.51182417
   0.44544784  0.88520183  0.49889037
   0.08690842  0.54210436  0.49059155
   0.61614813  0.22292684  0.48262487
   0.78023735  0.38968276  0.40980308
   0.61037743  0.39432339  0.44538198
   0.93951642  0.05229783  0.47062057
   0.94071854  0.38652888  0.40380040
   0.62278394  0.06558106  0.52195204
   0.61322902  0.71118454  0.54116914
   0.78984871  0.89727295  0.53280047
   0.60944297  0.89248269  0.53124739
   0.93832005  0.56283419  0.43042990
   0.95436023  0.90171878  0.54458488
   0.62130548  0.55465507  0.49978063
   0.16668926  0.33545237  0.43494871
   0.16473950  0.16097029  0.43087242
   0.33626584  0.00180669  0.53207802
   0.51175722  0.35246859  0.40230650
   0.34471728  0.36074551  0.39967324
   0.50565751  0.17673507  0.50307206
   0.15873210  0.98821904  0.45657691
   0.00214731  0.00186372  0.49276218
   0.16462634  0.83083069  0.51017993
   0.13400723  0.64526801  0.52770834
   0.33371346  0.49116238  0.50147098
   0.50288345  0.83078126  0.49964378
   0.33307237  0.82932770  0.48929409
   0.49902190  0.64803204  0.55475412
   0.14173676  0.48364631  0.49503647
   0.98839512  0.49595573  0.44590834
   0.66736443  0.33015381  0.43923807
   0.67970142  0.17802103  0.50515807
   0.82720183  0.98622484  0.47776955
   0.01097216  0.34809993  0.38872280
   0.83047981  0.33016544  0.38944898
   0.99296173  0.16101876  0.44505124
   0.66886761  0.00524437  0.54940128
   0.50484899  0.00388347  0.50822952
   0.66830364  0.83227641  0.54411956
   0.67536455  0.66551462  0.52238502
   0.83211404  0.50666912  0.40566699
   0.01584380  0.85299492  0.55859758
   0.84924332  0.85956436  0.57597004
   0.00424175  0.67726383  0.44447513
   0.66753141  0.49127771  0.49374111
   0.50565566  0.50179634  0.47708161
   0.28676550  0.59288202  0.56771515
   0.28676550  0.59288202  0.96638181
   0.23209909  0.52992702  0.02273763

 position of ions in cartesian coordinates  (Angst):
  -0.01644875  2.72468807  7.20034451
   1.34266808  5.06836576  7.31079488
  -1.40237924  5.01827047  7.21392763
   6.32574898  0.72741255  8.50763315
   3.83685979  5.06699091  6.97035611
   1.30448977  0.65496816  7.56692782
  -3.95275060  9.13830283  8.14805700
  -2.44698580 11.39075213  8.43350619
  -5.15113714 11.49577189  8.38275442
   2.64642997  6.95936498  8.44509884
   0.04335235 11.29440351  8.23169110
  -2.80409829  6.95578084  8.09476059
   7.68522100  2.73861236  7.96331038
   8.91427318  4.84945065  6.76175088
   6.29235272  4.94479009  7.34880262
  13.90854731  0.47567220  7.76523935
  11.38205666  4.77520561  6.66270654
   8.98428198  0.71301215  8.61220869
   3.92323237  9.02051861  8.92929084
   5.19590026 11.37743469  8.79120775
   2.48519623 11.35366103  8.76558188
  10.00316490  7.04382556  7.10209343
   7.66719323 11.40011208  8.98565049
   5.23801592  7.00511781  8.24638041
  -0.01579005  4.28052369  7.17665375
   1.28300572  2.03627133  7.10939498
   5.10682177 -0.04731094  8.77928735
   5.10926488  4.42703209  6.63805724
   2.50260004  4.56855973  6.59460843
   6.35439430  2.16755121  8.30068903
  -5.10704918 12.67984718  7.53351897
   0.01850861  0.02352568  8.13057593
  -3.81895635 10.65385493  8.41796880
  -2.87236451  8.27306919  8.70718763
   1.34205771  6.24864365  8.27427123
   1.33232028 10.58224775  8.24412236
  -1.24245604 10.59917700  8.07335244
   2.66494872  8.23204229  9.15344292
  -1.52409227  6.19223108  8.16810169
  11.27490122  6.17294707  7.35748763
   7.64871723  4.10731034  7.24742809
   8.99490332  2.14757770  8.33510822
   5.08743564 12.51393768  7.88319761
  -2.48331076  4.47590250  6.41392627
  10.13251159  4.07323594  6.42590809
  13.89461141  1.86312187  7.34334546
  10.14542997 -0.07287089  9.06512113
   7.65815436 -0.05596493  8.38578715
   3.83991648 10.56677489  8.97797271
   5.21714306  8.41995138  8.61935288
   8.81351880  6.34356176  6.69350540
  -6.25333817 10.97020812  9.21686002
   6.38745635 10.87986277  9.50350572
  -5.09201546  8.71191289  7.33383973
   6.42448131  6.18008755  8.14672834
   3.87938758  6.34937059  7.87184659
  -0.14733644  7.56708780  9.36729993
  -0.14733644  7.56708780 15.94529993
  -0.50045178  6.76865974  0.37517084



--------------------------------------------------------------------------------------------------------


 k-point  1 :   0.0000 0.0000 0.0000  plane waves:   67161
 k-point  2 :   0.3333 0.0000 0.0000  plane waves:   67171
 k-point  3 :   0.0000 0.3333 0.0000  plane waves:   67191
 k-point  4 :   0.3333 0.3333 0.0000  plane waves:   67211
 k-point  5 :  -0.3333 0.3333 0.0000  plane waves:   67188

 maximum and minimum number of plane-waves per node :      5625     5565

 maximum number of plane-waves:     67211
 maximum index in each direction: 
   IXMAX=   26   IYMAX=   25   IZMAX=   28
   IXMIN=  -26   IYMIN=  -25   IZMIN=  -28


 parallel 3D FFT for wavefunctions:
    minimum data exchange during FFTs selected (reduces bandwidth)
 parallel 3D FFT for charge:
    minimum data exchange during FFTs selected (reduces bandwidth)


 total amount of memory used by VASP MPI-rank0   116102. kBytes
=======================================================================

   base      :      30000. kBytes
   nonl-proj :      25519. kBytes
   fftplans  :       5290. kBytes
   grid      :      16143. kBytes
   one-center:        155. kBytes
   wavefun   :      38995. kBytes

     INWAV:  cpu time    0.0001: real time    0.0001
 Broyden mixing: mesh for mixing (old mesh)
   NGX = 53   NGY = 51   NGZ = 57
  (NGX  =160   NGY  =160   NGZ  =180)
  gives a total of 154071 points

 initial charge density was supplied:
 charge density of overlapping atoms calculated
 number of electron     280.0000000 magnetization       2.0000000
 keeping initial charge density in first step


--------------------------------------------------------------------------------------------------------


 Maximum index for augmentation-charges          353 (set IRDMAX)


--------------------------------------------------------------------------------------------------------


 First call to EWALD:  gamma=   0.120
 Maximum number of real-space cells 3x 3x 3
 Maximum number of reciprocal cells 3x 3x 3

    FEWALD:  cpu time    0.0027: real time    0.0027


--------------------------------------- Iteration      1(   1)  ---------------------------------------


    POTLOK:  cpu time    0.1443: real time    0.1848
    SETDIJ:  cpu time    0.0094: real time    0.0094
     EDDAV:  cpu time   15.9977: real time   16.0494
 BZINTS: Fermi energy:  7.672169;280.000000 electrons
         Band energy:***********;  BLOECHL correction: -0.004479
       DOS:  cpu time    0.1072: real time    0.1073
    --------------------------------------------
      LOOP:  cpu time   16.2587: real time   16.3509

 eigenvalue-minimisations  :  3896
 total energy-change (2. order) : 0.2486731E+04  (-0.9611131E+04)
 number of electron     280.0000000 magnetization       2.0000000
 augmentation part      280.0000000 magnetization       2.0000000

 Free energy of the ion-electron system (eV)
  ---------------------------------------------------
  alpha Z        PSCENC =       116.22571397
  Ewald energy   TEWEN  =     23405.49231745
  -Hartree energ DENC   =    -35591.32353027
  -exchange      EXHF   =         0.00000000
  -V(xc)+E(xc)   XCENC  =      1033.04006271
  PAW double counting   =     11453.83848114   -11942.90478952
  entropy T*S    EENTRO =         0.00000000
  eigenvalues    EBANDS =     -1159.37307053
  atomic energy  EATOM  =     15171.73615219
  Solvation  Ediel_sol  =         0.00000000
  ---------------------------------------------------
  free energy    TOTEN  =      2486.73133713 eV

  energy without entropy =     2486.73133713  energy(sigma->0) =     2486.73133713


--------------------------------------------------------------------------------------------------------




--------------------------------------- Iteration      1(   2)  ---------------------------------------


     EDDAV:  cpu time   19.3931: real time   19.4338
 BZINTS: Fermi energy: -0.541010;280.000000 electrons
         Band energy:***********;  BLOECHL correction:  0.000000
       DOS:  cpu time    0.0145: real time    0.0145
    --------------------------------------------
      LOOP:  cpu time   19.4076: real time   19.4483

 eigenvalue-minimisations  :  4976
 total energy-change (2. order) :-0.2374306E+04  (-0.2275767E+04)
 number of electron     280.0000000 magnetization       2.0000000
 augmentation part      280.0000000 magnetization       2.0000000

 Free energy of the ion-electron system (eV)
  ---------------------------------------------------
  alpha Z        PSCENC =       116.22571397
  Ewald energy   TEWEN  =     23405.49231745
  -Hartree energ DENC   =    -35591.32353027
  -exchange      EXHF   =         0.00000000
  -V(xc)+E(xc)   XCENC  =      1033.04006271
  PAW double counting   =     11453.83848114   -11942.90478952
  entropy T*S    EENTRO =         0.00000000
  eigenvalues    EBANDS =     -3533.67955576
  atomic energy  EATOM  =     15171.73615219
  Solvation  Ediel_sol  =         0.00000000
  ---------------------------------------------------
  free energy    TOTEN  =       112.42485189 eV

  energy without entropy =      112.42485189  energy(sigma->0) =      112.42485189


--------------------------------------------------------------------------------------------------------




--------------------------------------- Iteration      1(   3)  ---------------------------------------


     EDDAV:  cpu time   17.2138: real time   17.2472
 BZINTS: Fermi energy: -3.625094;280.000000 electrons
         Band energy:***********;  BLOECHL correction: -0.005640
       DOS:  cpu time    0.0231: real time    0.0231
    --------------------------------------------
      LOOP:  cpu time   17.2369: real time   17.2703

 eigenvalue-minimisations  :  4292
 total energy-change (2. order) :-0.5713551E+03  (-0.5666096E+03)
 number of electron     280.0000000 magnetization       2.0000000
 augmentation part      280.0000000 magnetization       2.0000000

 Free energy of the ion-electron system (eV)
  ---------------------------------------------------
  alpha Z        PSCENC =       116.22571397
  Ewald energy   TEWEN  =     23405.49231745
  -Hartree energ DENC   =    -35591.32353027
  -exchange      EXHF   =         0.00000000
  -V(xc)+E(xc)   XCENC  =      1033.04006271
  PAW double counting   =     11453.83848114   -11942.90478952
  entropy T*S    EENTRO =         0.00000000
  eigenvalues    EBANDS =     -4105.03469738
  atomic energy  EATOM  =     15171.73615219
  Solvation  Ediel_sol  =         0.00000000
  ---------------------------------------------------
  free energy    TOTEN  =      -458.93028973 eV

  energy without entropy =     -458.93028973  energy(sigma->0) =     -458.93028973


--------------------------------------------------------------------------------------------------------




--------------------------------------- Iteration      1(   4)  ---------------------------------------


     EDDAV:  cpu time   16.6761: real time   16.7110
 BZINTS: Fermi energy: -4.021255;280.000000 electrons
         Band energy:***********;  BLOECHL correction:  0.000000
       DOS:  cpu time    0.0161: real time    0.0161
    --------------------------------------------
      LOOP:  cpu time   16.6921: real time   16.7271

 eigenvalue-minimisations  :  4120
 total energy-change (2. order) :-0.2662175E+02  (-0.2591088E+02)
 number of electron     280.0000000 magnetization       2.0000000
 augmentation part      280.0000000 magnetization       2.0000000

 Free energy of the ion-electron system (eV)
  ---------------------------------------------------
  alpha Z        PSCENC =       116.22571397
  Ewald energy   TEWEN  =     23405.49231745
  -Hartree energ DENC   =    -35591.32353027
  -exchange      EXHF   =         0.00000000
  -V(xc)+E(xc)   XCENC  =      1033.04006271
  PAW double counting   =     11453.83848114   -11942.90478952
  entropy T*S    EENTRO =         0.00000000
  eigenvalues    EBANDS =     -4131.65644571
  atomic energy  EATOM  =     15171.73615219
  Solvation  Ediel_sol  =         0.00000000
  ---------------------------------------------------
  free energy    TOTEN  =      -485.55203805 eV

  energy without entropy =     -485.55203805  energy(sigma->0) =     -485.55203805


--------------------------------------------------------------------------------------------------------




--------------------------------------- Iteration      1(   5)  ---------------------------------------


     EDDAV:  cpu time   20.2736: real time   20.3296
 BZINTS: Fermi energy: -4.056264;280.000000 electrons
         Band energy:***********;  BLOECHL correction:  0.000000
       DOS:  cpu time    0.0166: real time    0.0166
    CHARGE:  cpu time    0.2908: real time    0.2910
    MIXING:  cpu time    0.0044: real time    0.0046
    --------------------------------------------
      LOOP:  cpu time   20.5855: real time   20.6418

 eigenvalue-minimisations  :  5248
 total energy-change (2. order) :-0.1480127E+01  (-0.1463495E+01)
 number of electron     279.9999922 magnetization       0.0000001
 augmentation part       18.2420627 magnetization       0.0354161

 Broyden mixing:
  rms(total) = 0.34605E+01    rms(broyden)= 0.34575E+01
  rms(prec ) = 0.38281E+01
  weight for this iteration     100.00

 Free energy of the ion-electron system (eV)
  ---------------------------------------------------
  alpha Z        PSCENC =       116.22571397
  Ewald energy   TEWEN  =     23405.49231745
  -Hartree energ DENC   =    -35591.32353027
  -exchange      EXHF   =         0.00000000
  -V(xc)+E(xc)   XCENC  =      1033.04006271
  PAW double counting   =     11453.83848114   -11942.90478952
  entropy T*S    EENTRO =         0.00000000
  eigenvalues    EBANDS =     -4133.13657225
  atomic energy  EATOM  =     15171.73615219
  Solvation  Ediel_sol  =         0.00000000
  ---------------------------------------------------
  free energy    TOTEN  =      -487.03216460 eV

  energy without entropy =     -487.03216460  energy(sigma->0) =     -487.03216460


--------------------------------------------------------------------------------------------------------




--------------------------------------- Iteration      1(   6)  ---------------------------------------


    POTLOK:  cpu time    0.1515: real time    0.1559
    SETDIJ:  cpu time    0.0089: real time    0.0089
     EDDAV:  cpu time   17.5323: real time   17.5725
 BZINTS: Fermi energy: -4.230058;280.000000 electrons
         Band energy:***********;  BLOECHL correction:  0.000000
       DOS:  cpu time    0.0168: real time    0.0168
    CHARGE:  cpu time    0.2898: real time    0.2899
    MIXING:  cpu time    0.0052: real time    0.0105
    --------------------------------------------
      LOOP:  cpu time   18.0045: real time   18.0544

 eigenvalue-minimisations  :  4400
 total energy-change (2. order) : 0.1911313E+02  (-0.6622909E+01)
 number of electron     279.9999947 magnetization      -0.0000000
 augmentation part       16.9374785 magnetization       0.0093455

 Broyden mixing:
  rms(total) = 0.19791E+01    rms(broyden)= 0.19783E+01
  rms(prec ) = 0.21116E+01
  weight for this iteration     100.00

 eigenvalues of (default mixing * dielectric matrix)
  average eigenvalue GAMMA=   1.1527
  1.1527

 Free energy of the ion-electron system (eV)
  ---------------------------------------------------
  alpha Z        PSCENC =       116.22571397
  Ewald energy   TEWEN  =     23405.49231745
  -Hartree energ DENC   =    -35763.51345409
  -exchange      EXHF   =         0.00000000
  -V(xc)+E(xc)   XCENC  =      1043.97090439
  PAW double counting   =     13749.69125816   -14239.04320164
  entropy T*S    EENTRO =         0.00000000
  eigenvalues    EBANDS =     -3952.47872243
  atomic energy  EATOM  =     15171.73615219
  Solvation  Ediel_sol  =         0.00000000
  ---------------------------------------------------
  free energy    TOTEN  =      -467.91903201 eV

  energy without entropy =     -467.91903201  energy(sigma->0) =     -467.91903201


--------------------------------------------------------------------------------------------------------




--------------------------------------- Iteration      1(   7)  ---------------------------------------


    POTLOK:  cpu time    0.1479: real time    0.1576
    SETDIJ:  cpu time    0.0090: real time    0.0090
     EDDAV:  cpu time   16.9851: real time   17.0140
 BZINTS: Fermi energy: -4.030008;280.000000 electrons
         Band energy:***********;  BLOECHL correction:  0.000000
       DOS:  cpu time    0.0157: real time    0.0157
    CHARGE:  cpu time    0.2878: real time    0.2878
    MIXING:  cpu time    0.0043: real time    0.0051
    --------------------------------------------
      LOOP:  cpu time   17.4499: real time   17.4893

 eigenvalue-minimisations  :  4184
 total energy-change (2. order) : 0.1094385E+01  (-0.2925062E+01)
 number of electron     279.9999950 magnetization      -0.0000000
 augmentation part       16.8078278 magnetization       0.0065941

 Broyden mixing:
  rms(total) = 0.14110E+01    rms(broyden)= 0.14106E+01
  rms(prec ) = 0.15256E+01
  weight for this iteration     100.00

 eigenvalues of (default mixing * dielectric matrix)
  average eigenvalue GAMMA=   1.2655
  0.8883  1.6428

 Free energy of the ion-electron system (eV)
  ---------------------------------------------------
  alpha Z        PSCENC =       116.22571397
  Ewald energy   TEWEN  =     23405.49231745
  -Hartree energ DENC   =    -35874.14283430
  -exchange      EXHF   =         0.00000000
  -V(xc)+E(xc)   XCENC  =      1048.81448423
  PAW double counting   =     15867.03940684   -16357.02843007
  entropy T*S    EENTRO =         0.00000000
  eigenvalues    EBANDS =     -3844.96145724
  atomic energy  EATOM  =     15171.73615219
  Solvation  Ediel_sol  =         0.00000000
  ---------------------------------------------------
  free energy    TOTEN  =      -466.82464694 eV

  energy without entropy =     -466.82464694  energy(sigma->0) =     -466.82464694


--------------------------------------------------------------------------------------------------------




--------------------------------------- Iteration      1(   8)  ---------------------------------------


    POTLOK:  cpu time    0.1504: real time    0.1509
    SETDIJ:  cpu time    0.0092: real time    0.0092
     EDDAV:  cpu time   16.8924: real time   16.9312
 BZINTS: Fermi energy: -3.796199;280.000000 electrons
         Band energy:***********;  BLOECHL correction:  0.000000
       DOS:  cpu time    0.0167: real time    0.0167
    CHARGE:  cpu time    0.2840: real time    0.2868
    MIXING:  cpu time    0.0043: real time    0.0044
    --------------------------------------------
      LOOP:  cpu time   17.3570: real time   17.3991

 eigenvalue-minimisations  :  4160
 total energy-change (2. order) : 0.1003409E+01  (-0.1575120E+01)
 number of electron     279.9999952 magnetization       0.0000000
 augmentation part       16.6031127 magnetization       0.0026673

 Broyden mixing:
  rms(total) = 0.10114E+01    rms(broyden)= 0.10112E+01
  rms(prec ) = 0.11076E+01
  weight for this iteration     100.00

 eigenvalues of (default mixing * dielectric matrix)
  average eigenvalue GAMMA=   1.4932
  2.7822  1.1056  0.5919

 Free energy of the ion-electron system (eV)
  ---------------------------------------------------
  alpha Z        PSCENC =       116.22571397
  Ewald energy   TEWEN  =     23405.49231745
  -Hartree energ DENC   =    -35932.11198046
  -exchange      EXHF   =         0.00000000
  -V(xc)+E(xc)   XCENC  =      1051.62386958
  PAW double counting   =     17634.64315492   -18125.90101861
  entropy T*S    EENTRO =         0.00000000
  eigenvalues    EBANDS =     -3787.52944728
  atomic energy  EATOM  =     15171.73615219
  Solvation  Ediel_sol  =         0.00000000
  ---------------------------------------------------
  free energy    TOTEN  =      -465.82123824 eV

  energy without entropy =     -465.82123824  energy(sigma->0) =     -465.82123824


--------------------------------------------------------------------------------------------------------




--------------------------------------- Iteration      1(   9)  ---------------------------------------


    POTLOK:  cpu time    0.1452: real time    0.1515
    SETDIJ:  cpu time    0.0089: real time    0.0089
     EDDAV:  cpu time   18.7950: real time   18.8228
 BZINTS: Fermi energy: -3.641160;280.000000 electrons
         Band energy:***********;  BLOECHL correction:  0.000000
       DOS:  cpu time    0.0198: real time    0.0201
    CHARGE:  cpu time    0.2843: real time    0.2843
    MIXING:  cpu time    0.0046: real time    0.0046
    --------------------------------------------
      LOOP:  cpu time   19.2579: real time   19.2923

 eigenvalue-minimisations  :  4776
 total energy-change (2. order) :-0.2156328E+00  (-0.1879629E+01)
 number of electron     279.9999947 magnetization       0.0000000
 augmentation part       16.7376743 magnetization      -0.0005156

 Broyden mixing:
  rms(total) = 0.64345E+00    rms(broyden)= 0.64311E+00
  rms(prec ) = 0.81735E+00
  weight for this iteration     100.00

 eigenvalues of (default mixing * dielectric matrix)
  average eigenvalue GAMMA=   1.4405
  3.4509  1.1392  0.5860  0.5860

 Free energy of the ion-electron system (eV)
  ---------------------------------------------------
  alpha Z        PSCENC =       116.22571397
  Ewald energy   TEWEN  =     23405.49231745
  -Hartree energ DENC   =    -35983.45464239
  -exchange      EXHF   =         0.00000000
  -V(xc)+E(xc)   XCENC  =      1053.70698098
  PAW double counting   =     19880.78521417   -20375.84294861
  entropy T*S    EENTRO =         0.00000000
  eigenvalues    EBANDS =     -3734.68565877
  atomic energy  EATOM  =     15171.73615219
  Solvation  Ediel_sol  =         0.00000000
  ---------------------------------------------------
  free energy    TOTEN  =      -466.03687102 eV

  energy without entropy =     -466.03687102  energy(sigma->0) =     -466.03687102


--------------------------------------------------------------------------------------------------------




--------------------------------------- Iteration      1(  10)  ---------------------------------------


    POTLOK:  cpu time    0.1426: real time    0.1590
    SETDIJ:  cpu time    0.0091: real time    0.0091
     EDDAV:  cpu time   18.0876: real time   18.1086
 BZINTS: Fermi energy: -3.271068;280.000000 electrons
         Band energy:***********;  BLOECHL correction:  0.000000
       DOS:  cpu time    0.0165: real time    0.0165
    CHARGE:  cpu time    0.2877: real time    0.2878
    MIXING:  cpu time    0.0048: real time    0.0049
    --------------------------------------------
      LOOP:  cpu time   18.5484: real time   18.5859

 eigenvalue-minimisations  :  4576
 total energy-change (2. order) : 0.8334033E+00  (-0.7494409E+00)
 number of electron     279.9999952 magnetization       0.0000000
 augmentation part       16.7308298 magnetization      -0.0011517

 Broyden mixing:
  rms(total) = 0.32490E+00    rms(broyden)= 0.32397E+00
  rms(prec ) = 0.43072E+00
  weight for this iteration     100.00

 eigenvalues of (default mixing * dielectric matrix)
  average eigenvalue GAMMA=   1.3455
  3.7155  1.1788  0.8399  0.4968  0.4968

 Free energy of the ion-electron system (eV)
  ---------------------------------------------------
  alpha Z        PSCENC =       116.22571397
  Ewald energy   TEWEN  =     23405.49231745
  -Hartree energ DENC   =    -36011.49071438
  -exchange      EXHF   =         0.00000000
  -V(xc)+E(xc)   XCENC  =      1055.31053531
  PAW double counting   =     21364.74477771   -21860.01125818
  entropy T*S    EENTRO =         0.00000000
  eigenvalues    EBANDS =     -3707.21099174
  atomic energy  EATOM  =     15171.73615219
  Solvation  Ediel_sol  =         0.00000000
  ---------------------------------------------------
  free energy    TOTEN  =      -465.20346768 eV

  energy without entropy =     -465.20346768  energy(sigma->0) =     -465.20346768


--------------------------------------------------------------------------------------------------------




--------------------------------------- Iteration      1(  11)  ---------------------------------------


    POTLOK:  cpu time    0.1534: real time    0.1587
    SETDIJ:  cpu time    0.0090: real time    0.0090
     EDDAV:  cpu time   17.3755: real time   17.3960
 BZINTS: Fermi energy: -3.296074;280.000000 electrons
         Band energy:***********;  BLOECHL correction:  0.000000
       DOS:  cpu time    0.0163: real time    0.0163
    CHARGE:  cpu time    0.2873: real time    0.2874
    MIXING:  cpu time    0.0050: real time    0.0050
    --------------------------------------------
      LOOP:  cpu time   17.8465: real time   17.8724

 eigenvalue-minimisations  :  4288
 total energy-change (2. order) : 0.1104206E+00  (-0.3384893E+00)
 number of electron     279.9999949 magnetization       0.0000000
 augmentation part       16.7190998 magnetization      -0.0013398

 Broyden mixing:
  rms(total) = 0.24767E+00    rms(broyden)= 0.24717E+00
  rms(prec ) = 0.33840E+00
  weight for this iteration     100.00

 eigenvalues of (default mixing * dielectric matrix)
  average eigenvalue GAMMA=   1.2628
  3.7135  1.1465  0.9072  0.9072  0.4512  0.4512

 Free energy of the ion-electron system (eV)
  ---------------------------------------------------
  alpha Z        PSCENC =       116.22571397
  Ewald energy   TEWEN  =     23405.49231745
  -Hartree energ DENC   =    -36014.65891980
  -exchange      EXHF   =         0.00000000
  -V(xc)+E(xc)   XCENC  =      1055.56738847
  PAW double counting   =     21915.23917701   -22410.17131434
  entropy T*S    EENTRO =         0.00000000
  eigenvalues    EBANDS =     -3704.52356198
  atomic energy  EATOM  =     15171.73615219
  Solvation  Ediel_sol  =         0.00000000
  ---------------------------------------------------
  free energy    TOTEN  =      -465.09304704 eV

  energy without entropy =     -465.09304704  energy(sigma->0) =     -465.09304704


--------------------------------------------------------------------------------------------------------




--------------------------------------- Iteration      1(  12)  ---------------------------------------


    POTLOK:  cpu time    0.1447: real time    0.1507
    SETDIJ:  cpu time    0.0089: real time    0.0089
     EDDAV:  cpu time   18.3298: real time   18.3593
 BZINTS: Fermi energy: -3.291073;280.000000 electrons
         Band energy:***********;  BLOECHL correction:  0.000000
       DOS:  cpu time    0.0162: real time    0.0162
    CHARGE:  cpu time    0.2875: real time    0.2882
    MIXING:  cpu time    0.0053: real time    0.0053
    --------------------------------------------
      LOOP:  cpu time   18.7927: real time   18.8290

 eigenvalue-minimisations  :  4648
 total energy-change (2. order) : 0.1041782E+00  (-0.1632401E+00)
 number of electron     279.9999951 magnetization      -0.0000000
 augmentation part       16.6681226 magnetization      -0.0008538

 Broyden mixing:
  rms(total) = 0.13418E+00    rms(broyden)= 0.13376E+00
  rms(prec ) = 0.16418E+00
  weight for this iteration     100.00

 eigenvalues of (default mixing * dielectric matrix)
  average eigenvalue GAMMA=   1.2444
  3.6619  1.5559  1.1284  0.7277  0.7277  0.4546  0.4546

 Free energy of the ion-electron system (eV)
  ---------------------------------------------------
  alpha Z        PSCENC =       116.22571397
  Ewald energy   TEWEN  =     23405.49231745
  -Hartree energ DENC   =    -36008.40835532
  -exchange      EXHF   =         0.00000000
  -V(xc)+E(xc)   XCENC  =      1055.38165795
  PAW double counting   =     22022.38982306   -22516.68616636
  entropy T*S    EENTRO =         0.00000000
  eigenvalues    EBANDS =     -3711.12001180
  atomic energy  EATOM  =     15171.73615219
  Solvation  Ediel_sol  =         0.00000000
  ---------------------------------------------------
  free energy    TOTEN  =      -464.98886888 eV

  energy without entropy =     -464.98886888  energy(sigma->0) =     -464.98886888


--------------------------------------------------------------------------------------------------------




--------------------------------------- Iteration      1(  13)  ---------------------------------------


    POTLOK:  cpu time    0.1495: real time    0.1522
    SETDIJ:  cpu time    0.0088: real time    0.0088
     EDDAV:  cpu time   16.6253: real time   16.6422
 BZINTS: Fermi energy: -3.309827;280.000000 electrons
         Band energy:***********;  BLOECHL correction:  0.000000
       DOS:  cpu time    0.0162: real time    0.0162
    CHARGE:  cpu time    0.2818: real time    0.2819
    MIXING:  cpu time    0.0055: real time    0.0056
    --------------------------------------------
      LOOP:  cpu time   17.0870: real time   17.1068

 eigenvalue-minimisations  :  4080
 total energy-change (2. order) : 0.2696672E-01  (-0.1800719E-01)
 number of electron     279.9999951 magnetization      -0.0000000
 augmentation part       16.6789179 magnetization      -0.0003247

 Broyden mixing:
  rms(total) = 0.76119E-01    rms(broyden)= 0.76096E-01
  rms(prec ) = 0.87377E-01
  weight for this iteration     100.00

 eigenvalues of (default mixing * dielectric matrix)
  average eigenvalue GAMMA=   1.2721
  3.6318  2.2540  1.1038  0.7573  0.7573  0.7641  0.4540  0.4540

 Free energy of the ion-electron system (eV)
  ---------------------------------------------------
  alpha Z        PSCENC =       116.22571397
  Ewald energy   TEWEN  =     23405.49231745
  -Hartree energ DENC   =    -35996.83066490
  -exchange      EXHF   =         0.00000000
  -V(xc)+E(xc)   XCENC  =      1054.92766931
  PAW double counting   =     22077.44724632   -22571.61787602
  entropy T*S    EENTRO =         0.00000000
  eigenvalues    EBANDS =     -3722.34246047
  atomic energy  EATOM  =     15171.73615219
  Solvation  Ediel_sol  =         0.00000000
  ---------------------------------------------------
  free energy    TOTEN  =      -464.96190216 eV

  energy without entropy =     -464.96190216  energy(sigma->0) =     -464.96190216


--------------------------------------------------------------------------------------------------------




--------------------------------------- Iteration      1(  14)  ---------------------------------------


    POTLOK:  cpu time    0.1493: real time    0.1563
    SETDIJ:  cpu time    0.0089: real time    0.0089
     EDDAV:  cpu time   17.0374: real time   17.0594
 BZINTS: Fermi energy: -3.346087;280.000000 electrons
         Band energy:***********;  BLOECHL correction:  0.000000
       DOS:  cpu time    0.0169: real time    0.0169
    CHARGE:  cpu time    0.2888: real time    0.2892
    MIXING:  cpu time    0.0057: real time    0.0057
    --------------------------------------------
      LOOP:  cpu time   17.5069: real time   17.5363

 eigenvalue-minimisations  :  4208
 total energy-change (2. order) : 0.5425743E-02  (-0.7821989E-02)
 number of electron     279.9999950 magnetization      -0.0000000
 augmentation part       16.6887757 magnetization       0.0000535

 Broyden mixing:
  rms(total) = 0.44432E-01    rms(broyden)= 0.44324E-01
  rms(prec ) = 0.54701E-01
  weight for this iteration     100.00

 eigenvalues of (default mixing * dielectric matrix)
  average eigenvalue GAMMA=   1.2896
  3.6832  2.5661  1.0376  0.9206  0.9206  0.7866  0.7866  0.4526  0.4526

 Free energy of the ion-electron system (eV)
  ---------------------------------------------------
  alpha Z        PSCENC =       116.22571397
  Ewald energy   TEWEN  =     23405.49231745
  -Hartree energ DENC   =    -35988.75496981
  -exchange      EXHF   =         0.00000000
  -V(xc)+E(xc)   XCENC  =      1054.60131007
  PAW double counting   =     22142.67832441   -22636.75465052
  entropy T*S    EENTRO =         0.00000000
  eigenvalues    EBANDS =     -3730.18067418
  atomic energy  EATOM  =     15171.73615219
  Solvation  Ediel_sol  =         0.00000000
  ---------------------------------------------------
  free energy    TOTEN  =      -464.95647642 eV

  energy without entropy =     -464.95647642  energy(sigma->0) =     -464.95647642


--------------------------------------------------------------------------------------------------------




--------------------------------------- Iteration      1(  15)  ---------------------------------------


    POTLOK:  cpu time    0.1483: real time    0.1576
    SETDIJ:  cpu time    0.0088: real time    0.0088
     EDDAV:  cpu time   17.2630: real time   17.2759
 BZINTS: Fermi energy: -3.346087;280.000000 electrons
         Band energy:***********;  BLOECHL correction:  0.000000
       DOS:  cpu time    0.0166: real time    0.0166
    CHARGE:  cpu time    0.2872: real time    0.2872
    MIXING:  cpu time    0.0060: real time    0.0060
    --------------------------------------------
      LOOP:  cpu time   17.7300: real time   17.7521

 eigenvalue-minimisations  :  4280
 total energy-change (2. order) :-0.1582941E-02  (-0.8251119E-02)
 number of electron     279.9999951 magnetization      -0.0000000
 augmentation part       16.6879089 magnetization       0.0000740

 Broyden mixing:
  rms(total) = 0.48565E-01    rms(broyden)= 0.48467E-01
  rms(prec ) = 0.66170E-01
  weight for this iteration     100.00

 eigenvalues of (default mixing * dielectric matrix)
  average eigenvalue GAMMA=   1.2817
  3.6853  2.7697  1.1201  1.1201  1.1216  0.7298  0.7298  0.6378  0.4513  0.4513

 Free energy of the ion-electron system (eV)
  ---------------------------------------------------
  alpha Z        PSCENC =       116.22571397
  Ewald energy   TEWEN  =     23405.49231745
  -Hartree energ DENC   =    -35987.34492955
  -exchange      EXHF   =         0.00000000
  -V(xc)+E(xc)   XCENC  =      1054.53638449
  PAW double counting   =     22188.81604788   -22682.86283741
  entropy T*S    EENTRO =         0.00000000
  eigenvalues    EBANDS =     -3731.55690836
  atomic energy  EATOM  =     15171.73615219
  Solvation  Ediel_sol  =         0.00000000
  ---------------------------------------------------
  free energy    TOTEN  =      -464.95805936 eV

  energy without entropy =     -464.95805936  energy(sigma->0) =     -464.95805936


--------------------------------------------------------------------------------------------------------




--------------------------------------- Iteration      1(  16)  ---------------------------------------


    POTLOK:  cpu time    0.1506: real time    0.1529
    SETDIJ:  cpu time    0.0090: real time    0.0090
     EDDAV:  cpu time   17.1487: real time   17.1762
 BZINTS: Fermi energy: -3.351088;280.000000 electrons
         Band energy:***********;  BLOECHL correction:  0.000000
       DOS:  cpu time    0.0162: real time    0.0162
    CHARGE:  cpu time    0.2897: real time    0.2898
    MIXING:  cpu time    0.0062: real time    0.0062
    --------------------------------------------
      LOOP:  cpu time   17.6204: real time   17.6503

 eigenvalue-minimisations  :  4264
 total energy-change (2. order) : 0.2543722E-02  (-0.6476286E-02)
 number of electron     279.9999950 magnetization      -0.0000000
 augmentation part       16.6890714 magnetization       0.0000573

 Broyden mixing:
  rms(total) = 0.28297E-01    rms(broyden)= 0.28147E-01
  rms(prec ) = 0.38118E-01
  weight for this iteration     100.00

 eigenvalues of (default mixing * dielectric matrix)
  average eigenvalue GAMMA=   1.2646
  3.6657  2.9581  1.3148  1.1349  1.1349  0.7288  0.7288  0.7938  0.5588  0.4463
  0.4463

 Free energy of the ion-electron system (eV)
  ---------------------------------------------------
  alpha Z        PSCENC =       116.22571397
  Ewald energy   TEWEN  =     23405.49231745
  -Hartree energ DENC   =    -35986.49742066
  -exchange      EXHF   =         0.00000000
  -V(xc)+E(xc)   XCENC  =      1054.50223637
  PAW double counting   =     22202.11189565   -22696.18794207
  entropy T*S    EENTRO =         0.00000000
  eigenvalues    EBANDS =     -3732.33846853
  atomic energy  EATOM  =     15171.73615219
  Solvation  Ediel_sol  =         0.00000000
  ---------------------------------------------------
  free energy    TOTEN  =      -464.95551563 eV

  energy without entropy =     -464.95551563  energy(sigma->0) =     -464.95551563


--------------------------------------------------------------------------------------------------------




--------------------------------------- Iteration      1(  17)  ---------------------------------------


    POTLOK:  cpu time    0.1479: real time    0.1549
    SETDIJ:  cpu time    0.0089: real time    0.0089
     EDDAV:  cpu time   16.4826: real time   16.5188
 BZINTS: Fermi energy: -3.349837;280.000000 electrons
         Band energy:***********;  BLOECHL correction:  0.000000
       DOS:  cpu time    0.0158: real time    0.0158
    CHARGE:  cpu time    0.2899: real time    0.2920
    MIXING:  cpu time    0.0066: real time    0.0067
    --------------------------------------------
      LOOP:  cpu time   16.9518: real time   16.9970

 eigenvalue-minimisations  :  4024
 total energy-change (2. order) : 0.4362162E-03  (-0.1449886E-02)
 number of electron     279.9999951 magnetization      -0.0000000
 augmentation part       16.6890381 magnetization      -0.0000281

 Broyden mixing:
  rms(total) = 0.11636E-01    rms(broyden)= 0.11592E-01
  rms(prec ) = 0.13456E-01
  weight for this iteration     100.00

 eigenvalues of (default mixing * dielectric matrix)
  average eigenvalue GAMMA=   1.2872
  3.6758  2.7905  1.5529  1.2714  1.2714  1.0492  0.9258  0.7422  0.7422  0.4449
  0.4449  0.5351

 Free energy of the ion-electron system (eV)
  ---------------------------------------------------
  alpha Z        PSCENC =       116.22571397
  Ewald energy   TEWEN  =     23405.49231745
  -Hartree energ DENC   =    -35986.31117227
  -exchange      EXHF   =         0.00000000
  -V(xc)+E(xc)   XCENC  =      1054.49564973
  PAW double counting   =     22206.35351047   -22700.43519690
  entropy T*S    EENTRO =         0.00000000
  eigenvalues    EBANDS =     -3732.51205405
  atomic energy  EATOM  =     15171.73615219
  Solvation  Ediel_sol  =         0.00000000
  ---------------------------------------------------
  free energy    TOTEN  =      -464.95507942 eV

  energy without entropy =     -464.95507942  energy(sigma->0) =     -464.95507942


--------------------------------------------------------------------------------------------------------




--------------------------------------- Iteration      1(  18)  ---------------------------------------


    POTLOK:  cpu time    0.1503: real time    0.1610
    SETDIJ:  cpu time    0.0089: real time    0.0089
     EDDAV:  cpu time   15.9533: real time   15.9910
 BZINTS: Fermi energy: -3.346087;280.000000 electrons
         Band energy:***********;  BLOECHL correction:  0.000000
       DOS:  cpu time    0.0166: real time    0.0166
    CHARGE:  cpu time    0.2873: real time    0.2873
    MIXING:  cpu time    0.0069: real time    0.0069
    --------------------------------------------
      LOOP:  cpu time   16.4232: real time   16.4717

 eigenvalue-minimisations  :  3864
 total energy-change (2. order) :-0.1574454E-03  (-0.3018165E-03)
 number of electron     279.9999950 magnetization      -0.0000000
 augmentation part       16.6892553 magnetization      -0.0001699

 Broyden mixing:
  rms(total) = 0.98274E-02    rms(broyden)= 0.98122E-02
  rms(prec ) = 0.12115E-01
  weight for this iteration     100.00

 eigenvalues of (default mixing * dielectric matrix)
  average eigenvalue GAMMA=   1.2171
  3.6721  2.7628  1.7728  1.1846  1.1846  1.1317  0.9070  0.7414  0.7414  0.5383
  0.4458  0.4458  0.2940

 Free energy of the ion-electron system (eV)
  ---------------------------------------------------
  alpha Z        PSCENC =       116.22571397
  Ewald energy   TEWEN  =     23405.49231745
  -Hartree energ DENC   =    -35986.76184319
  -exchange      EXHF   =         0.00000000
  -V(xc)+E(xc)   XCENC  =      1054.51768507
  PAW double counting   =     22205.99659004   -22700.09648295
  entropy T*S    EENTRO =         0.00000000
  eigenvalues    EBANDS =     -3732.06536944
  atomic energy  EATOM  =     15171.73615219
  Solvation  Ediel_sol  =         0.00000000
  ---------------------------------------------------
  free energy    TOTEN  =      -464.95523686 eV

  energy without entropy =     -464.95523686  energy(sigma->0) =     -464.95523686


--------------------------------------------------------------------------------------------------------




--------------------------------------- Iteration      1(  19)  ---------------------------------------


    POTLOK:  cpu time    0.1463: real time    0.1526
    SETDIJ:  cpu time    0.0089: real time    0.0089
     EDDAV:  cpu time   13.3669: real time   13.3954
 BZINTS: Fermi energy: -3.346087;280.000000 electrons
         Band energy:***********;  BLOECHL correction:  0.000000
       DOS:  cpu time    0.0161: real time    0.0161
    CHARGE:  cpu time    0.2847: real time    0.2848
    MIXING:  cpu time    0.0071: real time    0.0071
    --------------------------------------------
      LOOP:  cpu time   13.8300: real time   13.8649

 eigenvalue-minimisations  :  3040
 total energy-change (2. order) :-0.9894837E-04  (-0.1828137E-03)
 number of electron     279.9999951 magnetization      -0.0000000
 augmentation part       16.6888612 magnetization      -0.0004277

 Broyden mixing:
  rms(total) = 0.93128E-02    rms(broyden)= 0.92927E-02
  rms(prec ) = 0.93507E-02
  weight for this iteration     100.00

 eigenvalues of (default mixing * dielectric matrix)
  average eigenvalue GAMMA=   1.3220
  3.6581  2.8920  2.8920  0.9650  1.1864  1.1864  1.1882  0.7475  0.7475  0.8145
  0.8145  0.4439  0.4439  0.5285

 Free energy of the ion-electron system (eV)
  ---------------------------------------------------
  alpha Z        PSCENC =       116.22571397
  Ewald energy   TEWEN  =     23405.49231745
  -Hartree energ DENC   =    -35987.05724673
  -exchange      EXHF   =         0.00000000
  -V(xc)+E(xc)   XCENC  =      1054.53127213
  PAW double counting   =     22204.98596683   -22699.08526809
  entropy T*S    EENTRO =         0.00000000
  eigenvalues    EBANDS =     -3731.78424356
  atomic energy  EATOM  =     15171.73615219
  Solvation  Ediel_sol  =         0.00000000
  ---------------------------------------------------
  free energy    TOTEN  =      -464.95533581 eV

  energy without entropy =     -464.95533581  energy(sigma->0) =     -464.95533581


--------------------------------------------------------------------------------------------------------




--------------------------------------- Iteration      1(  20)  ---------------------------------------


[...]
   -.129E+02 0.430E+02 0.153E+03   0.136E+02 -.447E+02 -.154E+03   -.502E+00 0.181E+01 0.119E+01   0.622E-03 0.444E-02 0.308E-02
   -.507E+02 -.133E+02 0.741E+02   0.523E+02 0.142E+02 -.744E+02   -.202E+01 -.896E+00 0.700E+00   -.157E-02 0.888E-03 0.364E-03
   0.332E+02 -.262E+02 -.281E+02   -.338E+02 0.218E+02 0.265E+02   0.369E+00 0.289E+01 0.735E+00   -.676E-03 0.428E-02 0.263E-03
   0.242E+02 -.119E+02 -.380E+02   -.195E+02 0.148E+02 0.375E+02   -.310E+01 -.175E+01 0.314E+00   -.212E-02 -.157E-03 0.187E-03
   -.855E+01 0.103E+01 -.467E+02   0.377E+01 0.182E+01 0.462E+02   0.322E+01 -.161E+01 0.128E+00   0.615E-03 0.368E-03 0.110E-03
   -.205E+02 0.146E+02 -.556E+02   0.204E+02 -.128E+02 0.563E+02   0.915E+00 -.155E+01 -.109E+01   0.458E-02 -.417E-02 -.248E-02
   -.290E+01 0.155E+02 0.378E+02   0.283E+01 -.171E+02 -.367E+02   0.225E-01 0.243E+01 -.518E+00   0.110E-02 -.194E-03 -.225E-03
   0.266E+02 0.135E+02 -.520E+02   -.263E+02 -.114E+02 0.520E+02   -.107E+01 -.181E+01 -.886E+00   0.167E-02 -.922E-03 0.769E-04
   -.289E+01 -.165E+02 -.104E+02   0.291E+01 0.113E+02 0.119E+02   -.911E-01 0.352E+01 -.818E+00   -.391E-02 0.300E-02 -.755E-03
   0.347E+02 0.249E+02 0.148E+03   -.302E+02 -.224E+02 -.147E+03   -.288E+01 -.168E+01 -.210E-01   -.798E-02 -.605E-03 0.145E-02
   -.141E+02 0.202E+02 0.670E+02   0.958E+01 -.175E+02 -.660E+02   0.294E+01 -.147E+01 -.575E+00   -.589E-02 0.253E-02 0.719E-03
   0.525E+02 -.121E+02 0.509E+02   -.540E+02 0.131E+02 -.510E+02   0.206E+01 -.909E+00 0.346E+00   0.250E-02 -.119E-02 0.206E-03
   0.418E+01 0.610E+02 0.163E+03   -.474E+01 -.627E+02 -.164E+03   0.115E+00 0.189E+01 0.122E+01   0.143E-02 0.253E-02 -.348E-03
   -.520E+02 -.474E+02 -.766E+02   0.534E+02 0.482E+02 0.766E+02   -.196E+01 -.107E+01 -.363E+00   -.165E-03 -.199E-02 0.661E-03
   -.279E+02 -.255E+02 -.110E+03   0.284E+02 0.210E+02 0.108E+03   -.368E-01 0.278E+01 0.694E+00   0.256E-03 -.197E-02 -.535E-03
   0.114E+02 0.161E+00 -.854E+02   -.653E+01 0.261E+01 0.841E+02   -.317E+01 -.155E+01 0.362E+00   -.176E-02 -.250E-02 0.158E-03
   -.266E+02 -.805E+01 -.692E+02   0.219E+02 0.112E+02 0.679E+02   0.304E+01 -.183E+01 0.753E+00   0.331E-02 -.300E-02 0.505E-03
   0.593E+02 -.565E+02 0.106E+03   -.613E+02 0.571E+02 -.105E+03   0.193E+01 -.138E+01 -.377E-01   0.102E-02 0.219E-02 0.984E-04
   -.832E+01 0.349E+02 -.147E+03   0.829E+01 -.370E+02 0.147E+03   -.750E-02 0.250E+01 -.115E+01   -.946E-03 0.175E-02 -.933E-03
   -.681E+02 -.207E+02 -.474E+02   0.700E+02 0.210E+02 0.479E+02   -.214E+01 -.448E+00 -.799E+00   -.377E-02 -.513E-02 -.220E-02
   -.118E+02 0.320E+02 0.127E+03   0.120E+02 -.329E+02 -.129E+03   -.299E+00 0.545E+00 0.224E+01   0.119E-01 0.199E-02 0.893E-03
   -.155E+03 -.228E+02 0.173E+03   0.182E+03 0.376E+02 -.183E+03   -.298E+02 -.165E+02 0.118E+02   0.118E-02 0.186E-02 0.417E-03
   0.124E+03 -.123E+03 -.185E+03   -.151E+03 0.137E+03 0.195E+03   0.297E+02 -.156E+02 -.113E+02   -.109E-02 0.147E-02 0.837E-04
   0.203E+01 0.136E+03 0.306E+03   0.246E+00 -.162E+03 -.325E+03   -.281E+01 0.280E+02 0.222E+02   -.369E-02 0.994E-02 0.727E-02
   -.326E+02 0.113E+03 0.321E+03   0.298E+02 -.136E+03 -.343E+03   0.274E+01 0.257E+02 0.245E+02   0.587E-02 0.753E-02 0.694E-02
   0.153E+03 -.784E+02 -.885E+02   -.179E+03 0.960E+02 0.883E+02   0.289E+02 -.200E+02 -.313E+00   -.488E-02 0.382E-02 -.614E-03
   -.115E+03 -.642E+02 0.197E+03   0.141E+03 0.719E+02 -.214E+03   -.290E+02 -.871E+01 0.193E+02   -.145E-02 0.225E-02 -.283E-03
   -.365E+01 -.953E-01 -.192E+02   0.378E+01 0.221E+00 0.201E+02   -.180E+00 -.662E-01 -.105E+01   -.866E-04 0.435E-03 -.120E-03
   0.140E+02 -.195E+02 -.749E+02   -.144E+02 0.199E+02 0.789E+02   0.172E+00 -.570E+00 -.448E+01   -.668E-03 0.192E-02 0.687E-03
   0.831E+00 -.499E+02 -.236E+03   0.179E+02 0.610E+02 0.256E+03   -.205E+02 -.124E+02 -.225E+02   0.255E-02 -.192E-03 0.978E-03
   0.504E+01 0.544E+02 -.589E+02   -.220E+02 -.505E+02 0.683E+02   0.193E+02 -.414E+01 -.105E+02   0.626E-02 -.253E-02 -.244E-02
   -.137E+02 0.874E+02 0.970E+02   0.165E+02 -.117E+03 -.106E+03   -.317E+01 0.329E+02 0.100E+02   0.115E-02 -.296E-02 -.563E-03
   0.168E+00 0.847E+02 0.108E+03   -.211E+01 -.114E+03 -.116E+03   0.229E+01 0.328E+02 0.101E+02   0.235E-02 -.451E-04 -.253E-03
   0.296E+02 -.487E+02 -.258E+03   -.522E+02 0.602E+02 0.272E+03   0.247E+02 -.131E+02 -.174E+02   0.136E-02 -.623E-02 -.230E-02
   -.652E+00 0.620E+02 -.843E+02   0.161E+02 -.586E+02 0.969E+02   -.175E+02 -.348E+01 -.143E+02   0.583E-02 0.229E-02 0.274E-02
   0.419E+02 0.147E+02 0.561E+02   -.455E+02 -.173E+02 -.554E+02   0.454E+01 0.307E+01 -.437E+00   0.235E-02 0.384E-02 0.111E-02
   0.117E+02 0.308E+02 0.114E+03   -.134E+02 -.324E+02 -.119E+03   0.194E+01 0.182E+01 0.474E+01   -.156E-01 0.519E-02 0.781E-03
   -.150E+03 -.822E+02 -.964E+02   0.177E+03 0.993E+02 0.967E+02   -.295E+02 -.193E+02 -.727E+00   0.414E-04 -.508E-03 0.132E-02
   0.118E+03 -.543E+02 0.153E+03   -.145E+03 0.617E+02 -.168E+03   0.302E+02 -.827E+01 0.168E+02   0.157E-02 -.225E-02 0.437E-03
   0.117E+02 0.131E+03 0.330E+03   -.692E+01 -.155E+03 -.351E+03   -.497E+01 0.265E+02 0.231E+02   0.600E-02 -.194E-02 -.296E-02
   0.498E+01 0.187E+03 0.277E+03   -.644E+01 -.218E+03 -.286E+03   0.205E+01 0.336E+02 0.108E+02   -.836E-03 -.384E-02 -.286E-02
   0.155E+03 -.237E+02 0.105E+03   -.183E+03 0.395E+02 -.109E+03   0.305E+02 -.178E+02 0.555E+01   0.336E-02 -.264E-02 0.233E-03
   -.113E+03 -.126E+03 -.227E+03   0.139E+03 0.140E+03 0.239E+03   -.282E+02 -.154E+02 -.145E+02   0.206E-02 -.247E-02 0.991E-03
   0.633E+00 -.277E+02 -.981E+01   -.521E+00 0.288E+02 0.766E+01   -.117E+00 -.134E+01 0.246E+01   -.941E-03 -.198E-02 0.345E-03
   -.136E+02 -.213E+02 -.145E+03   0.137E+02 0.230E+02 0.151E+03   0.140E+00 -.189E+01 -.601E+01   0.115E-02 -.275E-02 0.120E-03
   -.180E+03 -.515E+02 -.721E+02   0.206E+03 0.680E+02 0.725E+02   -.298E+02 -.184E+02 -.544E+00   -.216E-02 -.734E-02 -.212E-02
   0.142E+03 -.116E+03 0.236E+03   -.170E+03 0.131E+03 -.242E+03   0.308E+02 -.151E+02 0.727E+01   -.851E-02 0.373E-02 0.918E-04
   0.121E+01 0.117E+03 -.299E+03   0.292E+01 -.142E+03 0.319E+03   -.467E+01 0.275E+02 -.225E+02   -.203E-02 0.138E-02 0.362E-03
   -.285E+02 0.898E+02 -.336E+03   0.270E+02 -.113E+03 0.358E+03   0.168E+01 0.253E+02 -.258E+02   -.117E-02 -.447E-03 -.988E-03
   0.152E+03 -.101E+03 0.182E+03   -.173E+03 0.122E+03 -.193E+03   0.236E+02 -.225E+02 0.127E+02   -.120E-02 0.323E-02 -.257E-03
   -.134E+03 -.579E+02 -.145E+03   0.162E+03 0.656E+02 0.158E+03   -.314E+02 -.824E+01 -.142E+02   -.111E-01 -.284E-02 -.395E-02
   -.393E+02 0.172E+02 0.339E+02   0.418E+02 -.190E+02 -.356E+02   -.318E+01 0.225E+01 0.228E+01   0.116E-02 -.481E-02 -.231E-02
   0.357E+02 -.948E+02 -.766E+03   -.365E+02 0.106E+03 0.778E+03   0.838E+00 -.121E+02 -.135E+02   0.156E-01 -.653E-02 0.193E-02
   -.534E+02 -.122E+03 0.116E+03   0.584E+02 0.133E+03 -.129E+03   -.755E+01 -.171E+02 0.199E+02   0.482E-03 -.219E-04 -.104E-03
   0.456E+02 0.103E+03 -.673E+02   -.570E+02 -.129E+03 0.973E+02   0.140E+02 0.318E+02 -.370E+02   0.723E-03 -.270E-03 0.218E-03
 -----------------------------------------------------------------------------------------------
   -.479E+01 -.211E+02 0.126E+02   -.377E-12 -.256E-12 -.242E-12   0.477E+01 0.211E+02 -.126E+02   0.193E-01 0.146E-02 0.867E-02


 POSITION                                       TOTAL-FORCE (eV/Angst)
 -----------------------------------------------------------------------------------
     -0.01645      2.72469      7.20034         0.000176     -1.841272      0.742499
      1.34267      5.06837      7.31079         1.933920      0.265406      0.270634
     -1.40238      5.01827      7.21393        -1.961209      0.223318      0.011909
      6.32575      0.72741      8.50763         0.498055     -0.124882     -0.415423
      3.83686      5.06699      6.97036         0.201916      0.096002      0.696856
      1.30449      0.65497      7.56693        -0.485513     -0.021416      0.371786
     -3.95275      9.13830      8.14806        -0.238023     -1.522675     -0.852441
     -2.44699     11.39075      8.43351         1.543873      1.226350     -0.237690
     -5.15114     11.49577      8.38275        -1.554904      1.244477     -0.383023
      2.64643      6.95936      8.44510         0.798435      0.185767     -0.436093
      0.04335     11.29440      8.23169        -0.048849      0.790884      0.575461
     -2.80410      6.95578      8.09476        -0.702923      0.292870     -0.936001
      7.68522      2.73861      7.96331        -0.068048     -1.614046      0.752905
      8.91427      4.84945      6.76175         1.594587      0.765129      0.402947
      6.29235      4.94479      7.34880        -1.552395      1.266817      0.437567
     13.90855      0.47567      7.76524         0.555112      0.043568      0.320339
     11.38206      4.77521      6.66271        -0.444641      0.271714      0.674505
      8.98428      0.71301      8.61221        -0.575581     -0.259293     -0.359732
      3.92323      9.02052      8.92929         0.457490     -1.686605     -0.915168
      5.19590     11.37743      8.79121         1.721426      1.218302     -0.884833
      2.48520     11.35366      8.76558        -1.653037      1.256735     -0.615685
     10.00316      7.04383      7.10209        -0.064532     -0.831484      0.302815
      7.66719     11.40011      8.98565        -0.035670      0.414607     -0.850252
      5.23802      7.00512      8.24638        -0.263205     -0.202623     -0.234199
     -0.01579      4.28052      7.17665        -0.118610     -0.400628      0.273672
      1.28301      2.03627      7.10939        -2.811569     -1.761443      1.433280
      5.10682     -0.04731      8.77929         2.800313     -1.589618     -1.796444
      5.10926      4.42703      6.63806        -0.530896      2.630535      2.649054
      2.50260      4.56856      6.59461        -0.002191      2.157289      2.873850
      6.35439      2.16755      8.30069         2.774140     -2.442883     -0.494414
     -5.10705     12.67985      7.53352        -2.833395     -0.918121      2.421703
      0.01851      0.02353      8.13058        -0.058117      0.059321     -0.147657
     -3.81896     10.65385      8.41797        -0.195750     -0.133493     -0.503734
     -2.87236      8.27307      8.70719        -1.758691     -1.428837     -2.981581
      1.34206      6.24864      8.27427         2.377793     -0.239221     -1.139637
      1.33232     10.58225      8.24412        -0.443630      3.192865      1.362908
     -1.24246     10.59918      8.07335         0.344841      3.221728      1.389798
      2.66495      8.23204      9.15344         2.125537     -1.565669     -2.613510
     -1.52409      6.19223      8.16810        -2.119540     -0.096623     -1.705986
     11.27490      6.17295      7.35749         0.952383      0.502175      0.279181
      7.64872      4.10731      7.24743         0.171004      0.225882      0.564214
      8.99490      2.14758      8.33511        -2.886627     -2.249796     -0.344163
      5.08744     12.51394      7.88320         2.970032     -0.808361      2.253602
     -2.48331      4.47590      6.41393        -0.159500      2.323848      2.888950
     10.13251      4.07324      6.42591         0.593363      3.508104      1.712439
     13.89461      1.86312      7.34335         2.930865     -1.956741      0.790507
     10.14543     -0.07287      9.06512        -2.546053     -1.600039     -2.069528
      7.65815     -0.05596      8.38579        -0.006474     -0.267278      0.312187
      3.83992     10.56677      8.97797         0.204818     -0.250297     -0.702519
      5.21714      8.41995      8.61935        -3.118618     -1.807433     -0.140363
      8.81352      6.34356      6.69351         3.406308     -1.057735      1.774999
     -6.25334     10.97021      9.21686        -0.534369      2.578197     -2.613098
      6.38746     10.87986      9.50351         0.176058      2.045701     -3.086729
     -5.09202      8.71191      7.33384         2.566308     -2.084849      1.654867
      6.42448      6.18009      8.14673        -3.330642     -0.610010     -1.814733
      3.87939      6.34937      7.87185        -0.705223      0.460213      0.580580
     -0.14734      7.56709      9.36730         0.107916     -1.094719     -1.500602
     -0.14734      7.56709     15.94530        -2.630411     -5.947948      6.917850
     -0.50045      6.76866      0.37517         2.632168      5.948236     -6.918627
 -----------------------------------------------------------------------------------
    total drift:                                0.004385     -0.001430     -0.001753


--------------------------------------------------------------------------------------------------------



  FREE ENERGIE OF THE ION-ELECTRON SYSTEM (eV)
  ---------------------------------------------------
  free  energy   TOTEN  =      -468.51224977 eV

  energy  without entropy=     -468.51224977  energy(sigma->0) =     -468.51224977



--------------------------------------------------------------------------------------------------------


    POTLOK:  cpu time    0.1555: real time    0.1633


--------------------------------------------------------------------------------------------------------


     LOOP+:  cpu time  394.9645: real time  395.8808
    4ORBIT:  cpu time    0.0000: real time    0.0000



 total charge     

# of ion       s       p       d       tot
------------------------------------------
    1        0.804   1.466   0.000   2.269
    2        0.794   1.456   0.000   2.250
    3        0.796   1.460   0.000   2.256
    4        0.817   1.468   0.000   2.285
    5        0.810   1.467   0.000   2.277
    6        0.819   1.475   0.000   2.294
    7        0.804   1.461   0.000   2.265
    8        0.804   1.456   0.000   2.260
    9        0.807   1.459   0.000   2.266
   10        0.815   1.491   0.000   2.306
   11        0.817   1.471   0.000   2.287
   12        0.817   1.498   0.000   2.315
   13        0.805   1.456   0.000   2.261
   14        0.800   1.463   0.000   2.263
   15        0.798   1.464   0.000   2.262
   16        0.818   1.479   0.000   2.297
   17        0.811   1.475   0.000   2.285
   18        0.815   1.465   0.000   2.281
   19        0.803   1.459   0.000   2.263
   20        0.806   1.456   0.000   2.263
   21        0.803   1.451   0.000   2.254
   22        0.816   1.468   0.000   2.284
   23        0.818   1.457   0.000   2.275
   24        0.816   1.481   0.000   2.297
   25        1.179   2.466   0.000   3.645
   26        1.267   2.397   0.000   3.664
   27        1.264   2.396   0.000   3.660
   28        1.270   2.371   0.000   3.641
   29        1.265   2.389   0.000   3.654
   30        1.265   2.392   0.000   3.657
   31        1.271   2.393   0.000   3.664
   32        1.210   2.485   0.000   3.696
   33        1.184   2.478   0.000   3.662
   34        1.258   2.411   0.000   3.669
   35        1.233   2.418   0.000   3.652
   36        1.263   2.392   0.000   3.655
   37        1.262   2.393   0.000   3.655
   38        1.258   2.403   0.000   3.660
   39        1.234   2.423   0.000   3.657
   40        1.206   2.502   0.000   3.708
   41        1.184   2.464   0.000   3.649
   42        1.266   2.383   0.000   3.649
   43        1.268   2.398   0.000   3.667
   44        1.265   2.390   0.000   3.655
   45        1.268   2.377   0.000   3.645
   46        1.266   2.402   0.000   3.668
   47        1.264   2.389   0.000   3.654
   48        1.208   2.488   0.000   3.696
   49        1.187   2.451   0.000   3.638
   50        1.263   2.402   0.000   3.665
   51        1.265   2.392   0.000   3.657
   52        1.270   2.376   0.000   3.645
   53        1.269   2.378   0.000   3.648
   54        1.264   2.385   0.000   3.650
   55        1.271   2.387   0.000   3.658
   56        1.206   2.497   0.000   3.703
   57        1.360   0.579  10.000  11.939
   58        1.021   1.204   0.000   2.225
   59        1.620   3.362   0.000   4.982
--------------------------------------------------
tot         63.285 117.620  10.000 190.905



 magnetization (x)

# of ion       s       p       d       tot
------------------------------------------
    1       -0.000   0.000   0.000   0.000
    2        0.000   0.000   0.000   0.000
    3       -0.000  -0.000   0.000  -0.000
    4       -0.000  -0.000   0.000  -0.000
    5        0.000   0.000   0.000   0.000
    6       -0.000  -0.000   0.000  -0.000
    7       -0.000  -0.000   0.000  -0.000
    8       -0.000  -0.000   0.000  -0.000
    9       -0.000  -0.000   0.000  -0.000
   10       -0.000  -0.000   0.000  -0.000
   11        0.000   0.000   0.000   0.000
   12        0.000   0.000   0.000   0.000
   13       -0.000  -0.000   0.000  -0.000
   14       -0.000  -0.000   0.000  -0.000
   15        0.000   0.000   0.000   0.000
   16        0.000   0.000   0.000   0.000
   17       -0.000  -0.000   0.000  -0.000
   18       -0.000  -0.000   0.000  -0.000
   19        0.000   0.000   0.000   0.000
   20        0.000   0.000   0.000   0.000
   21        0.000   0.000   0.000   0.000
   22       -0.000  -0.000   0.000  -0.000
   23        0.000  -0.000   0.000  -0.000
   24        0.000   0.000   0.000   0.000
   25       -0.000  -0.000   0.000  -0.000
   26        0.000   0.000   0.000   0.000
   27        0.000   0.000   0.000   0.000
   28       -0.000  -0.000   0.000  -0.000
   29       -0.000  -0.000   0.000  -0.000
   30       -0.000  -0.000   0.000  -0.000
   31       -0.000   0.000   0.000   0.000
   32       -0.000   0.000   0.000   0.000
   33        0.000   0.000   0.000   0.000
   34       -0.000  -0.000   0.000  -0.000
   35        0.000   0.000   0.000   0.000
   36       -0.000  -0.000   0.000  -0.000
   37       -0.000  -0.000   0.000  -0.000
   38        0.000   0.000   0.000   0.000
   39        0.000   0.000   0.000   0.000
   40        0.000  -0.000   0.000  -0.000
   41       -0.000  -0.000   0.000  -0.000
   42        0.000   0.000   0.000   0.000
   43        0.000  -0.000   0.000  -0.000
   44       -0.000   0.000   0.000   0.000
   45       -0.000   0.000   0.000   0.000
   46        0.000   0.000   0.000   0.000
   47        0.000   0.000   0.000   0.000
   48       -0.000  -0.000   0.000  -0.000
   49        0.000  -0.000   0.000  -0.000
   50        0.000  -0.000   0.000  -0.000
   51       -0.000   0.000   0.000   0.000
   52       -0.000  -0.000   0.000  -0.000
   53        0.000   0.000   0.000   0.000
   54        0.000   0.000   0.000   0.000
   55        0.000  -0.000   0.000  -0.000
   56        0.000   0.000   0.000   0.000
   57       -0.000  -0.000  -0.000  -0.000
   58        0.000  -0.000   0.000  -0.000
   59        0.000   0.000   0.000   0.000
--------------------------------------------------
tot         -0.000   0.000  -0.000   0.000

 BZINTS: Fermi energy: -3.346087;280.000000 electrons
         Band energy:***********;  BLOECHL correction:  0.000000

 total amount of memory used by VASP MPI-rank0   116102. kBytes
=======================================================================

   base      :      30000. kBytes
   nonl-proj :      25519. kBytes
   fftplans  :       5290. kBytes
   grid      :      16143. kBytes
   one-center:        155. kBytes
   wavefun   :      38995. kBytes

  
  
 General timing and accounting informations for this job:
 ========================================================
  
                  Total CPU time used (sec):      408.753
                            User time (sec):      407.615
                          System time (sec):        1.139
                         Elapsed time (sec):      410.470
  
                   Maximum memory used (kb):      184100.
                   Average memory used (kb):           0.
  
                          Minor page faults:        97771
                          Major page faults:            2
                 Voluntary context switches:         1243
