 vasp.5.4.4.18Apr17-6-g9f103f2a35 (build Jan 14 2022 15:04:31) complex          
  
 executed on             LinuxIFC date 2023.01.23  17:52:24
 running on   48 total cores
 distrk:  each k-point on   48 cores,    1 groups
 distr:  one band on NCORES_PER_BAND=  12 cores,    4 groups


--------------------------------------------------------------------------------------------------------


 INCAR:
 POTCAR:    PAW_PBE C 08Apr2002                   
 POTCAR:    PAW_PBE N 08Apr2002                   
 POTCAR:    PAW_PBE C 08Apr2002                   
 POTCAR:    PAW_PBE Cr_pv 02Aug2007               
 POTCAR:    PAW_PBE C 08Apr2002                   
   SHA256 =  253f7b50bb8d59471dbedb8285d89021f4a42ed1a2c5d38a03a736e69125dd95 C/
   COPYR  = (c) Copyright 08Apr2002 Georg Kresse                                
   COPYR  = This file is part of the software VASP. Any use, copying, and all ot
   COPYR  = If you do not have a valid VASP license, you may not use, copy or di
   VRHFIN =C: s2p2                                                              
   LEXCH  = PE                                                                  
   EATOM  =   147.1560 eV,   10.8157 Ry                                         
                                                                                
   TITEL  = PAW_PBE C 08Apr2002                                                 
   LULTRA =        F    use ultrasoft PP ?                                      
   IUNSCR =        1    unscreen: 0-lin 1-nonlin 2-no                           
   RPACOR =    1.200    partial core radius                                     
   POMASS =   12.011; ZVAL   =    4.000    mass and valenz                      
   RCORE  =    1.500    outmost cutoff radius                                   
   RWIGS  =    1.630; RWIGS  =    0.863    wigner-seitz radius (au A)           
   ENMAX  =  400.000; ENMIN  =  300.000 eV                                      
   ICORE  =        2    local potential                                         
   LCOR   =        T    correct aug charges                                     
   LPAW   =        T    paw PP                                                  
   EAUG   =  644.873                                                            
   DEXC   =    0.000                                                            
   RMAX   =    1.529    core radius for proj-oper                               
   RAUG   =    1.300    factor for augmentation sphere                          
   RDEP   =    1.501    radius for radial grids                                 
   RDEPT  =    1.300    core radius for aug-charge                              
                                                                                
   Atomic configuration                                                         
    4 entries                                                                   
     n  l   j            E        occ.                                          
     1  0  0.50      -273.3789   2.0000                                         
     2  0  0.50       -13.7508   2.0000                                         
     2  1  0.50        -5.2854   2.0000                                         
     3  2  1.50        -5.4423   0.0000                                         
   Description                                                                  
     l       E           TYP  RCUT    TYP  RCUT                                 
     0    -13.7508458     23  1.200                                             
     0     -8.2022199     23  1.200                                             
     1     -5.2854383     23  1.500                                             
     1     34.0145650     23  1.500                                             
     2     -5.4423304      7  1.500                                             
  local pseudopotential read in
  partial core-charges read in
  partial kinetic energy density read in
  atomic valenz-charges read in
  non local Contribution for L=           0  read in
    real space projection operators read in
  non local Contribution for L=           0  read in
    real space projection operators read in
  non local Contribution for L=           1  read in
    real space projection operators read in
  non local Contribution for L=           1  read in
    real space projection operators read in
    PAW grid and wavefunctions read in
 
   number of l-projection  operators is LMAX  =           4
   number of lm-projection operators is LMMAX =           8
 
 POTCAR:    PAW_PBE N 08Apr2002                   
   SHA256 =  e053789ff3a61a86a1b75d8a110fcc91f86041011e7b0817c7c99e4e8a6349d7 N/
   COPYR  = (c) Copyright 08Apr2002 Georg Kresse                                
   COPYR  = This file is part of the software VASP. Any use, copying, and all ot
   COPYR  = If you do not have a valid VASP license, you may not use, copy or di
   VRHFIN =N: s2p3                                                              
   LEXCH  = PE                                                                  
   EATOM  =   264.5486 eV,   19.4438 Ry                                         
                                                                                
   TITEL  = PAW_PBE N 08Apr2002                                                 
   LULTRA =        F    use ultrasoft PP ?                                      
   IUNSCR =        1    unscreen: 0-lin 1-nonlin 2-no                           
   RPACOR =    1.200    partial core radius                                     
   POMASS =   14.001; ZVAL   =    5.000    mass and valenz                      
   RCORE  =    1.500    outmost cutoff radius                                   
   RWIGS  =    1.400; RWIGS  =    0.741    wigner-seitz radius (au A)           
   ENMAX  =  400.000; ENMIN  =  300.000 eV                                      
   ICORE  =        2    local potential                                         
   LCOR   =        T    correct aug charges                                     
   LPAW   =        T    paw PP                                                  
   EAUG   =  627.112                                                            
   DEXC   =    0.000                                                            
   RMAX   =    1.529    core radius for proj-oper                               
   RAUG   =    1.300    factor for augmentation sphere                          
   RDEP   =    1.514    radius for radial grids                                 
   RDEPT  =    1.338    core radius for aug-charge                              
                                                                                
   Atomic configuration                                                         
    4 entries                                                                   
     n  l   j            E        occ.                                          
     1  0  0.50      -384.7179   2.0000                                         
     2  0  0.50       -18.5828   2.0000                                         
     2  1  0.50        -7.0898   3.0000                                         
     3  2  1.50        -6.8029   0.0000                                         
   Description                                                                  
     l       E           TYP  RCUT    TYP  RCUT                                 
     0    -18.5828119     23  1.200                                             
     0    -13.5018863     23  1.200                                             
     1     -7.0897853     23  1.500                                             
     1      9.5240782     23  1.500                                             
     2     -6.8029130      7  1.500                                             
  local pseudopotential read in
  partial core-charges read in
  partial kinetic energy density read in
  atomic valenz-charges read in
  non local Contribution for L=           0  read in
    real space projection operators read in
  non local Contribution for L=           0  read in
    real space projection operators read in
  non local Contribution for L=           1  read in
    real space projection operators read in
  non local Contribution for L=           1  read in
    real space projection operators read in
    PAW grid and wavefunctions read in
 
   number of l-projection  operators is LMAX  =           4
   number of lm-projection operators is LMMAX =           8
 
 POTCAR:    PAW_PBE C 08Apr2002                   
   SHA256 =  253f7b50bb8d59471dbedb8285d89021f4a42ed1a2c5d38a03a736e69125dd95 C/
   COPYR  = (c) Copyright 08Apr2002 Georg Kresse                                
   COPYR  = This file is part of the software VASP. Any use, copying, and all ot
   COPYR  = If you do not have a valid VASP license, you may not use, copy or di
   VRHFIN =C: s2p2                                                              
   LEXCH  = PE                                                                  
   EATOM  =   147.1560 eV,   10.8157 Ry                                         
                                                                                
   TITEL  = PAW_PBE C 08Apr2002                                                 
   LULTRA =        F    use ultrasoft PP ?                                      
   IUNSCR =        1    unscreen: 0-lin 1-nonlin 2-no                           
   RPACOR =    1.200    partial core radius                                     
   POMASS =   12.011; ZVAL   =    4.000    mass and valenz                      
   RCORE  =    1.500    outmost cutoff radius                                   
   RWIGS  =    1.630; RWIGS  =    0.863    wigner-seitz radius (au A)           
   ENMAX  =  400.000; ENMIN  =  300.000 eV                                      
   ICORE  =        2    local potential                                         
   LCOR   =        T    correct aug charges                                     
   LPAW   =        T    paw PP                                                  
   EAUG   =  644.873                                                            
   DEXC   =    0.000                                                            
   RMAX   =    1.529    core radius for proj-oper                               
   RAUG   =    1.300    factor for augmentation sphere                          
   RDEP   =    1.501    radius for radial grids                                 
   RDEPT  =    1.300    core radius for aug-charge                              
                                                                                
   Atomic configuration                                                         
    4 entries                                                                   
     n  l   j            E        occ.                                          
     1  0  0.50      -273.3789   2.0000                                         
     2  0  0.50       -13.7508   2.0000                                         
     2  1  0.50        -5.2854   2.0000                                         
     3  2  1.50        -5.4423   0.0000                                         
   Description                                                                  
     l       E           TYP  RCUT    TYP  RCUT                                 
     0    -13.7508458     23  1.200                                             
     0     -8.2022199     23  1.200                                             
     1     -5.2854383     23  1.500                                             
     1     34.0145650     23  1.500                                             
     2     -5.4423304      7  1.500                                             
  local pseudopotential read in
  partial core-charges read in
  partial kinetic energy density read in
  atomic valenz-charges read in
  non local Contribution for L=           0  read in
    real space projection operators read in
  non local Contribution for L=           0  read in
    real space projection operators read in
  non local Contribution for L=           1  read in
    real space projection operators read in
  non local Contribution for L=           1  read in
    real space projection operators read in
    PAW grid and wavefunctions read in
 
   number of l-projection  operators is LMAX  =           4
   number of lm-projection operators is LMMAX =           8
 
 POTCAR:    PAW_PBE Cr_pv 02Aug2007               
   SHA256 =  c9a7df34d3cdbacf1090e328ef39c0b420964e11c23f63548d1ac9dd218cdba0 Cr
   COPYR  = (c) Copyright 02Aug2007 Georg Kresse                                
   COPYR  = This file is part of the software VASP. Any use, copying, and all ot
   COPYR  = If you do not have a valid VASP license, you may not use, copy or di
   VRHFIN =Cr : p6d5s1                                                          
   LEXCH  = PE                                                                  
   EATOM  =  1647.9177 eV,  121.1185 Ry                                         
                                                                                
   TITEL  = PAW_PBE Cr_pv 02Aug2007                                             
   LULTRA =        F    use ultrasoft PP ?                                      
   IUNSCR =        1    unscreen: 0-lin 1-nonlin 2-no                           
   RPACOR =    2.080    partial core radius                                     
   POMASS =   51.996; ZVAL   =   12.000    mass and valenz                      
   RCORE  =    2.300    outmost cutoff radius                                   
   RWIGS  =    2.500; RWIGS  =    1.323    wigner-seitz radius (au A)           
   ENMAX  =  265.681; ENMIN  =  199.261 eV                                      
   ICORE  =        3    local potential                                         
   LCOR   =        T    correct aug charges                                     
   LPAW   =        T    paw PP                                                  
   EAUG   =  519.424                                                            
   DEXC   =    0.000                                                            
   RMAX   =    2.356    core radius for proj-oper                               
   RAUG   =    1.300    factor for augmentation sphere                          
   RDEP   =    2.447    radius for radial grids                                 
   RDEPT  =    1.882    core radius for aug-charge                              
                                                                                
   Atomic configuration                                                         
    8 entries                                                                   
     n  l   j            E        occ.                                          
     1  0  0.50     -5880.4963   2.0000                                         
     2  0  0.50      -667.0865   2.0000                                         
     2  1  1.50      -560.6250   6.0000                                         
     3  0  0.50       -73.9860   2.0000                                         
     3  1  1.50       -45.4378   6.0000                                         
     3  2  2.50        -2.9137   5.0000                                         
     4  0  0.50        -4.0071   1.0000                                         
     4  3  2.50        -1.3606   0.0000                                         
   Description                                                                  
     l       E           TYP  RCUT    TYP  RCUT                                 
     1    -45.4377911     23  2.000                                             
     1      1.3605826     23  2.000                                             
     2     -2.9136672     23  2.300                                             
     2     -4.2742498     23  2.300                                             
     0     -4.0071320     23  2.300                                             
     0      9.4498803     23  2.300                                             
     3      2.7211652     23  2.300                                             
  local pseudopotential read in
  partial core-charges read in
  partial kinetic energy density read in
  atomic valenz-charges read in
  non local Contribution for L=           1  read in
    real space projection operators read in
  non local Contribution for L=           1  read in
    real space projection operators read in
  non local Contribution for L=           2  read in
    real space projection operators read in
  non local Contribution for L=           2  read in
    real space projection operators read in
  non local Contribution for L=           0  read in
    real space projection operators read in
  non local Contribution for L=           0  read in
    real space projection operators read in
    PAW grid and wavefunctions read in
 
   number of l-projection  operators is LMAX  =           6
   number of lm-projection operators is LMMAX =          18
 
 Optimization of the real space projectors (new method)

 maximal supplied QI-value         = 25.13
 optimisation between [QCUT,QGAM] = [ 10.56, 21.36] = [ 31.20,127.80] Ry 
 Optimized for a Real-space Cutoff    1.32 Angstroem

   l    n(q)    QCUT    max X(q) W(low)/X(q) W(high)/X(q)  e(spline) 
   0      8    10.556   115.676    0.17E-03    0.39E-03    0.26E-06
   0      8    10.556    87.132    0.17E-03    0.39E-03    0.26E-06
   1      8    10.556     4.429    0.24E-03    0.31E-03    0.16E-06
   1      8    10.556     2.733    0.17E-03    0.22E-03    0.19E-06
 Optimization of the real space projectors (new method)

 maximal supplied QI-value         = 25.13
 optimisation between [QCUT,QGAM] = [ 10.56, 21.36] = [ 31.20,127.80] Ry 
 Optimized for a Real-space Cutoff    1.40 Angstroem

   l    n(q)    QCUT    max X(q) W(low)/X(q) W(high)/X(q)  e(spline) 
   0      9    10.556    79.467    0.20E-03    0.22E-03    0.30E-06
   0      9    10.556    66.151    0.20E-03    0.22E-03    0.30E-06
   1      8    10.556    12.181    0.10E-03    0.78E-03    0.19E-05
   1      8    10.556     8.434    0.11E-03    0.81E-03    0.19E-05
 Optimization of the real space projectors (new method)

 maximal supplied QI-value         = 25.13
 optimisation between [QCUT,QGAM] = [ 10.56, 21.36] = [ 31.20,127.80] Ry 
 Optimized for a Real-space Cutoff    1.32 Angstroem

   l    n(q)    QCUT    max X(q) W(low)/X(q) W(high)/X(q)  e(spline) 
   0      8    10.556   115.676    0.17E-03    0.39E-03    0.26E-06
   0      8    10.556    87.132    0.17E-03    0.39E-03    0.26E-06
   1      8    10.556     4.429    0.24E-03    0.31E-03    0.16E-06
   1      8    10.556     2.733    0.17E-03    0.22E-03    0.19E-06
 Optimization of the real space projectors (new method)

 maximal supplied QI-value         = 16.25
 optimisation between [QCUT,QGAM] = [ 10.73, 21.45] = [ 32.22,128.87] Ry 
 Optimized for a Real-space Cutoff    1.53 Angstroem

   l    n(q)    QCUT    max X(q) W(low)/X(q) W(high)/X(q)  e(spline) 
   1      9    10.726     3.262    0.64E-04    0.35E-04    0.11E-06
   1      9    10.726     5.741    0.13E-03    0.48E-04    0.19E-06
   2      9    10.726    60.438    0.12E-03    0.29E-04    0.13E-06
   2      9    10.726    55.380    0.12E-03    0.29E-04    0.13E-06
   0     10    10.726    80.273    0.43E-04    0.74E-05    0.81E-07
   0     10    10.726    36.654    0.34E-04    0.61E-05    0.73E-07
  PAW_PBE C 08Apr2002                   :
 energy of atom  1       EATOM= -147.1560
 kinetic energy error for atom=    0.0132 (will be added to EATOM!!)
  PAW_PBE N 08Apr2002                   :
 energy of atom  2       EATOM= -264.5486
 kinetic energy error for atom=    0.0298 (will be added to EATOM!!)
  PAW_PBE C 08Apr2002                   :
 energy of atom  3       EATOM= -147.1560
 kinetic energy error for atom=    0.0132 (will be added to EATOM!!)
  PAW_PBE Cr_pv 02Aug2007               :
 energy of atom  4       EATOM=-1647.9177
 kinetic energy error for atom=    0.0134 (will be added to EATOM!!)
 
 
 POSCAR: POSCAR-clean                            
  positions in direct lattice
  velocities in cartesian coordinates
 exchange correlation table for  LEXCH =        8
   RHO(1)=    0.500       N(1)  =     2000
   RHO(2)=  100.500       N(2)  =     4000

 VTST: version 3.2, (02/03/18)

 CHAIN: initializing optimizer
 
 OPT: Using VASP Conjugate-Gradient optimizer
 CHAIN: Read ICHAIN            0
 
 POSCAR: POSCAR-clean                            
  positions in direct lattice
  velocities in cartesian coordinates
 


--------------------------------------------------------------------------------------------------------


 ion  position               nearest neighbor table
   1  0.000  0.000  0.498-   2 1.42  60 1.42  70 1.43
   2  0.055  0.111  0.498-   1 1.42  13 1.43  15 1.44
   3  0.168  0.002  0.498-   4 1.42  62 1.43  60 1.43
   4  0.224  0.113  0.498-   3 1.42  15 1.43  17 1.44
   5  0.334  0.002  0.498-   6 1.42  62 1.43  64 1.43
   6  0.391  0.113  0.498-   5 1.42  19 1.43  17 1.44
   7  0.500  1.000  0.498-  64 1.42   8 1.42  66 1.43
   8  0.557  0.111  0.498-   7 1.42  21 1.42  19 1.44
   9  0.666  0.999  0.498-  10 1.41  66 1.42  68 1.43
  10  0.722  0.109  0.498-   9 1.41  23 1.41  21 1.41
  11  0.832  0.998  0.498-  12 1.42  70 1.42  68 1.43
  12  0.887  0.109  0.498-  11 1.42  23 1.42  13 1.43
  13  0.998  0.166  0.498-  14 1.42   2 1.43  12 1.43
  14  0.054  0.277  0.498-  13 1.42  25 1.42  27 1.43
  15  0.167  0.168  0.498-  16 1.42   4 1.43   2 1.44
  16  0.223  0.280  0.500-  15 1.42  27 1.42  29 1.44
  17  0.335  0.170  0.499-  18 1.42   4 1.44   6 1.44
  18  0.391  0.281  0.503-  17 1.42  29 1.44  31 1.44
  19  0.502  0.168  0.498-  20 1.42   6 1.43   8 1.44
  20  0.557  0.280  0.500-  33 1.42  19 1.42  31 1.45
  21  0.667  0.165  0.498-  10 1.41  22 1.42   8 1.42
  22  0.723  0.276  0.498-  21 1.42  35 1.42  33 1.43
  23  0.831  0.164  0.498-  10 1.41  24 1.42  12 1.42
  24  0.887  0.276  0.498-  35 1.42  23 1.42  25 1.43
  25  0.999  0.332  0.498-  14 1.42  26 1.43  24 1.43
  26  0.054  0.443  0.499-  39 1.42  37 1.42  25 1.43
  27  0.165  0.333  0.500-  28 1.42  16 1.42  14 1.43
  28  0.219  0.444  0.502-  41 1.41  27 1.42  39 1.42
  29  0.335  0.338  0.503-  30 1.42  18 1.44  16 1.44
  30  0.388  0.449  0.509-  41 1.41  29 1.42  71 2.00
  31  0.503  0.338  0.504-  32 1.42  18 1.44  20 1.45
  32  0.561  0.449  0.510-  43 1.41  31 1.42  71 2.00
  33  0.668  0.332  0.500-  20 1.42  34 1.42  22 1.43
  34  0.725  0.443  0.501-  43 1.41  45 1.42  33 1.42
  35  0.833  0.332  0.498-  24 1.42  22 1.42  36 1.42
  36  0.890  0.444  0.498-  45 1.41  37 1.42  35 1.42
  37  0.000  0.500  0.498-  26 1.42  36 1.42  38 1.42
  38  0.056  0.611  0.498-  47 1.42  49 1.42  37 1.42
  39  0.164  0.500  0.500-  26 1.42  28 1.42  40 1.43
  40  0.220  0.611  0.500-  49 1.41  51 1.42  39 1.43
  41  0.329  0.499  0.505-  30 1.41  28 1.41  42 1.44
  42  0.385  0.612  0.505-  53 1.41  51 1.41  41 1.44
  43  0.671  0.499  0.505-  32 1.41  34 1.41  44 1.44
  44  0.727  0.612  0.505-  57 1.41  55 1.41  43 1.44
  45  0.835  0.500  0.500-  36 1.41  34 1.42  46 1.42
  46  0.891  0.611  0.500-  47 1.41  57 1.42  45 1.42
  47  0.001  0.667  0.498-  46 1.41  38 1.42  48 1.43
  48  0.057  0.779  0.498-  59 1.42  61 1.42  47 1.43
  49  0.166  0.667  0.499-  40 1.41  38 1.42  50 1.42
  50  0.223  0.779  0.498-  63 1.42  49 1.42  61 1.42
  51  0.331  0.667  0.502-  42 1.41  52 1.42  40 1.42
  52  0.389  0.779  0.500-  51 1.42  63 1.42  65 1.43
  53  0.495  0.663  0.509-  42 1.41  54 1.42  71 1.99
  54  0.553  0.774  0.503-  53 1.42  67 1.43  65 1.44
  55  0.668  0.663  0.510-  44 1.41  56 1.42  71 2.00
  56  0.720  0.774  0.504-  55 1.42  69 1.44  67 1.44
  57  0.836  0.667  0.501-  44 1.41  58 1.42  46 1.42
  58  0.890  0.778  0.500-  57 1.42  69 1.42  59 1.43
  59  0.001  0.835  0.498-  60 1.42  48 1.42  58 1.43
  60  0.057  0.946  0.498-  59 1.42   1 1.42   3 1.43
  61  0.168  0.835  0.498-  62 1.42  48 1.42  50 1.42
  62  0.223  0.946  0.498-  61 1.42   3 1.43   5 1.43
  63  0.333  0.834  0.498-  64 1.42  50 1.42  52 1.42
  64  0.389  0.946  0.498-   7 1.42  63 1.42   5 1.43
  65  0.500  0.832  0.500-  52 1.43  66 1.43  54 1.44
  66  0.556  0.944  0.498-   9 1.42  65 1.43   7 1.43
  67  0.665  0.830  0.503-  68 1.42  54 1.43  56 1.44
  68  0.721  0.942  0.499-  67 1.42  11 1.43   9 1.43
  69  0.833  0.831  0.500-  58 1.42  70 1.43  56 1.44
  70  0.888  0.943  0.498-  11 1.42  69 1.43   1 1.43
  71  0.528  0.556  0.555-  53 1.99  55 2.00  30 2.00  32 2.00
 

IMPORTANT INFORMATION: All symmetrisations will be switched off!
NOSYMM: (Re-)initialisation of all symmetry stuff for point group C_1.

 
 
 KPOINTS: K-Points                                

Automatic generation of k-mesh.
Space group operators:
 irot       det(A)        alpha          n_x          n_y          n_z        tau_x        tau_y        tau_z
    1     1.000000     0.000000     1.000000     0.000000     0.000000     0.000000     0.000000     0.000000
 
 Subroutine IBZKPT returns following result:
 ===========================================
 
 Found      4 irreducible k-points:
 
 Following reciprocal coordinates:
            Coordinates               Weight
  0.000000  0.000000  0.000000      1.000000
  0.500000  0.000000  0.000000      1.000000
 -0.000000  0.500000  0.000000      1.000000
  0.500000  0.500000  0.000000      1.000000
 
 Following cartesian coordinates:
            Coordinates               Weight
  0.000000  0.000000  0.000000      1.000000
  0.033652  0.019599  0.000000      1.000000
  0.000000  0.039198  0.000000      1.000000
  0.033653  0.058796  0.000000      1.000000
 


--------------------------------------------------------------------------------------------------------




 Dimension of arrays:
   k-points           NKPTS =      4   k-points in BZ     NKDIM =      4   number of bands    NBANDS=    184
   number of dos      NEDOS =    301   number of ions     NIONS =     71
   non local maximal  LDIM  =      6   non local SUM 2l+1 LMDIM =     18
   total plane-waves  NPLWV = ******
   max r-space proj   IRMAX =   6644   max aug-charges    IRDMAX=  15616
   dimension x,y,z NGX =   108 NGY =  108 NGZ =  108
   dimension x,y,z NGXF=   216 NGYF=  216 NGZF=  216
   support grid    NGXF=   216 NGYF=  216 NGZF=  216
   ions per type =               9   1  60   1
   NGX,Y,Z   is equivalent  to a cutoff of  12.08, 12.16, 11.97 a.u.
   NGXF,Y,Z  is equivalent  to a cutoff of  24.17, 24.33, 23.94 a.u.

 SYSTEM =  unknown system                          
 POSCAR =  POSCAR-clean                            

 Startparameter for this run:
   NWRITE =      2    write-flag & timer
   PREC   = accura    normal or accurate (medium, high low for compatibility)
   ISTART =      0    job   : 0-new  1-cont  2-samecut
   ICHARG =      2    charge: 1-file 2-atom 10-const
   ISPIN  =      2    spin polarized calculation?
   LNONCOLLINEAR =      F non collinear calculations
   LSORBIT =      F    spin-orbit coupling
   INIWAV =      1    electr: 0-lowe 1-rand  2-diag
   LASPH  =      F    aspherical Exc in radial PAW
   METAGGA=      F    non-selfconsistent MetaGGA calc.

 Electronic Relaxation 1
   ENCUT  =  440.0 eV  32.34 Ry    5.69 a.u.  25.41 25.25 25.66*2*pi/ulx,y,z
   ENINI  =  440.0     initial cutoff
   ENAUG  =  644.9 eV  augmentation charge cutoff
   NELM   =     50;   NELMIN=  2; NELMDL= -5     # of ELM steps 
   EDIFF  = 0.1E-04   stopping-criterion for ELM
   LREAL  =      T    real-space projection
   NLSPLINE    = F    spline interpolate recip. space projectors
   LCOMPAT=      F    compatible to vasp.4.4
   GGA_COMPAT  = T    GGA compatible to vasp.4.4-vasp.4.6
   LMAXPAW     = -100 max onsite density
   LMAXMIX     =    2 max onsite mixed and CHGCAR
   VOSKOWN=      0    Vosko Wilk Nusair interpolation
   ROPT   =   -0.00025  -0.00025  -0.00025  -0.00025
 Ionic relaxation
   EDIFFG = -.5E-01   stopping-criterion for IOM
   NSW    =    400    number of steps for IOM
   NBLOCK =      1;   KBLOCK =    400    inner block; outer block 
   IBRION =      2    ionic relax: 0-MD 1-quasi-New 2-CG
   NFREE  =      1    steps in history (QN), initial steepest desc. (CG)
   ISIF   =      2    stress and relaxation
   IWAVPR =     11    prediction:  0-non 1-charg 2-wave 3-comb
   ISYM   =      0    0-nonsym 1-usesym 2-fastsym
   LCORR  =      T    Harris-Foulkes like correction to forces

   POTIM  = 0.3000    time-step for ionic-motion
   TEIN   =    0.0    initial temperature
   TEBEG  =    0.0;   TEEND  =   0.0 temperature during run
   SMASS  =  -3.00    Nose mass-parameter (am)
   estimated Nose-frequenzy (Omega)   =  0.10E-29 period in steps =****** mass=  -0.504E-26a.u.
   SCALEE = 1.0000    scale energy and forces
   NPACO  =    256;   APACO  = 16.0  distance and # of slots for P.C.
   PSTRESS=    0.0 pullay stress

  Mass of Ions in am
   POMASS =  12.01 14.00 12.01 52.00
  Ionic Valenz
   ZVAL   =   4.00  5.00  4.00 12.00
  Atomic Wigner-Seitz radii
   RWIGS  =  -1.00 -1.00 -1.00 -1.00
  virtual crystal weights 
   VCA    =   1.00  1.00  1.00  1.00
   NELECT =     293.0000    total number of electrons
   NUPDOWN=      -1.0000    fix difference up-down

 DOS related values:
   EMIN   =  10.00;   EMAX   =-10.00  energy-range for DOS
   EFERMI =   0.00
   ISMEAR =     0;   SIGMA  =   0.10  broadening in eV -4-tet -1-fermi 0-gaus

 Electronic relaxation 2 (details)
   IALGO  =     68    algorithm
   LDIAG  =      T    sub-space diagonalisation (order eigenvalues)
   LSUBROT=      F    optimize rotation matrix (better conditioning)
   TURBO    =      0    0=normal 1=particle mesh
   IRESTART =      0    0=no restart 2=restart with 2 vectors
   NREBOOT  =      0    no. of reboots
   NMIN     =      0    reboot dimension
   EREF     =   0.00    reference energy to select bands
   IMIX   =      4    mixing-type and parameters
     AMIX     =   0.40;   BMIX     =  1.00
     AMIX_MAG =   1.60;   BMIX_MAG =  1.00
     AMIN     =   0.10
     WC   =   100.;   INIMIX=   1;  MIXPRE=   1;  MAXMIX= -45

 Intra band minimization:
   WEIMIN = 0.0010     energy-eigenvalue tresh-hold
   EBREAK =  0.14E-07  absolut break condition
   DEPER  =   0.30     relativ break condition  

   TIME   =   0.40     timestep for ELM

  volume/ion in A,a.u.               =      40.04       270.21
  Fermi-wavevector in a.u.,A,eV,Ry     =   0.767557  1.450473  8.015794  0.589144
  Thomas-Fermi vector in A             =   1.868140
 
 Write flags
   LWAVE        =      F    write WAVECAR
   LDOWNSAMPLE  =      F    k-point downsampling of WAVECAR
   LCHARG       =      F    write CHGCAR
   LVTOT        =      F    write LOCPOT, total local potential
   LVHAR        =      F    write LOCPOT, Hartree potential only
   LELF         =      F    write electronic localiz. function (ELF)
   LORBIT       =      0    0 simple, 1 ext, 2 COOP (PROOUT), +10 PAW based schemes


 Dipole corrections
   LMONO  =      F    monopole corrections only (constant potential shift)
   LDIPOL =      F    correct potential (dipole corrections)
   IDIPOL =      0    1-x, 2-y, 3-z, 4-all directions 
   EPSILON=  1.0000000 bulk dielectric constant

 Exchange correlation treatment:
   GGA     =    --    GGA type
   LEXCH   =     8    internal setting for exchange type
   VOSKOWN=      0    Vosko Wilk Nusair interpolation
   LHFCALC =     F    Hartree Fock is set to
   LHFONE  =     F    Hartree Fock one center treatment
   AEXX    =    0.0000 exact exchange contribution

 Linear response parameters
   LEPSILON=     F    determine dielectric tensor
   LRPA    =     F    only Hartree local field effects (RPA)
   LNABLA  =     F    use nabla operator in PAW spheres
   LVEL    =     F    velocity operator in full k-point grid
   LINTERFAST=   F  fast interpolation
   KINTER  =     0    interpolate to denser k-point grid
   CSHIFT  =0.1000    complex shift for real part using Kramers Kronig
   OMEGAMAX=  -1.0    maximum frequency
   DEG_THRESHOLD= 0.2000000E-02 threshold for treating states as degnerate
   RTIME   =   -0.100 relaxation time in fs
  (WPLASMAI=    0.000 imaginary part of plasma frequency in eV, 0.658/RTIME)
   DFIELD  = 0.0000000 0.0000000 0.0000000 field for delta impulse in time
 
 Orbital magnetization related:
   ORBITALMAG=     F  switch on orbital magnetization
   LCHIMAG   =     F  perturbation theory with respect to B field
   DQ        =  0.001000  dq finite difference perturbation B field
   LLRAUG    =     F  two centre corrections for induced B field



--------------------------------------------------------------------------------------------------------


 conjugate gradient relaxation of ions
 charge density and potential will be updated during run
 spin polarized calculation
 RMM-DIIS sequential band-by-band and
  variant of blocked Davidson during initial phase
 perform sub-space diagonalisation
    before iterative eigenvector-optimisation
 modified Broyden-mixing scheme, WC =      100.0
 initial mixing is a Kerker type mixing with AMIX =  0.4000 and BMIX =      1.0000
 Hartree-type preconditioning will be used
 using additional bands           37
 real space projection scheme for non local part
 use partial core corrections
 calculate Harris-corrections to forces 
   (improved forces if not selfconsistent)
 use gradient corrections 
 use of overlap-Matrix (Vanderbilt PP)
 Gauss-broadening in eV      SIGMA  =   0.10


--------------------------------------------------------------------------------------------------------


  energy-cutoff  :      440.00
  volume of cell :     2842.89
      direct lattice vectors                 reciprocal lattice vectors
    14.857880698 -0.000173602  0.000000000     0.067304808  0.039197510  0.000000000
    -7.428940349 12.755999190  0.000000000     0.000000916  0.078395019  0.000000000
     0.000000000  0.000000000 15.000000000     0.000000000  0.000000000  0.066666667

  length of vectors
    14.857880699 14.761594428 15.000000000     0.077886982  0.078395019  0.066666667


 
 k-points in units of 2pi/SCALE and weight: K-Points                                
   0.00000000  0.00000000  0.00000000       0.250
   0.03365240  0.01959875  0.00000000       0.250
   0.00000046  0.03919751  0.00000000       0.250
   0.03365286  0.05879626  0.00000000       0.250
 
 k-points in reciprocal lattice and weights: K-Points                                
   0.00000000  0.00000000  0.00000000       0.250
   0.50000000  0.00000000  0.00000000       0.250
  -0.00000000  0.50000000  0.00000000       0.250
   0.50000000  0.50000000  0.00000000       0.250
 
 position of ions in fractional coordinates (direct lattice) 
   0.00006045  0.00000299  0.49763295
   0.05537440  0.11140933  0.49772531
   0.16801355  0.00209113  0.49754113
   0.22357739  0.11345304  0.49824673
   0.33443976  0.00217744  0.49774304
   0.39051592  0.11342835  0.49837932
   0.49984802  0.99976215  0.49770626
   0.55650571  0.11103628  0.49764724
   0.66624121  0.99884893  0.49831348
   0.72160990  0.10924346  0.49757096
   0.83229926  0.99768782  0.49836706
   0.88680769  0.10892219  0.49772583
   0.99848270  0.16561509  0.49782365
   0.05410245  0.27660251  0.49849602
   0.16723039  0.16812031  0.49836088
   0.22297321  0.27968878  0.50006551
   0.33544609  0.17026789  0.49940226
   0.39090608  0.28144613  0.50254883
   0.50166073  0.16815137  0.49839317
   0.55707202  0.27958443  0.50005355
   0.66726117  0.16502502  0.49758519
   0.72286815  0.27598005  0.49806350
   0.83146339  0.16434016  0.49762844
   0.88728060  0.27563985  0.49776742
   0.99851628  0.33151925  0.49833063
   0.05417396  0.44343800  0.49878014
   0.16533043  0.33285716  0.49999954
   0.21911267  0.44383300  0.50171696
   0.33537459  0.33786694  0.50340322
   0.38751789  0.44859608  0.50939309
   0.50289145  0.33786561  0.50360428
   0.56135334  0.44855848  0.50976423
   0.66759181  0.33218728  0.49964068
   0.72487261  0.44346800  0.50118461
   0.83346262  0.33237936  0.49791523
   0.88952882  0.44370822  0.49825357
   0.00006407  0.49973827  0.49827712
   0.05576410  0.61121730  0.49827978
   0.16438425  0.49962037  0.50030648
   0.22038253  0.61135159  0.50030073
   0.32901625  0.49929936  0.50526508
   0.38542204  0.61197897  0.50522096
   0.67060258  0.49909269  0.50516324
   0.72684476  0.61184872  0.50516182
   0.83537090  0.49973210  0.49955048
   0.89111722  0.61118668  0.49954807
   0.00125624  0.66722195  0.49825667
   0.05672478  0.77897465  0.49790864
   0.16633160  0.66729370  0.49878065
   0.22261379  0.77896365  0.49831839
   0.33111247  0.66748330  0.50166134
   0.38853540  0.77867041  0.49998788
   0.49466316  0.66269797  0.50945444
   0.55321607  0.77361369  0.50339480
   0.66822120  0.66275044  0.50984556
   0.72043566  0.77358151  0.50357176
   0.83647960  0.66721554  0.50117602
   0.89030198  0.77828545  0.49963248
   0.00138803  0.83450144  0.49802988
   0.05670871  0.94579400  0.49753015
   0.16761514  0.83491734  0.49774659
   0.22333585  0.94640066  0.49761769
   0.33337243  0.83439517  0.49848395
   0.38939740  0.94580772  0.49781789
   0.49972251  0.83210394  0.50007326
   0.55567470  0.94408815  0.49837169
   0.66484306  0.83035058  0.50251006
   0.72087201  0.94193158  0.49944894
   0.83260204  0.83143163  0.50003947
   0.88830307  0.94316658  0.49839009
   0.52775790  0.55571070  0.55476408
 
 position of ions in cartesian coordinates  (Angst):
   0.00087587  0.00003817  7.46449425
  -0.00490703  1.42112768  7.46587961
   2.48079033  0.02664532  7.46311700
   2.47905035  1.44716801  7.47370096
   4.95289003  0.02771738  7.46614561
   4.95958657  1.44682416  7.47568977
  -0.00049120 12.75287846  7.46559391
   7.44361359  1.41628210  7.46470859
   2.47854326 12.74120048  7.47470215
   9.91003075  1.39338416  7.46356441
   4.95443975 12.72636056  7.47550584
  12.36690635  1.38925746  7.46588752
  13.60499214  2.11241262  7.46735472
  -1.25101576  3.52833203  7.47744031
   1.23573337  2.14451352  7.47541323
   1.23511800  3.56767116  7.50098260
   3.71910790  2.17187888  7.49103390
   3.71718933  3.59005874  7.53823242
   6.20442877  2.14485160  7.47589759
   6.19989351  3.56628208  7.50080324
   8.68812587  2.10494323  7.46377783
   8.69004945  3.52027576  7.47095245
  11.13291056  2.09617857  7.46442653
  11.13539728  3.51590766  7.46651128
  12.37299900  4.22868594  7.47495943
  -2.48936414  5.65648532  7.48170211
  -0.01631623  4.24589694  7.49999311
  -0.04165902  5.66149537  7.52575438
   2.47296228  4.30977223  7.55104823
   2.42510103  5.72222395  7.64089632
   4.96191780  4.30972610  7.55406420
   5.00820679  5.72171413  7.64646348
   7.45119998  4.23726480  7.49461022
   7.47557349  5.65675158  7.51776913
   9.91426170  4.23968621  7.46872846
   9.92023110  5.65978730  7.47380354
  -3.71157388  6.37466102  7.47415676
  -3.71216054  7.79667772  7.47419671
  -1.26924832  6.37312850  7.50459718
  -1.26727711  7.79836212  7.50451094
   1.17921902  6.36900507  7.57897615
   1.18019949  7.80633632  7.57831438
   6.25600326  6.36630955  7.57744863
   6.25398502  7.80461560  7.57742737
   8.69936118  6.37443729  7.49325713
   8.69964393  7.79614210  7.49322104
  -4.93808697  8.51108241  7.47384998
  -4.94414624  9.93659013  7.46862953
  -2.48595005  8.51196906  7.48170971
  -2.47930537  9.93642103  7.47477583
  -0.03906406  8.51435892  7.52492007
  -0.01188339  9.93265162  7.49981814
   2.42650252  8.45328893  7.64181658
   2.47248834  9.86811957  7.55092201
   5.00481736  8.45392813  7.64768343
   4.95725622  9.86768010  7.55357637
   7.47160959  8.51085571  7.51764037
   7.44616439  9.92765397  7.49448717
  -6.17883816 10.64489940  7.47044813
  -6.18367594 12.06453766  7.46295225
  -3.71214542 10.65017585  7.46619888
  -3.71245666 12.07224725  7.46426528
  -1.24546412 10.64348622  7.47725919
  -1.24072902 12.06465492  7.46726833
   1.24316681 10.61423050  7.50109896
   1.24257385 12.04269121  7.47557535
   3.70953396 10.59183593  7.53765093
   3.71307677 12.01515329  7.49173414
   6.19404577 10.60559668  7.50059201
   6.19157280 12.03087792  7.47585129
   3.71302229  7.08855366  8.32146116
 


--------------------------------------------------------------------------------------------------------


 k-point  1 :   0.0000 0.0000 0.0000  plane waves:   59581
 k-point  2 :   0.5000 0.0000 0.0000  plane waves:   59554
 k-point  3 :  -0.0000 0.5000 0.0000  plane waves:   59626
 k-point  4 :   0.5000 0.5000 0.0000  plane waves:   59554

 maximum and minimum number of plane-waves per node :      4990     4932

 maximum number of plane-waves:     59626
 maximum index in each direction: 
   IXMAX=   25   IYMAX=   25   IZMAX=   25
   IXMIN=  -25   IYMIN=  -25   IZMIN=  -25


 real space projection operators:
  total allocation   :      18900.62 KBytes
  max/ min on nodes  :       1623.22       1540.92


 parallel 3D FFT for wavefunctions:
    minimum data exchange during FFTs selected (reduces bandwidth)
 parallel 3D FFT for charge:
    minimum data exchange during FFTs selected (reduces bandwidth)


 total amount of memory used by VASP MPI-rank0   111622. kBytes
=======================================================================

   base      :      30000. kBytes
   nonlr-proj:       9913. kBytes
   fftplans  :      10852. kBytes
   grid      :      30996. kBytes
   one-center:        186. kBytes
   wavefun   :      29675. kBytes
 
     INWAV:  cpu time    0.0000: real time    0.0000
 Broyden mixing: mesh for mixing (old mesh)
   NGX = 51   NGY = 51   NGZ = 51
  (NGX  =216   NGY  =216   NGZ  =216)
  gives a total of 132651 points

 initial charge density was supplied:
 charge density of overlapping atoms calculated
 number of electron     293.0000000 magnetization       1.0000000
 keeping initial charge density in first step


--------------------------------------------------------------------------------------------------------


 Maximum index for non-local projection operator          550
 Maximum index for augmentation-charges          326 (set IRDMAX)


--------------------------------------------------------------------------------------------------------


 First call to EWALD:  gamma=   0.125
 Maximum number of real-space cells 3x 3x 3
 Maximum number of reciprocal cells 3x 3x 3

    FEWALD:  cpu time    0.0046: real time    0.0048


--------------------------------------- Iteration      1(   1)  ---------------------------------------


    POTLOK:  cpu time    0.3906: real time    0.4269
    SETDIJ:  cpu time    0.0131: real time    0.0136
     EDDAV:  cpu time   11.4768: real time   11.5874
       DOS:  cpu time    0.0015: real time    0.0015
    --------------------------------------------
      LOOP:  cpu time   11.8821: real time   12.0295

 eigenvalue-minimisations  :  3376
 total energy-change (2. order) : 0.2451688E+04  (-0.1079147E+05)
 number of electron     293.0000000 magnetization       1.0000000
 augmentation part      293.0000000 magnetization       1.0000000

 Free energy of the ion-electron system (eV)
  ---------------------------------------------------
  alpha Z        PSCENC =       157.24424637
  Ewald energy   TEWEN  =     30445.90884554
  -Hartree energ DENC   =    -39608.09807568
  -exchange      EXHF   =         0.00000000
  -V(xc)+E(xc)   XCENC  =       982.93311961
  PAW double counting   =      9000.30529238    -9089.18527416
  entropy T*S    EENTRO =        -0.10774176
  eigenvalues    EBANDS =     -1502.58972117
  atomic energy  EATOM  =     12065.27733323
  Solvation  Ediel_sol  =         0.00000000
  ---------------------------------------------------
  free energy    TOTEN  =      2451.68802437 eV

  energy without entropy =     2451.79576613  energy(sigma->0) =     2451.74189525


--------------------------------------------------------------------------------------------------------




--------------------------------------- Iteration      1(   2)  ---------------------------------------


     EDDAV:  cpu time   14.9597: real time   15.3114
       DOS:  cpu time    0.0009: real time    0.0009
    --------------------------------------------
      LOOP:  cpu time   14.9607: real time   15.3123

 eigenvalue-minimisations  :  4232
 total energy-change (2. order) :-0.2685338E+04  (-0.2566207E+04)
 number of electron     293.0000000 magnetization       1.0000000
 augmentation part      293.0000000 magnetization       1.0000000

 Free energy of the ion-electron system (eV)
  ---------------------------------------------------
  alpha Z        PSCENC =       157.24424637
  Ewald energy   TEWEN  =     30445.90884554
  -Hartree energ DENC   =    -39608.09807568
  -exchange      EXHF   =         0.00000000
  -V(xc)+E(xc)   XCENC  =       982.93311961
  PAW double counting   =      9000.30529238    -9089.18527416
  entropy T*S    EENTRO =        -0.01873898
  eigenvalues    EBANDS =     -4188.01651917
  atomic energy  EATOM  =     12065.27733323
  Solvation  Ediel_sol  =         0.00000000
  ---------------------------------------------------
  free energy    TOTEN  =      -233.64977085 eV

  energy without entropy =     -233.63103186  energy(sigma->0) =     -233.64040136


--------------------------------------------------------------------------------------------------------




--------------------------------------- Iteration      1(   3)  ---------------------------------------


     EDDAV:  cpu time   12.3685: real time   12.4850
       DOS:  cpu time    0.0010: real time    0.0010
    --------------------------------------------
      LOOP:  cpu time   12.3695: real time   12.4859

 eigenvalue-minimisations  :  3552
 total energy-change (2. order) :-0.4537900E+03  (-0.4510232E+03)
 number of electron     293.0000000 magnetization       1.0000000
 augmentation part      293.0000000 magnetization       1.0000000

 Free energy of the ion-electron system (eV)
  ---------------------------------------------------
  alpha Z        PSCENC =       157.24424637
  Ewald energy   TEWEN  =     30445.90884554
  -Hartree energ DENC   =    -39608.09807568
  -exchange      EXHF   =         0.00000000
  -V(xc)+E(xc)   XCENC  =       982.93311961
  PAW double counting   =      9000.30529238    -9089.18527416
  entropy T*S    EENTRO =        -0.03453946
  eigenvalues    EBANDS =     -4641.79068624
  atomic energy  EATOM  =     12065.27733323
  Solvation  Ediel_sol  =         0.00000000
  ---------------------------------------------------
  free energy    TOTEN  =      -687.43973841 eV

  energy without entropy =     -687.40519894  energy(sigma->0) =     -687.42246867


--------------------------------------------------------------------------------------------------------




--------------------------------------- Iteration      1(   4)  ---------------------------------------


     EDDAV:  cpu time   12.9631: real time   13.2124
       DOS:  cpu time    0.0009: real time    0.0009
    --------------------------------------------
      LOOP:  cpu time   12.9640: real time   13.2133

 eigenvalue-minimisations  :  3568
 total energy-change (2. order) :-0.1655011E+02  (-0.1640647E+02)
 number of electron     293.0000000 magnetization       1.0000000
 augmentation part      293.0000000 magnetization       1.0000000

 Free energy of the ion-electron system (eV)
  ---------------------------------------------------
  alpha Z        PSCENC =       157.24424637
  Ewald energy   TEWEN  =     30445.90884554
  -Hartree energ DENC   =    -39608.09807568
  -exchange      EXHF   =         0.00000000
  -V(xc)+E(xc)   XCENC  =       982.93311961
  PAW double counting   =      9000.30529238    -9089.18527416
  entropy T*S    EENTRO =        -0.03991300
  eigenvalues    EBANDS =     -4658.33542135
  atomic energy  EATOM  =     12065.27733323
  Solvation  Ediel_sol  =         0.00000000
  ---------------------------------------------------
  free energy    TOTEN  =      -703.98984705 eV

  energy without entropy =     -703.94993405  energy(sigma->0) =     -703.96989055


--------------------------------------------------------------------------------------------------------




--------------------------------------- Iteration      1(   5)  ---------------------------------------


     EDDAV:  cpu time   13.9905: real time   14.1480
       DOS:  cpu time    0.0010: real time    0.0010
    CHARGE:  cpu time    0.4913: real time    0.5000
    MIXING:  cpu time    0.0071: real time    0.0085
    --------------------------------------------
      LOOP:  cpu time   14.4900: real time   14.6575

 eigenvalue-minimisations  :  4016
 total energy-change (2. order) :-0.5418164E+00  (-0.5398600E+00)
 number of electron     292.9999985 magnetization       0.7756550
 augmentation part       11.6632422 magnetization       0.7572701

 Broyden mixing:
  rms(total) = 0.46859E+01    rms(broyden)= 0.46854E+01
  rms(prec ) = 0.54433E+01
  weight for this iteration     100.00

 Free energy of the ion-electron system (eV)
  ---------------------------------------------------
  alpha Z        PSCENC =       157.24424637
  Ewald energy   TEWEN  =     30445.90884554
  -Hartree energ DENC   =    -39608.09807568
  -exchange      EXHF   =         0.00000000
  -V(xc)+E(xc)   XCENC  =       982.93311961
  PAW double counting   =      9000.30529238    -9089.18527416
  entropy T*S    EENTRO =        -0.04047956
  eigenvalues    EBANDS =     -4658.87667120
  atomic energy  EATOM  =     12065.27733323
  Solvation  Ediel_sol  =         0.00000000
  ---------------------------------------------------
  free energy    TOTEN  =      -704.53166346 eV

  energy without entropy =     -704.49118389  energy(sigma->0) =     -704.51142367


--------------------------------------------------------------------------------------------------------




--------------------------------------- Iteration      1(   6)  ---------------------------------------


    POTLOK:  cpu time    0.3786: real time    0.3902
    SETDIJ:  cpu time    0.0117: real time    0.0117
    EDDIAG:  cpu time    2.0964: real time    2.1211
  RMM-DIIS:  cpu time   11.5885: real time   11.6819
    ORTHCH:  cpu time    0.2238: real time    0.2249
       DOS:  cpu time    0.0009: real time    0.0009
    CHARGE:  cpu time    0.4740: real time    0.4834
    MIXING:  cpu time    0.0075: real time    0.0106
    --------------------------------------------
      LOOP:  cpu time   14.7815: real time   14.9246

 eigenvalue-minimisations  :  4090
 total energy-change (2. order) :-0.2604738E+02  (-0.5194374E+02)
 number of electron     292.9999985 magnetization       0.7206087
 augmentation part       17.2724451 magnetization       1.0034770

 Broyden mixing:
  rms(total) = 0.83640E+01    rms(broyden)= 0.83636E+01
  rms(prec ) = 0.92270E+01
  weight for this iteration     100.00

 eigenvalues of (default mixing * dielectric matrix)
  average eigenvalue GAMMA=   0.2163
  0.2163

 Free energy of the ion-electron system (eV)
  ---------------------------------------------------
  alpha Z        PSCENC =       157.24424637
  Ewald energy   TEWEN  =     30445.90884554
  -Hartree energ DENC   =    -39901.45507224
  -exchange      EXHF   =         0.00000000
  -V(xc)+E(xc)   XCENC  =       996.75238846
  PAW double counting   =     15332.65391725   -15421.29165241
  entropy T*S    EENTRO =        -0.05046294
  eigenvalues    EBANDS =     -4405.61858408
  atomic energy  EATOM  =     12065.27733323
  Solvation  Ediel_sol  =         0.00000000
  ---------------------------------------------------
  free energy    TOTEN  =      -730.57904081 eV

  energy without entropy =     -730.52857787  energy(sigma->0) =     -730.55380934


--------------------------------------------------------------------------------------------------------




--------------------------------------- Iteration      1(   7)  ---------------------------------------


    POTLOK:  cpu time    0.3858: real time    0.3906
    SETDIJ:  cpu time    0.0121: real time    0.0121
    EDDIAG:  cpu time    2.0387: real time    2.0567
  RMM-DIIS:  cpu time    8.8607: real time    8.9303
    ORTHCH:  cpu time    0.4181: real time    0.4219
       DOS:  cpu time    0.0008: real time    0.0008
    CHARGE:  cpu time    0.4868: real time    0.4958
    MIXING:  cpu time    0.0091: real time    0.0105
    --------------------------------------------
      LOOP:  cpu time   12.2121: real time   12.3188

 eigenvalue-minimisations  :  3058
 total energy-change (2. order) : 0.6758544E+02  (-0.6458123E+01)
 number of electron     292.9999984 magnetization       0.6189586
 augmentation part       15.2957189 magnetization       0.6408634

 Broyden mixing:
  rms(total) = 0.32524E+01    rms(broyden)= 0.32521E+01
  rms(prec ) = 0.39046E+01
  weight for this iteration     100.00

 eigenvalues of (default mixing * dielectric matrix)
  average eigenvalue GAMMA=   0.4632
  0.4632  0.4632

 Free energy of the ion-electron system (eV)
  ---------------------------------------------------
  alpha Z        PSCENC =       157.24424637
  Ewald energy   TEWEN  =     30445.90884554
  -Hartree energ DENC   =    -40023.03254891
  -exchange      EXHF   =         0.00000000
  -V(xc)+E(xc)   XCENC  =      1001.34450381
  PAW double counting   =     16962.82022847   -17058.21464384
  entropy T*S    EENTRO =        -0.00007714
  eigenvalues    EBANDS =     -4214.34148611
  atomic energy  EATOM  =     12065.27733323
  Solvation  Ediel_sol  =         0.00000000
  ---------------------------------------------------
  free energy    TOTEN  =      -662.99359858 eV

  energy without entropy =     -662.99352144  energy(sigma->0) =     -662.99356001


--------------------------------------------------------------------------------------------------------




--------------------------------------- Iteration      1(   8)  ---------------------------------------


    POTLOK:  cpu time    0.3972: real time    0.4007
    SETDIJ:  cpu time    0.0121: real time    0.0122
    EDDIAG:  cpu time    2.0370: real time    2.0525
  RMM-DIIS:  cpu time    8.8305: real time    8.8943
    ORTHCH:  cpu time    0.3319: real time    0.3507
       DOS:  cpu time    0.0010: real time    0.0010
    CHARGE:  cpu time    0.5018: real time    0.5130
    MIXING:  cpu time    0.0073: real time    0.0080
    --------------------------------------------
      LOOP:  cpu time   12.1189: real time   12.2323

 eigenvalue-minimisations  :  3087
 total energy-change (2. order) : 0.4340421E+00  (-0.2343527E+01)
 number of electron     292.9999984 magnetization       0.3447774
 augmentation part       11.2392556 magnetization       0.3029969

 Broyden mixing:
  rms(total) = 0.28460E+01    rms(broyden)= 0.28451E+01
  rms(prec ) = 0.34828E+01
  weight for this iteration     100.00

 eigenvalues of (default mixing * dielectric matrix)
  average eigenvalue GAMMA=   0.8534
  1.8813  0.3395  0.3395

 Free energy of the ion-electron system (eV)
  ---------------------------------------------------
  alpha Z        PSCENC =       157.24424637
  Ewald energy   TEWEN  =     30445.90884554
  -Hartree energ DENC   =    -40202.83928350
  -exchange      EXHF   =         0.00000000
  -V(xc)+E(xc)   XCENC  =      1008.00549311
  PAW double counting   =     19918.46641014   -20017.89853076
  entropy T*S    EENTRO =        -0.03306973
  eigenvalues    EBANDS =     -4036.69100092
  atomic energy  EATOM  =     12065.27733323
  Solvation  Ediel_sol  =         0.00000000
  ---------------------------------------------------
  free energy    TOTEN  =      -662.55955651 eV

  energy without entropy =     -662.52648678  energy(sigma->0) =     -662.54302165


--------------------------------------------------------------------------------------------------------




--------------------------------------- Iteration      1(   9)  ---------------------------------------


    POTLOK:  cpu time    0.3974: real time    0.4013
    SETDIJ:  cpu time    0.0122: real time    0.0123
    EDDIAG:  cpu time    2.0574: real time    2.0741
  RMM-DIIS:  cpu time    8.5353: real time    8.5988
    ORTHCH:  cpu time    0.2510: real time    0.2666
       DOS:  cpu time    0.0009: real time    0.0009
    CHARGE:  cpu time    0.4708: real time    0.4786
    MIXING:  cpu time    0.0086: real time    0.0086
    --------------------------------------------
      LOOP:  cpu time   11.7337: real time   11.8412

 eigenvalue-minimisations  :  2972
 total energy-change (2. order) : 0.1522000E+02  (-0.2023320E+01)
 number of electron     292.9999986 magnetization       0.2567201
 augmentation part       12.1539749 magnetization       0.2744528

 Broyden mixing:
  rms(total) = 0.11878E+01    rms(broyden)= 0.11873E+01
  rms(prec ) = 0.13450E+01
  weight for this iteration     100.00

 eigenvalues of (default mixing * dielectric matrix)
  average eigenvalue GAMMA=   0.9105
  2.2241  0.7144  0.3518  0.3518

 Free energy of the ion-electron system (eV)
  ---------------------------------------------------
  alpha Z        PSCENC =       157.24424637
  Ewald energy   TEWEN  =     30445.90884554
  -Hartree energ DENC   =    -40512.82127278
  -exchange      EXHF   =         0.00000000
  -V(xc)+E(xc)   XCENC  =      1020.99681916
  PAW double counting   =     28476.63218791   -28578.85601933
  entropy T*S    EENTRO =        -0.00305184
  eigenvalues    EBANDS =     -3721.71864410
  atomic energy  EATOM  =     12065.27733323
  Solvation  Ediel_sol  =         0.00000000
  ---------------------------------------------------
  free energy    TOTEN  =      -647.33955582 eV

  energy without entropy =     -647.33650398  energy(sigma->0) =     -647.33802990


--------------------------------------------------------------------------------------------------------




--------------------------------------- Iteration      1(  10)  ---------------------------------------


    POTLOK:  cpu time    0.3871: real time    0.3907
    SETDIJ:  cpu time    0.0121: real time    0.0122
    EDDIAG:  cpu time    2.0408: real time    2.0544
  RMM-DIIS:  cpu time    8.5612: real time    8.6190
    ORTHCH:  cpu time    0.5233: real time    0.5262
       DOS:  cpu time    0.0009: real time    0.0009
    CHARGE:  cpu time    0.4670: real time    0.4736
    MIXING:  cpu time    0.0090: real time    0.0091
    --------------------------------------------
      LOOP:  cpu time   12.0014: real time   12.0860

 eigenvalue-minimisations  :  3003
 total energy-change (2. order) :-0.4073893E+00  (-0.3423023E+00)
 number of electron     292.9999984 magnetization       0.2022703
 augmentation part       13.7819905 magnetization       0.2342221

 Broyden mixing:
  rms(total) = 0.14650E+01    rms(broyden)= 0.14631E+01
  rms(prec ) = 0.18214E+01
  weight for this iteration     100.00

 eigenvalues of (default mixing * dielectric matrix)
  average eigenvalue GAMMA=   0.9268
  2.3484  1.1112  0.3476  0.3476  0.4790

 Free energy of the ion-electron system (eV)
  ---------------------------------------------------
  alpha Z        PSCENC =       157.24424637
  Ewald energy   TEWEN  =     30445.90884554
  -Hartree energ DENC   =    -40556.14935502
  -exchange      EXHF   =         0.00000000
  -V(xc)+E(xc)   XCENC  =      1021.93049536
  PAW double counting   =     30033.13891995   -30134.20507434
  entropy T*S    EENTRO =        -0.00190920
  eigenvalues    EBANDS =     -3680.89044698
  atomic energy  EATOM  =     12065.27733323
  Solvation  Ediel_sol  =         0.00000000
  ---------------------------------------------------
  free energy    TOTEN  =      -647.74694507 eV

  energy without entropy =     -647.74503587  energy(sigma->0) =     -647.74599047


--------------------------------------------------------------------------------------------------------




--------------------------------------- Iteration      1(  11)  ---------------------------------------


    POTLOK:  cpu time    0.3440: real time    0.3485
    SETDIJ:  cpu time    0.0120: real time    0.0120
    EDDIAG:  cpu time    2.0766: real time    2.0932
  RMM-DIIS:  cpu time    8.8830: real time    8.9467
    ORTHCH:  cpu time    0.3505: real time    0.3517
       DOS:  cpu time    0.0010: real time    0.0010
    CHARGE:  cpu time    0.4596: real time    0.4676
    MIXING:  cpu time    0.0077: real time    0.0077
    --------------------------------------------
      LOOP:  cpu time   12.1343: real time   12.2284

 eigenvalue-minimisations  :  3126
 total energy-change (2. order) : 0.1066032E+01  (-0.4212793E-01)
 number of electron     292.9999985 magnetization       0.1417322
 augmentation part       12.5508135 magnetization       0.1217963

 Broyden mixing:
  rms(total) = 0.77582E+00    rms(broyden)= 0.77316E+00
  rms(prec ) = 0.82144E+00
  weight for this iteration     100.00

 eigenvalues of (default mixing * dielectric matrix)
  average eigenvalue GAMMA=   0.9593
  2.1617  1.9271  0.6129  0.3457  0.3457  0.3628

 Free energy of the ion-electron system (eV)
  ---------------------------------------------------
  alpha Z        PSCENC =       157.24424637
  Ewald energy   TEWEN  =     30445.90884554
  -Hartree energ DENC   =    -40588.67337592
  -exchange      EXHF   =         0.00000000
  -V(xc)+E(xc)   XCENC  =      1022.33302324
  PAW double counting   =     30692.68074102   -30793.05755988
  entropy T*S    EENTRO =        -0.03040778
  eigenvalues    EBANDS =     -3648.36375844
  atomic energy  EATOM  =     12065.27733323
  Solvation  Ediel_sol  =         0.00000000
  ---------------------------------------------------
  free energy    TOTEN  =      -646.68091261 eV

  energy without entropy =     -646.65050484  energy(sigma->0) =     -646.66570873


--------------------------------------------------------------------------------------------------------




--------------------------------------- Iteration      1(  12)  ---------------------------------------


    POTLOK:  cpu time    0.3831: real time    0.3933
    SETDIJ:  cpu time    0.0119: real time    0.0120
    EDDIAG:  cpu time    2.0823: real time    2.0979
  RMM-DIIS:  cpu time    8.3709: real time    8.4279
    ORTHCH:  cpu time    0.4574: real time    0.4584
       DOS:  cpu time    0.0010: real time    0.0010
    CHARGE:  cpu time    0.4530: real time    0.4596
    MIXING:  cpu time    0.0096: real time    0.0097
    --------------------------------------------
      LOOP:  cpu time   11.7693: real time   11.8599

 eigenvalue-minimisations  :  2944
 total energy-change (2. order) : 0.1018717E+00  (-0.1629177E-01)
 number of electron     292.9999985 magnetization       0.1634373
 augmentation part       12.9268206 magnetization      -0.2172248

 Broyden mixing:
  rms(total) = 0.68426E+00    rms(broyden)= 0.68296E+00
  rms(prec ) = 0.70988E+00
  weight for this iteration     100.00

 eigenvalues of (default mixing * dielectric matrix)
  average eigenvalue GAMMA=   0.8504
  2.1006  2.1006  0.5343  0.3470  0.3470  0.3699  0.1535

 Free energy of the ion-electron system (eV)
  ---------------------------------------------------
  alpha Z        PSCENC =       157.24424637
  Ewald energy   TEWEN  =     30445.90884554
  -Hartree energ DENC   =    -40613.06891673
  -exchange      EXHF   =         0.00000000
  -V(xc)+E(xc)   XCENC  =      1021.88734294
  PAW double counting   =     31115.53182534   -31214.42988920
  entropy T*S    EENTRO =        -0.04733210
  eigenvalues    EBANDS =     -3624.88249627
  atomic energy  EATOM  =     12065.27733323
  Solvation  Ediel_sol  =         0.00000000
  ---------------------------------------------------
  free energy    TOTEN  =      -646.57904087 eV

  energy without entropy =     -646.53170877  energy(sigma->0) =     -646.55537482


--------------------------------------------------------------------------------------------------------




--------------------------------------- Iteration      1(  13)  ---------------------------------------


    POTLOK:  cpu time    0.4313: real time    0.4358
    SETDIJ:  cpu time    0.0120: real time    0.0121
    EDDIAG:  cpu time    2.0435: real time    2.0573
  RMM-DIIS:  cpu time    8.5586: real time    8.6257
    ORTHCH:  cpu time    0.2074: real time    0.2079
       DOS:  cpu time    0.0010: real time    0.0010
    CHARGE:  cpu time    0.4852: real time    0.4929
    MIXING:  cpu time    0.0092: real time    0.0092
    --------------------------------------------
      LOOP:  cpu time   11.7481: real time   11.8421

 eigenvalue-minimisations  :  2983
 total energy-change (2. order) :-0.1036441E+00  (-0.3247411E-02)
 number of electron     292.9999985 magnetization       0.0426340
 augmentation part       12.9725441 magnetization      -0.4285268

 Broyden mixing:
  rms(total) = 0.73213E+00    rms(broyden)= 0.73194E+00
  rms(prec ) = 0.76560E+00
  weight for this iteration     100.00

 eigenvalues of (default mixing * dielectric matrix)
  average eigenvalue GAMMA=   0.8552
  2.1426  2.1426  0.3467  0.3467  0.5911  0.5269  0.3260  0.4193

 Free energy of the ion-electron system (eV)
  ---------------------------------------------------
  alpha Z        PSCENC =       157.24424637
  Ewald energy   TEWEN  =     30445.90884554
  -Hartree energ DENC   =    -40615.55051300
  -exchange      EXHF   =         0.00000000
  -V(xc)+E(xc)   XCENC  =      1021.90797661
  PAW double counting   =     31123.28306105   -31222.07041809
  entropy T*S    EENTRO =        -0.02806096
  eigenvalues    EBANDS =     -3622.65515573
  atomic energy  EATOM  =     12065.27733323
  Solvation  Ediel_sol  =         0.00000000
  ---------------------------------------------------
  free energy    TOTEN  =      -646.68268498 eV

  energy without entropy =     -646.65462402  energy(sigma->0) =     -646.66865450


--------------------------------------------------------------------------------------------------------




--------------------------------------- Iteration      1(  14)  ---------------------------------------


    POTLOK:  cpu time    0.3997: real time    0.4038
    SETDIJ:  cpu time    0.0120: real time    0.0121
    EDDIAG:  cpu time    2.0408: real time    2.0597
  RMM-DIIS:  cpu time    8.4885: real time    8.5500
    ORTHCH:  cpu time    0.2743: real time    0.2751
       DOS:  cpu time    0.0010: real time    0.0010
    CHARGE:  cpu time    0.4559: real time    0.4623
    MIXING:  cpu time    0.0081: real time    0.0082
    --------------------------------------------
      LOOP:  cpu time   11.6805: real time   11.7722

 eigenvalue-minimisations  :  2968
 total energy-change (2. order) : 0.2536919E+00  (-0.3889592E-02)
 number of electron     292.9999985 magnetization       0.0645510
 augmentation part       13.0001900 magnetization      -0.2544491

 Broyden mixing:
  rms(total) = 0.69454E+00    rms(broyden)= 0.69443E+00
  rms(prec ) = 0.73654E+00
  weight for this iteration     100.00

 eigenvalues of (default mixing * dielectric matrix)
  average eigenvalue GAMMA=   0.8541
  2.2080  2.2080  0.5392  0.5392  0.6612  0.3460  0.3460  0.5061  0.3329

 Free energy of the ion-electron system (eV)
  ---------------------------------------------------
  alpha Z        PSCENC =       157.24424637
  Ewald energy   TEWEN  =     30445.90884554
  -Hartree energ DENC   =    -40616.78065267
  -exchange      EXHF   =         0.00000000
  -V(xc)+E(xc)   XCENC  =      1021.91080416
  PAW double counting   =     31218.14190215   -31316.80772251
  entropy T*S    EENTRO =        -0.05834290
  eigenvalues    EBANDS =     -3621.26540648
  atomic energy  EATOM  =     12065.27733323
  Solvation  Ediel_sol  =         0.00000000
  ---------------------------------------------------
  free energy    TOTEN  =      -646.42899311 eV

  energy without entropy =     -646.37065021  energy(sigma->0) =     -646.39982166


--------------------------------------------------------------------------------------------------------




--------------------------------------- Iteration      1(  15)  ---------------------------------------


    POTLOK:  cpu time    0.4307: real time    0.4347
    SETDIJ:  cpu time    0.0118: real time    0.0118
    EDDIAG:  cpu time    2.0441: real time    2.0588
  RMM-DIIS:  cpu time    8.7199: real time    8.7782
    ORTHCH:  cpu time    0.3343: real time    0.3350
       DOS:  cpu time    0.0010: real time    0.0010
    CHARGE:  cpu time    0.4891: real time    0.4967
    MIXING:  cpu time    0.0085: real time    0.0086
    --------------------------------------------
      LOOP:  cpu time   12.0394: real time   12.1249

 eigenvalue-minimisations  :  3052
 total energy-change (2. order) :-0.5429384E-01  (-0.3865565E-03)
 number of electron     292.9999985 magnetization       0.2551760
 augmentation part       12.9974613 magnetization      -0.0278040

 Broyden mixing:
  rms(total) = 0.66250E+00    rms(broyden)= 0.66248E+00
  rms(prec ) = 0.70540E+00
  weight for this iteration     100.00

 eigenvalues of (default mixing * dielectric matrix)
  average eigenvalue GAMMA=   0.8705
  2.2128  2.2128  0.7472  0.7472  0.6394  0.6394  0.3456  0.3456  0.4787  0.3366

 Free energy of the ion-electron system (eV)
  ---------------------------------------------------
  alpha Z        PSCENC =       157.24424637
  Ewald energy   TEWEN  =     30445.90884554
  -Hartree energ DENC   =    -40616.44591779
  -exchange      EXHF   =         0.00000000
  -V(xc)+E(xc)   XCENC  =      1021.87796374
  PAW double counting   =     31219.54177620   -31318.21530541
  entropy T*S    EENTRO =        -0.06322083
  eigenvalues    EBANDS =     -3621.60900801
  atomic energy  EATOM  =     12065.27733323
  Solvation  Ediel_sol  =         0.00000000
  ---------------------------------------------------
  free energy    TOTEN  =      -646.48328695 eV

  energy without entropy =     -646.42006612  energy(sigma->0) =     -646.45167654


--------------------------------------------------------------------------------------------------------




--------------------------------------- Iteration      1(  16)  ---------------------------------------


    POTLOK:  cpu time    0.4040: real time    0.4096
    SETDIJ:  cpu time    0.0112: real time    0.0117
    EDDIAG:  cpu time    2.0414: real time    2.0566
  RMM-DIIS:  cpu time    8.3160: real time    8.3855
    ORTHCH:  cpu time    0.2010: real time    0.2017
       DOS:  cpu time    0.0010: real time    0.0010
    CHARGE:  cpu time    0.4843: real time    0.4941
    MIXING:  cpu time    0.0083: real time    0.0094
    --------------------------------------------
      LOOP:  cpu time   11.4672: real time   11.5694

 eigenvalue-minimisations  :  2966
 total energy-change (2. order) :-0.2007053E+00  (-0.4931625E-02)
 number of electron     292.9999985 magnetization       0.6632057
 augmentation part       13.0127572 magnetization       0.2071118

 Broyden mixing:
  rms(total) = 0.75762E+00    rms(broyden)= 0.75741E+00
  rms(prec ) = 0.80052E+00
  weight for this iteration     100.00

 eigenvalues of (default mixing * dielectric matrix)
  average eigenvalue GAMMA=   0.9310
  2.1550  2.1550  1.0508  1.0508  0.9096  0.9096  0.3456  0.3456  0.5126  0.4742
  0.3326

 Free energy of the ion-electron system (eV)
  ---------------------------------------------------
  alpha Z        PSCENC =       157.24424637
  Ewald energy   TEWEN  =     30445.90884554
  -Hartree energ DENC   =    -40627.87052429
  -exchange      EXHF   =         0.00000000
  -V(xc)+E(xc)   XCENC  =      1022.11541687
  PAW double counting   =     31189.81526413   -31288.55301429
  entropy T*S    EENTRO =        -0.02258151
  eigenvalues    EBANDS =     -3610.59897833
  atomic energy  EATOM  =     12065.27733323
  Solvation  Ediel_sol  =         0.00000000
  ---------------------------------------------------
  free energy    TOTEN  =      -646.68399228 eV

  energy without entropy =     -646.66141076  energy(sigma->0) =     -646.67270152


--------------------------------------------------------------------------------------------------------




--------------------------------------- Iteration      1(  17)  ---------------------------------------


    POTLOK:  cpu time    0.3840: real time    0.3910
    SETDIJ:  cpu time    0.0117: real time    0.0117
    EDDIAG:  cpu time    2.0432: real time    2.0612
  RMM-DIIS:  cpu time    8.3457: real time    8.4029
    ORTHCH:  cpu time    0.1516: real time    0.1524
       DOS:  cpu time    0.0018: real time    0.0020
    CHARGE:  cpu time    0.4575: real time    0.4637
    MIXING:  cpu time    0.0105: real time    0.0106
    --------------------------------------------
      LOOP:  cpu time   11.4059: real time   11.4954

 eigenvalue-minimisations  :  2967
 total energy-change (2. order) :-0.1406153E+00  (-0.2321609E-01)
 number of electron     292.9999985 magnetization       0.9533839
 augmentation part       12.9188651 magnetization       0.6105895

 Broyden mixing:
  rms(total) = 0.58932E+00    rms(broyden)= 0.58910E+00
  rms(prec ) = 0.61373E+00
  weight for this iteration     100.00

 eigenvalues of (default mixing * dielectric matrix)
  average eigenvalue GAMMA=   0.9075
  2.1682  2.1682  1.1386  1.1386  0.8799  0.8799  0.3457  0.3457  0.5091  0.5091
  0.3358  0.4708

 Free energy of the ion-electron system (eV)
  ---------------------------------------------------
  alpha Z        PSCENC =       157.24424637
  Ewald energy   TEWEN  =     30445.90884554
  -Hartree energ DENC   =    -40650.97733764
  -exchange      EXHF   =         0.00000000
  -V(xc)+E(xc)   XCENC  =      1022.67496410
  PAW double counting   =     31117.02234816   -31215.75168543
  entropy T*S    EENTRO =        -0.03345395
  eigenvalues    EBANDS =     -3588.18986795
  atomic energy  EATOM  =     12065.27733323
  Solvation  Ediel_sol  =         0.00000000
  ---------------------------------------------------
  free energy    TOTEN  =      -646.82460757 eV

  energy without entropy =     -646.79115362  energy(sigma->0) =     -646.80788060


--------------------------------------------------------------------------------------------------------




--------------------------------------- Iteration      1(  18)  ---------------------------------------


    POTLOK:  cpu time    0.3152: real time    0.3200
    SETDIJ:  cpu time    0.0119: real time    0.0120
    EDDIAG:  cpu time    2.0437: real time    2.0595
  RMM-DIIS:  cpu time    8.4957: real time    8.5595
    ORTHCH:  cpu time    0.1512: real time    0.1601
       DOS:  cpu time    0.0010: real time    0.0010
    CHARGE:  cpu time    0.4574: real time    0.4645
    MIXING:  cpu time    0.0088: real time    0.0089
    --------------------------------------------
      LOOP:  cpu time   11.4849: real time   11.5854

 eigenvalue-minimisations  :  2973
 total energy-change (2. order) :-0.1062561E-01  (-0.2427237E-01)
 number of electron     292.9999985 magnetization       1.0191169
 augmentation part       12.9275382 magnetization       0.6271626

 Broyden mixing:
  rms(total) = 0.44686E+00    rms(broyden)= 0.44675E+00
  rms(prec ) = 0.47948E+00
  weight for this iteration     100.00

 eigenvalues of (default mixing * dielectric matrix)
  average eigenvalue GAMMA=   0.8521
  2.1613  2.1613  1.1529  1.1529  0.8874  0.8874  0.4638  0.4626  0.3453  0.3453
  0.3300  0.3633  0.3633

 Free energy of the ion-electron system (eV)
  ---------------------------------------------------
  alpha Z        PSCENC =       157.24424637
  Ewald energy   TEWEN  =     30445.90884554
  -Hartree energ DENC   =    -40661.21515611
  -exchange      EXHF   =         0.00000000
  -V(xc)+E(xc)   XCENC  =      1023.12187948
  PAW double counting   =     31072.85970855   -31171.56278009
  entropy T*S    EENTRO =        -0.03213904
  eigenvalues    EBANDS =     -3578.43717112
  atomic energy  EATOM  =     12065.27733323
  Solvation  Ediel_sol  =         0.00000000
  ---------------------------------------------------
  free energy    TOTEN  =      -646.83523318 eV

  energy without entropy =     -646.80309414  energy(sigma->0) =     -646.81916366


--------------------------------------------------------------------------------------------------------




--------------------------------------- Iteration      1(  19)  ---------------------------------------


    POTLOK:  cpu time    0.4258: real time    0.4337
    SETDIJ:  cpu time    0.0121: real time    0.0121
    EDDIAG:  cpu time    2.0322: real time    2.0497
  RMM-DIIS:  cpu time    8.8571: real time    8.9194
    ORTHCH:  cpu time    0.2630: real time    0.2637
       DOS:  cpu time    0.0010: real time    0.0010
    CHARGE:  cpu time    0.4941: real time    0.5017
    MIXING:  cpu time    0.0101: real time    0.0101
    --------------------------------------------
      LOOP:  cpu time   12.0955: real time   12.1914

 eigenvalue-minimisations  :  3115
 total energy-change (2. order) :-0.4986653E-01  (-0.6223589E-02)
 number of electron     292.9999985 magnetization       1.1238324
 augmentation part       12.9185785 magnetization       0.7420145

 Broyden mixing:
  rms(total) = 0.39596E+00    rms(broyden)= 0.39595E+00
  rms(prec ) = 0.42995E+00
  weight for this iteration     100.00

 eigenvalues of (default mixing * dielectric matrix)
  average eigenvalue GAMMA=   0.9177
  2.1478  2.1478  1.2603  1.2603  0.7834  0.7834  0.9637  0.9637  0.3457  0.3457
  0.3343  0.5088  0.5088  0.4945

 Free energy of the ion-electron system (eV)
  ---------------------------------------------------
  alpha Z        PSCENC =       157.24424637
  Ewald energy   TEWEN  =     30445.90884554
  -Hartree energ DENC   =    -40663.45058869
  -exchange      EXHF   =         0.00000000
  -V(xc)+E(xc)   XCENC  =      1023.17851465
  PAW double counting   =     31069.62114349   -31168.35256889
  entropy T*S    EENTRO =        -0.03225937
  eigenvalues    EBANDS =     -3576.27976604
  atomic energy  EATOM  =     12065.27733323
  Solvation  Ediel_sol  =         0.00000000
  ---------------------------------------------------
  free energy    TOTEN  =      -646.88509971 eV

  energy without entropy =     -646.85284034  energy(sigma->0) =     -646.86897003


--------------------------------------------------------------------------------------------------------




--------------------------------------- Iteration      1(  20)  ---------------------------------------


    POTLOK:  cpu time    0.3966: real time    0.4001
    SETDIJ:  cpu time    0.0120: real time    0.0121
    EDDIAG:  cpu time    2.0229: real time    2.0376
  RMM-DIIS:  cpu time    8.3592: real time    8.4232
    ORTHCH:  cpu time    0.3409: real time    0.3423
       DOS:  cpu time    0.0010: real time    0.0010
    CHARGE:  cpu time    0.4549: real time    0.4612
    MIXING:  cpu time    0.0104: real time    0.0104
    --------------------------------------------
      LOOP:  cpu time   11.5980: real time   11.6879

 eigenvalue-minimisations  :  2948
 total energy-change (2. order) :-0.5196734E-01  (-0.4069685E-02)
 number of electron     292.9999985 magnetization       1.2552433
 augmentation part       12.8670773 magnetization       0.8545784

 Broyden mixing:
  rms(total) = 0.28779E+00    rms(broyden)= 0.28779E+00
  rms(prec ) = 0.31309E+00
  weight for this iteration     100.00

 eigenvalues of (default mixing * dielectric matrix)
  average eigenvalue GAMMA=   0.9513
  2.1748  2.1748  1.3575  1.3575  1.0489  1.0489  1.2211  0.7968  0.3457  0.3457
  0.5924  0.3339  0.4680  0.5020  0.5020

 Free energy of the ion-electron system (eV)
  ---------------------------------------------------
  alpha Z        PSCENC =       157.24424637
  Ewald energy   TEWEN  =     30445.90884554
  -Hartree energ DENC   =    -40671.53499732
  -exchange      EXHF   =         0.00000000
  -V(xc)+E(xc)   XCENC  =      1023.25132295
  PAW double counting   =     31070.04217624   -31168.80368607
  entropy T*S    EENTRO =        -0.03248675
  eigenvalues    EBANDS =     -3568.28982125
[...]
  Alpha Z   157.24425   157.24425   157.24425
  Ewald   40541.15419 40569.53547-50664.83633    -1.59877    -3.07600     0.36326
  Hartree 40006.55916 39980.58109-39216.54131    -1.47585    -2.10407     0.32841
  E(xc)   -1111.06824 -1110.73721 -1150.19860    -0.00041    -0.00043    -0.00163
  Local  -83754.61352-83745.45234 86090.42951     3.07606     4.98524    -0.74746
  n-local  -289.37877  -286.57622  -270.00985     0.03476     0.01815     0.02661
  augment    66.62445    64.91885    65.41589     0.00825     0.01083     0.02988
  Kinetic  4383.32819  4370.57551  4985.00531    -0.07661     0.16803    -0.00340
  Fock        0.00000     0.00000     0.00000     0.00000     0.00000     0.00000
  vdW        -1.50975    -1.66375    -0.04130    -0.00077    -0.00000     0.00212
  -------------------------------------------------------------------------------------
  Total      -1.66003    -1.57436    -3.53242    -0.03333     0.00176    -0.00220
  in kB      -0.93555    -0.88727    -1.99078    -0.01878     0.00099    -0.00124
  external pressure =       -1.27 kB  Pullay stress =        0.00 kB


 VOLUME and BASIS-vectors are now :
 -----------------------------------------------------------------------------
  energy-cutoff  :      440.00
  volume of cell :     2842.89
      direct lattice vectors                 reciprocal lattice vectors
    14.857880698 -0.000173602  0.000000000     0.067304808  0.039197510  0.000000000
    -7.428940349 12.755999190  0.000000000     0.000000916  0.078395019  0.000000000
     0.000000000  0.000000000 15.000000000     0.000000000  0.000000000  0.066666667

  length of vectors
    14.857880699 14.761594428 15.000000000     0.077886982  0.078395019  0.066666667


 FORCES acting on ions
    electron-ion (+dipol)            ewald-force                    non-local-force                 convergence-correction
 -----------------------------------------------------------------------------------------------
   -.211E+00 0.889E+00 0.794E+01   0.315E+00 -.925E+00 -.797E+01   -.124E+00 0.415E-01 0.267E-01   -.209E-03 -.254E-03 0.267E-04
   -.367E+01 -.979E+00 0.762E+01   0.397E+01 0.994E+00 -.765E+01   -.297E+00 -.364E-01 0.239E-01   0.178E-03 0.195E-03 0.283E-04
   0.199E+00 0.623E+00 0.734E+01   -.210E+00 -.478E+00 -.737E+01   0.159E-02 -.135E+00 0.255E-01   -.966E-04 0.274E-03 0.240E-04
   -.210E+01 -.338E-01 0.760E+01   0.214E+01 0.124E+00 -.761E+01   -.418E-01 -.926E-01 0.102E-01   0.733E-04 0.733E-03 0.294E-04
   0.216E+01 0.132E+01 0.655E+01   -.234E+01 -.120E+01 -.657E+01   0.200E+00 -.116E+00 0.174E-01   0.114E-03 0.211E-03 0.260E-04
   0.397E+01 -.565E+00 0.696E+01   -.424E+01 0.645E+00 -.697E+01   0.270E+00 -.894E-01 0.331E-02   -.950E-04 0.712E-03 0.335E-04
   0.525E+01 0.425E+01 0.783E+01   -.590E+01 -.471E+01 -.785E+01   0.658E+00 0.472E+00 0.232E-01   0.816E-04 -.223E-03 0.309E-04
   0.121E+02 -.170E+01 0.790E+01   -.135E+02 0.135E+01 -.794E+01   0.147E+01 0.354E+00 0.385E-01   -.177E-03 0.213E-03 0.314E-04
   -.227E+01 0.260E+02 0.706E+01   0.227E+01 -.324E+02 -.698E+01   0.112E-02 0.637E+01 -.760E-01   0.109E-03 -.664E-03 0.321E-04
   0.214E+00 0.161E+00 0.911E+01   -.300E+00 -.241E+00 -.924E+01   0.775E-01 0.757E-01 0.132E+00   -.973E-04 -.297E-03 0.334E-04
   -.536E+01 0.337E+01 0.710E+01   0.603E+01 -.389E+01 -.709E+01   -.674E+00 0.530E+00 -.327E-02   -.245E-04 -.749E-03 0.302E-04
   -.111E+02 -.163E+01 0.670E+01   0.125E+02 0.109E+01 -.673E+01   -.138E+01 0.537E+00 0.247E-01   0.115E-03 -.295E-03 0.234E-04
   -.198E+01 0.468E+01 0.678E+01   0.255E+01 -.443E+01 -.679E+01   -.555E+00 -.254E+00 0.215E-02   0.223E-03 0.130E-03 0.254E-04
   -.248E+01 0.929E+00 0.635E+01   0.281E+01 -.816E+00 -.637E+01   -.325E+00 -.111E+00 0.165E-01   0.557E-03 0.329E-03 0.318E-04
   0.129E+01 0.515E+01 0.876E+01   -.113E+01 -.498E+01 -.878E+01   -.167E+00 -.184E+00 0.248E-01   0.423E-03 0.760E-03 0.247E-04
   -.278E+01 0.673E+01 0.101E+02   0.336E+01 -.647E+01 -.102E+02   -.581E+00 -.262E+00 0.920E-01   0.106E-02 0.146E-02 0.114E-03
   0.660E+00 0.675E+01 0.738E+01   -.775E+00 -.632E+01 -.741E+01   0.104E+00 -.453E+00 0.281E-01   -.737E-04 0.121E-02 0.670E-04
   0.625E+00 0.641E+01 0.574E+01   -.682E+00 -.571E+01 -.534E+01   0.693E-01 -.704E+00 -.399E+00   -.634E-05 0.274E-02 0.287E-03
   0.179E+01 0.496E+01 0.848E+01   -.243E+01 -.452E+01 -.849E+01   0.635E+00 -.465E+00 0.147E-01   -.387E-03 0.848E-03 0.280E-04
   0.582E+01 0.504E+01 0.970E+01   -.661E+01 -.463E+01 -.978E+01   0.793E+00 -.418E+00 0.688E-01   -.105E-02 0.149E-02 0.115E-03
   0.218E+02 -.915E+01 0.748E+01   -.271E+02 0.123E+02 -.747E+01   0.536E+01 -.314E+01 -.171E-01   -.151E-03 0.865E-04 0.257E-04
   0.534E+01 -.586E+01 0.772E+01   -.573E+01 0.721E+01 -.773E+01   0.381E+00 -.135E+01 0.152E-01   -.518E-03 0.341E-03 0.286E-04
   -.234E+02 -.114E+02 0.598E+01   0.288E+02 0.144E+02 -.596E+01   -.543E+01 -.304E+01 -.177E-01   -.526E-04 -.188E-03 0.322E-04
   -.689E+01 -.620E+01 0.597E+01   0.722E+01 0.755E+01 -.599E+01   -.327E+00 -.136E+01 0.177E-01   -.215E-04 0.777E-04 0.368E-04
   0.451E+00 -.545E+00 0.511E+01   0.181E+00 0.876E+00 -.509E+01   -.618E+00 -.308E+00 -.292E-01   0.420E-03 0.199E-03 0.338E-04
   0.181E+01 0.326E+01 0.546E+01   -.167E+01 -.306E+01 -.550E+01   -.152E+00 -.193E+00 0.250E-01   0.505E-03 0.159E-03 0.277E-04
   0.349E+01 0.959E+01 0.702E+01   -.310E+01 -.953E+01 -.699E+01   -.408E+00 -.574E-01 -.325E-01   0.116E-02 0.887E-03 0.900E-04
   0.107E+02 0.569E+01 0.587E+01   -.104E+02 -.553E+01 -.598E+01   -.290E+00 -.156E+00 0.115E+00   0.208E-02 0.789E-03 0.224E-03
   -.137E+01 0.180E+02 0.122E+02   0.163E+01 -.170E+02 -.124E+02   -.279E+00 -.999E+00 0.228E+00   0.129E-02 0.341E-02 0.566E-03
   -.841E+01 0.346E+02 0.258E+02   0.146E+02 -.310E+02 -.249E+02   -.625E+01 -.357E+01 -.838E+00   0.517E-02 0.602E-02 0.262E-02
   0.224E+01 0.175E+02 0.109E+02   -.265E+01 -.164E+02 -.111E+02   0.440E+00 -.110E+01 0.208E+00   -.127E-02 0.335E-02 0.537E-03
   0.871E+01 0.334E+02 0.229E+02   -.150E+02 -.297E+02 -.219E+02   0.636E+01 -.369E+01 -.925E+00   -.518E-02 0.598E-02 0.252E-02
   -.314E+01 0.642E+01 0.788E+01   0.236E+01 -.608E+01 -.783E+01   0.796E+00 -.311E+00 -.533E-01   -.125E-02 0.908E-03 0.892E-04
   -.982E+01 0.533E+01 0.756E+01   0.946E+01 -.502E+01 -.770E+01   0.364E+00 -.310E+00 0.133E+00   -.204E-02 0.806E-03 0.224E-03
   -.145E+01 -.563E+01 0.664E+01   0.139E+01 0.645E+01 -.662E+01   0.528E-01 -.814E+00 -.171E-01   -.370E-03 0.290E-03 0.325E-04
   -.329E+01 0.432E+00 0.743E+01   0.324E+01 0.728E-01 -.746E+01   0.478E-01 -.504E+00 0.368E-01   -.504E-03 0.177E-03 0.295E-04
   -.461E+00 -.190E+01 0.630E+01   0.561E+00 0.207E+01 -.632E+01   -.975E-01 -.176E+00 0.108E-01   -.861E-04 0.545E-04 0.298E-04
   -.153E+00 -.128E+01 0.627E+01   0.176E+00 0.137E+01 -.629E+01   -.249E-01 -.103E+00 0.161E-01   -.357E-04 -.468E-04 0.305E-04
   0.493E+01 -.780E+00 0.400E+01   -.476E+01 0.848E+00 -.397E+01   -.153E+00 -.539E-01 -.371E-01   0.120E-02 0.234E-03 0.663E-04
   0.431E+01 0.147E+00 0.398E+01   -.425E+01 -.145E+00 -.395E+01   -.604E-01 -.106E-01 -.367E-01   0.120E-02 -.171E-03 0.685E-04
   0.255E+02 0.819E+01 0.136E+02   -.246E+02 -.867E+01 -.142E+02   -.891E+00 0.493E+00 0.553E+00   0.476E-02 0.135E-02 0.114E-02
   0.256E+02 -.731E+01 0.140E+02   -.247E+02 0.772E+01 -.146E+02   -.864E+00 -.405E+00 0.551E+00   0.474E-02 -.140E-02 0.112E-02
   -.245E+02 0.724E+01 0.134E+02   0.235E+02 -.761E+01 -.139E+02   0.963E+00 0.389E+00 0.497E+00   -.466E-02 0.146E-02 0.109E-02
   -.238E+02 -.779E+01 0.135E+02   0.230E+02 0.825E+01 -.140E+02   0.867E+00 -.467E+00 0.521E+00   -.470E-02 -.132E-02 0.110E-02
   -.454E+01 -.161E+01 0.663E+01   0.437E+01 0.178E+01 -.659E+01   0.183E+00 -.166E+00 -.302E-01   -.114E-02 0.170E-03 0.704E-04
   -.480E+01 -.151E+01 0.662E+01   0.469E+01 0.161E+01 -.659E+01   0.118E+00 -.115E+00 -.256E-01   -.119E-02 -.147E-03 0.698E-04
   -.335E+01 -.521E+01 0.738E+01   0.330E+01 0.525E+01 -.742E+01   0.544E-01 -.390E-01 0.390E-01   -.519E-03 -.747E-04 0.285E-04
   -.161E+01 -.283E+01 0.658E+01   0.154E+01 0.286E+01 -.657E+01   0.599E-01 -.381E-01 -.168E-01   -.387E-03 -.207E-03 0.318E-04
   0.401E+01 -.457E+01 0.545E+01   -.393E+01 0.456E+01 -.548E+01   -.705E-01 0.758E-02 0.272E-01   0.529E-03 -.163E-03 0.312E-04
   0.268E+01 -.265E+01 0.516E+01   -.268E+01 0.261E+01 -.515E+01   0.166E-01 0.450E-01 -.215E-01   0.351E-03 -.210E-03 0.357E-04
   0.122E+02 -.588E+01 0.624E+01   -.120E+02 0.567E+01 -.637E+01   -.226E+00 0.204E+00 0.124E+00   0.200E-02 -.822E-03 0.226E-03
   0.416E+01 -.792E+01 0.700E+01   -.408E+01 0.779E+01 -.697E+01   -.100E+00 0.128E+00 -.332E-01   0.116E-02 -.936E-03 0.896E-04
   -.793E+01 -.338E+02 0.256E+02   0.142E+02 0.300E+02 -.247E+02   -.630E+01 0.378E+01 -.887E+00   0.520E-02 -.604E-02 0.256E-02
   -.128E+01 -.133E+02 0.121E+02   0.154E+01 0.120E+02 -.124E+02   -.275E+00 0.131E+01 0.220E+00   0.130E-02 -.338E-02 0.544E-03
   0.677E+01 -.337E+02 0.227E+02   -.130E+02 0.300E+02 -.217E+02   0.624E+01 0.370E+01 -.971E+00   -.514E-02 -.605E-02 0.255E-02
   0.144E+01 -.160E+02 0.111E+02   -.155E+01 0.149E+02 -.114E+02   0.123E+00 0.118E+01 0.235E+00   -.123E-02 -.342E-02 0.536E-03
   -.121E+02 -.673E+01 0.771E+01   0.118E+02 0.662E+01 -.785E+01   0.291E+00 0.109E+00 0.133E+00   -.212E-02 -.774E-03 0.220E-03
   -.506E+01 -.948E+01 0.793E+01   0.489E+01 0.945E+01 -.789E+01   0.167E+00 0.300E-01 -.381E-01   -.118E-02 -.918E-03 0.882E-04
   -.206E+01 -.280E+01 0.792E+01   0.202E+01 0.282E+01 -.794E+01   0.325E-01 -.294E-01 0.299E-01   -.504E-03 -.377E-03 0.284E-04
   -.234E+01 -.355E+01 0.771E+01   0.246E+01 0.358E+01 -.772E+01   -.127E+00 -.332E-01 0.642E-02   -.201E-03 -.143E-03 0.235E-04
   0.357E+00 -.191E+01 0.606E+01   -.390E+00 0.194E+01 -.609E+01   0.370E-01 -.301E-01 0.247E-01   -.916E-04 -.835E-04 0.372E-04
   0.497E+00 -.183E+01 0.597E+01   -.602E+00 0.188E+01 -.595E+01   0.119E+00 -.485E-01 -.159E-01   -.246E-04 0.118E-03 0.329E-04
   0.336E+01 -.209E+01 0.643E+01   -.339E+01 0.196E+01 -.645E+01   0.466E-01 0.135E+00 0.199E-01   0.509E-03 -.286E-03 0.322E-04
   0.530E+01 -.165E+01 0.680E+01   -.577E+01 0.145E+01 -.681E+01   0.463E+00 0.191E+00 0.518E-02   0.164E-03 -.116E-03 0.272E-04
   0.969E+00 -.414E+01 0.101E+02   -.472E+00 0.322E+01 -.101E+02   -.515E+00 0.915E+00 0.714E-01   0.108E-02 -.152E-02 0.110E-03
   0.668E+01 0.551E+01 0.867E+01   -.765E+01 -.662E+01 -.868E+01   0.957E+00 0.113E+01 0.204E-01   0.382E-03 -.795E-03 0.222E-04
   -.288E+01 -.382E+01 0.594E+01   0.290E+01 0.248E+01 -.551E+01   -.130E-01 0.134E+01 -.429E+00   0.180E-05 -.276E-02 0.277E-03
   -.401E+01 0.371E+01 0.686E+01   0.506E+01 -.508E+01 -.685E+01   -.105E+01 0.140E+01 -.419E-02   0.449E-04 -.122E-02 0.660E-04
   0.264E-01 -.590E+01 0.984E+01   -.448E+00 0.548E+01 -.992E+01   0.418E+00 0.425E+00 0.723E-01   -.101E-02 -.146E-02 0.114E-03
   -.563E+01 -.258E+01 0.844E+01   0.600E+01 0.219E+01 -.846E+01   -.358E+00 0.405E+00 0.176E-01   -.345E-03 -.815E-03 0.285E-04
   -.111E+01 0.222E+01 -.626E+03   0.127E+01 -.212E+01 0.608E+03   -.175E+00 -.874E-01 0.180E+02   0.386E-04 0.978E-04 -.182E-02
 -----------------------------------------------------------------------------------------------
   -.269E-01 0.350E+00 -.176E+02   0.274E-12 0.102E-11 0.000E+00   0.296E-01 -.349E+00 0.175E+02   0.503E-04 -.487E-04 0.189E-01
 
 
 POSITION                                       TOTAL-FORCE (eV/Angst)
 -----------------------------------------------------------------------------------
      0.00088      0.00004      7.46449        -0.019575      0.006247     -0.000055
     -0.00491      1.42113      7.46588         0.005964     -0.022663     -0.001432
      2.48079      0.02665      7.46312        -0.008634      0.012360     -0.000861
      2.47905      1.44717      7.47370         0.001079     -0.000310      0.000920
      4.95289      0.02772      7.46615         0.013692     -0.001237     -0.004731
      4.95959      1.44682      7.47569        -0.003909     -0.007876     -0.002451
     -0.00049     12.75288      7.46559         0.008299      0.015688     -0.000946
      7.44361      1.41628      7.46471         0.009148     -0.003726     -0.000720
      2.47854     12.74120      7.47470         0.004010      0.007715      0.007181
      9.91003      1.39338      7.46356        -0.007967     -0.005528      0.003812
      4.95444     12.72636      7.47551        -0.003760      0.005424     -0.000662
     12.36691      1.38926      7.46589        -0.003995      0.000126     -0.004594
     13.60499      2.11241      7.46735         0.015761     -0.002671     -0.004114
     -1.25102      3.52833      7.47744         0.001490      0.000046     -0.002018
      1.23573      2.14451      7.47541        -0.000395     -0.013073      0.002988
      1.23512      3.56767      7.50098        -0.002239     -0.007774     -0.000544
      3.71911      2.17188      7.49103        -0.011326     -0.020850     -0.002590
      3.71719      3.59006      7.53823         0.012491      0.002215     -0.005599
      6.20443      2.14485      7.47590        -0.016106     -0.019240     -0.000968
      6.19989      3.56628      7.50080         0.001136     -0.003951     -0.002542
      8.68813      2.10494      7.46378         0.002898      0.002380      0.002574
      8.69005      3.52028      7.47095        -0.011070     -0.004129      0.005448
     11.13291      2.09618      7.46443        -0.002455      0.005269     -0.001887
     11.13540      3.51591      7.46651         0.002775     -0.012606     -0.004415
     12.37300      4.22869      7.47496         0.014196      0.023936     -0.004777
     -2.48936      5.65649      7.48170        -0.007665      0.011278     -0.005713
     -0.01632      4.24590      7.49999        -0.023369     -0.010192      0.002936
     -0.04166      5.66150      7.52575         0.005411      0.000048      0.001548
      2.47296      4.30977      7.55105        -0.004269     -0.014891      0.005608
      2.42510      5.72222      7.64090         0.006630     -0.010280      0.004353
      4.96192      4.30973      7.55406         0.011752     -0.012286      0.005774
      5.00821      5.72171      7.64646         0.016211     -0.020124      0.008886
      7.45120      4.23726      7.49461         0.012569      0.019619      0.005507
      7.47557      5.65675      7.51777        -0.001545      0.003120     -0.001222
      9.91426      4.23969      7.46873        -0.005117      0.003131      0.001142
      9.92023      5.65979      7.47380        -0.000192     -0.000766      0.001040
     -3.71157      6.37466      7.47416         0.002278     -0.002695     -0.005717
     -3.71216      7.79668      7.47420        -0.001461     -0.016056     -0.003990
     -1.26925      6.37313      7.50460         0.014160      0.012233     -0.001981
     -1.26728      7.79836      7.50451         0.000020     -0.007966     -0.004590
      1.17922      6.36901      7.57898        -0.007517      0.006672      0.006072
      1.18020      7.80634      7.57831         0.006710      0.009563      0.006877
      6.25600      6.36631      7.57745        -0.020229      0.011889      0.002124
      6.25399      7.80462      7.57743        -0.012975     -0.002219      0.001339
      8.69936      6.37444      7.49326         0.007400     -0.000598      0.003508
      8.69964      7.79614      7.49322         0.008439     -0.017740      0.003676
     -4.93809      8.51108      7.47385         0.003068     -0.002509      0.001884
     -4.94415      9.93659      7.46863        -0.007249     -0.007659     -0.001102
     -2.48595      8.51197      7.48171         0.012833     -0.007216     -0.006061
     -2.47931      9.93642      7.47478         0.014648      0.007116     -0.005903
     -0.03906      8.51436      7.52492         0.015166     -0.007909     -0.001967
     -0.01188      9.93265      7.49982        -0.015296      0.004810      0.000065
      2.42650      8.45329      7.64182         0.013302      0.027187      0.012599
      2.47249      9.86812      7.55092        -0.002968      0.018195      0.008947
      5.00482      8.45393      7.64768        -0.003473     -0.006500      0.002428
      4.95726      9.86768      7.55358        -0.000899      0.002352      0.004500
      7.47161      8.51086      7.51764        -0.023552     -0.001731      0.000321
      7.44616      9.92765      7.49449         0.003489      0.008490      0.002023
     -6.17884     10.64490      7.47045        -0.014759     -0.006861      0.002647
     -6.18368     12.06454      7.46295        -0.010501     -0.001704     -0.001229
     -3.71215     10.65018      7.46620         0.004510     -0.002305     -0.003777
     -3.71246     12.07225      7.46427         0.013607      0.004687     -0.003228
     -1.24546     10.64349      7.47726         0.015060      0.005988     -0.002487
     -1.24073     12.06465      7.46727        -0.003114     -0.003413     -0.005869
      1.24317     10.61423      7.50110        -0.015646     -0.007596     -0.000384
      1.24257     12.04269      7.47558        -0.000118      0.022869      0.003636
      3.70953     10.59184      7.53765         0.017684     -0.014601     -0.001933
      3.71308     12.01515      7.49173        -0.015440      0.023724      0.000134
      6.19405     10.60560      7.50059        -0.007476      0.006170     -0.005119
      6.19157     12.03088      7.47585         0.003808      0.015571     -0.003123
      3.71302      7.08855      8.32146        -0.005432      0.005333     -0.011194
 -----------------------------------------------------------------------------------
    total drift:                                0.002716      0.001050     -0.002558


--------------------------------------------------------------------------------------------------------



  FREE ENERGIE OF THE ION-ELECTRON SYSTEM (eV)
  ---------------------------------------------------
  free  energy   TOTEN  =      -653.51404035 eV

  energy  without entropy=     -653.48602508  energy(sigma->0) =     -653.50003272
 


--------------------------------------------------------------------------------------------------------


    POTLOK:  cpu time    0.4151: real time    0.4167


--------------------------------------------------------------------------------------------------------


 stress matrix after NEB project (eV)
     -1.66003     -0.03333     -0.00220
     -0.03333     -1.57436      0.00176
     -0.00220      0.00176     -3.53242
  FORCES: max atom, RMS     0.032785    0.015868
  FORCE total and by dimension    0.133705    0.027187
  Stress total and by dimension    4.208862    3.532416


--------------------------------------------------------------------------------------------------------


  
 reached required accuracy - stopping structural energy minimisation
     LOOP+:  cpu time  473.9552: real time  478.3211
    4ORBIT:  cpu time    0.0000: real time    0.0000

 total amount of memory used by VASP MPI-rank0   111622. kBytes
=======================================================================

   base      :      30000. kBytes
   nonlr-proj:       9913. kBytes
   fftplans  :      10852. kBytes
   grid      :      30996. kBytes
   one-center:        186. kBytes
   wavefun   :      29675. kBytes
 
  
  
 General timing and accounting informations for this job:
 ========================================================
  
                  Total CPU time used (sec):      483.188
                            User time (sec):      476.167
                          System time (sec):        7.021
                         Elapsed time (sec):      493.336
  
                   Maximum memory used (kb):      484768.
                   Average memory used (kb):           0.
  
                          Minor page faults:      1155879
                          Major page faults:            0
                 Voluntary context switches:        10238
