       N       E                     dE             d eps       ncg     rms          rms(c)
DAV:   1     0.254502467180E+04    0.25450E+04   -0.11183E+05  4360   0.106E+03
DAV:   2    -0.237426033803E+03   -0.27825E+04   -0.26548E+04  5456   0.280E+02
DAV:   3    -0.699814157545E+03   -0.46239E+03   -0.45823E+03  4576   0.121E+02
DAV:   4    -0.716631463194E+03   -0.16817E+02   -0.16675E+02  4648   0.283E+01
DAV:   5    -0.717183668823E+03   -0.55221E+00   -0.55026E+00  5264   0.429E+00    0.480E+01
DAV:   6    -0.711126725500E+03    0.60569E+01   -0.70429E+01  4768   0.302E+01    0.720E+01
DAV:   7    -0.675386384007E+03    0.35740E+02   -0.76425E+01  5296   0.594E+01    0.254E+01
DAV:   8    -0.668555020565E+03    0.68314E+01   -0.30538E+01  4776   0.126E+01    0.224E+01
DAV:   9    -0.664784604453E+03    0.37704E+01   -0.21893E+01  4656   0.139E+01    0.151E+01
DAV:  10    -0.663443909158E+03    0.13407E+01   -0.82325E+00  5304   0.109E+01    0.758E+00
DAV:  11    -0.663395524317E+03    0.48385E-01   -0.11002E+00  4856   0.296E+00    0.541E+00
DAV:  12    -0.663253637277E+03    0.14189E+00   -0.48887E-01  4664   0.250E+00    0.282E+00
DAV:  13    -0.663269702913E+03   -0.16066E-01   -0.19566E-01  4776   0.120E+00    0.210E+00
DAV:  14    -0.663273859996E+03   -0.41571E-02   -0.39697E-02  4384   0.467E-01    0.172E+00
DAV:  15    -0.663272474240E+03    0.13858E-02   -0.58744E-03  4896   0.209E-01    0.127E+00
DAV:  16    -0.663270827662E+03    0.16466E-02   -0.47700E-03  4888   0.159E-01    0.902E-01
DAV:  17    -0.663270772323E+03    0.55339E-04   -0.14743E-03  4616   0.852E-02    0.697E-01
DAV:  18    -0.663270668055E+03    0.10427E-03   -0.15460E-04  3040   0.406E-02    0.513E-01
DAV:  19    -0.663270559100E+03    0.10895E-03   -0.12804E-04  2696   0.278E-02    0.377E-01
DAV:  20    -0.663270487341E+03    0.71760E-04   -0.52432E-05  2520   0.220E-02
   1 F= -.66984468E+03 E0= -.66984468E+03  d E =0.000000E+00  mag=     1.0007
