 vasp.5.4.4.18Apr17-6-g9f103f2a35 (build Jan 14 2022 15:04:31) complex          
  
 executed on             LinuxIFC date 2023.01.27  22:53:27
 running on   48 total cores
 distrk:  each k-point on   48 cores,    1 groups
 distr:  one band on NCORES_PER_BAND=  12 cores,    4 groups


--------------------------------------------------------------------------------------------------------


 INCAR:
 POTCAR:    PAW_PBE C 08Apr2002                   
 POTCAR:    PAW_PBE N 08Apr2002                   
 POTCAR:    PAW_PBE C 08Apr2002                   
 POTCAR:    PAW_PBE Cr_pv 02Aug2007               
 POTCAR:    PAW_PBE C 08Apr2002                   
 POTCAR:    PAW_PBE O 08Apr2002                   
 POTCAR:    PAW_PBE C 08Apr2002                   
   SHA256 =  253f7b50bb8d59471dbedb8285d89021f4a42ed1a2c5d38a03a736e69125dd95 C/
   COPYR  = (c) Copyright 08Apr2002 Georg Kresse                                
   COPYR  = This file is part of the software VASP. Any use, copying, and all ot
   COPYR  = If you do not have a valid VASP license, you may not use, copy or di
   VRHFIN =C: s2p2                                                              
   LEXCH  = PE                                                                  
   EATOM  =   147.1560 eV,   10.8157 Ry                                         
                                                                                
   TITEL  = PAW_PBE C 08Apr2002                                                 
   LULTRA =        F    use ultrasoft PP ?                                      
   IUNSCR =        1    unscreen: 0-lin 1-nonlin 2-no                           
   RPACOR =    1.200    partial core radius                                     
   POMASS =   12.011; ZVAL   =    4.000    mass and valenz                      
   RCORE  =    1.500    outmost cutoff radius                                   
   RWIGS  =    1.630; RWIGS  =    0.863    wigner-seitz radius (au A)           
   ENMAX  =  400.000; ENMIN  =  300.000 eV                                      
   ICORE  =        2    local potential                                         
   LCOR   =        T    correct aug charges                                     
   LPAW   =        T    paw PP                                                  
   EAUG   =  644.873                                                            
   DEXC   =    0.000                                                            
   RMAX   =    1.529    core radius for proj-oper                               
   RAUG   =    1.300    factor for augmentation sphere                          
   RDEP   =    1.501    radius for radial grids                                 
   RDEPT  =    1.300    core radius for aug-charge                              
                                                                                
   Atomic configuration                                                         
    4 entries                                                                   
     n  l   j            E        occ.                                          
     1  0  0.50      -273.3789   2.0000                                         
     2  0  0.50       -13.7508   2.0000                                         
     2  1  0.50        -5.2854   2.0000                                         
     3  2  1.50        -5.4423   0.0000                                         
   Description                                                                  
     l       E           TYP  RCUT    TYP  RCUT                                 
     0    -13.7508458     23  1.200                                             
     0     -8.2022199     23  1.200                                             
     1     -5.2854383     23  1.500                                             
     1     34.0145650     23  1.500                                             
     2     -5.4423304      7  1.500                                             
  local pseudopotential read in
  partial core-charges read in
  partial kinetic energy density read in
  atomic valenz-charges read in
  non local Contribution for L=           0  read in
    real space projection operators read in
  non local Contribution for L=           0  read in
    real space projection operators read in
  non local Contribution for L=           1  read in
    real space projection operators read in
  non local Contribution for L=           1  read in
    real space projection operators read in
    PAW grid and wavefunctions read in
 
   number of l-projection  operators is LMAX  =           4
   number of lm-projection operators is LMMAX =           8
 
 POTCAR:    PAW_PBE N 08Apr2002                   
   SHA256 =  e053789ff3a61a86a1b75d8a110fcc91f86041011e7b0817c7c99e4e8a6349d7 N/
   COPYR  = (c) Copyright 08Apr2002 Georg Kresse                                
   COPYR  = This file is part of the software VASP. Any use, copying, and all ot
   COPYR  = If you do not have a valid VASP license, you may not use, copy or di
   VRHFIN =N: s2p3                                                              
   LEXCH  = PE                                                                  
   EATOM  =   264.5486 eV,   19.4438 Ry                                         
                                                                                
   TITEL  = PAW_PBE N 08Apr2002                                                 
   LULTRA =        F    use ultrasoft PP ?                                      
   IUNSCR =        1    unscreen: 0-lin 1-nonlin 2-no                           
   RPACOR =    1.200    partial core radius                                     
   POMASS =   14.001; ZVAL   =    5.000    mass and valenz                      
   RCORE  =    1.500    outmost cutoff radius                                   
   RWIGS  =    1.400; RWIGS  =    0.741    wigner-seitz radius (au A)           
   ENMAX  =  400.000; ENMIN  =  300.000 eV                                      
   ICORE  =        2    local potential                                         
   LCOR   =        T    correct aug charges                                     
   LPAW   =        T    paw PP                                                  
   EAUG   =  627.112                                                            
   DEXC   =    0.000                                                            
   RMAX   =    1.529    core radius for proj-oper                               
   RAUG   =    1.300    factor for augmentation sphere                          
   RDEP   =    1.514    radius for radial grids                                 
   RDEPT  =    1.338    core radius for aug-charge                              
                                                                                
   Atomic configuration                                                         
    4 entries                                                                   
     n  l   j            E        occ.                                          
     1  0  0.50      -384.7179   2.0000                                         
     2  0  0.50       -18.5828   2.0000                                         
     2  1  0.50        -7.0898   3.0000                                         
     3  2  1.50        -6.8029   0.0000                                         
   Description                                                                  
     l       E           TYP  RCUT    TYP  RCUT                                 
     0    -18.5828119     23  1.200                                             
     0    -13.5018863     23  1.200                                             
     1     -7.0897853     23  1.500                                             
     1      9.5240782     23  1.500                                             
     2     -6.8029130      7  1.500                                             
  local pseudopotential read in
  partial core-charges read in
  partial kinetic energy density read in
  atomic valenz-charges read in
  non local Contribution for L=           0  read in
    real space projection operators read in
  non local Contribution for L=           0  read in
    real space projection operators read in
  non local Contribution for L=           1  read in
    real space projection operators read in
  non local Contribution for L=           1  read in
    real space projection operators read in
    PAW grid and wavefunctions read in
 
   number of l-projection  operators is LMAX  =           4
   number of lm-projection operators is LMMAX =           8
 
 POTCAR:    PAW_PBE C 08Apr2002                   
   SHA256 =  253f7b50bb8d59471dbedb8285d89021f4a42ed1a2c5d38a03a736e69125dd95 C/
   COPYR  = (c) Copyright 08Apr2002 Georg Kresse                                
   COPYR  = This file is part of the software VASP. Any use, copying, and all ot
   COPYR  = If you do not have a valid VASP license, you may not use, copy or di
   VRHFIN =C: s2p2                                                              
   LEXCH  = PE                                                                  
   EATOM  =   147.1560 eV,   10.8157 Ry                                         
                                                                                
   TITEL  = PAW_PBE C 08Apr2002                                                 
   LULTRA =        F    use ultrasoft PP ?                                      
   IUNSCR =        1    unscreen: 0-lin 1-nonlin 2-no                           
   RPACOR =    1.200    partial core radius                                     
   POMASS =   12.011; ZVAL   =    4.000    mass and valenz                      
   RCORE  =    1.500    outmost cutoff radius                                   
   RWIGS  =    1.630; RWIGS  =    0.863    wigner-seitz radius (au A)           
   ENMAX  =  400.000; ENMIN  =  300.000 eV                                      
   ICORE  =        2    local potential                                         
   LCOR   =        T    correct aug charges                                     
   LPAW   =        T    paw PP                                                  
   EAUG   =  644.873                                                            
   DEXC   =    0.000                                                            
   RMAX   =    1.529    core radius for proj-oper                               
   RAUG   =    1.300    factor for augmentation sphere                          
   RDEP   =    1.501    radius for radial grids                                 
   RDEPT  =    1.300    core radius for aug-charge                              
                                                                                
   Atomic configuration                                                         
    4 entries                                                                   
     n  l   j            E        occ.                                          
     1  0  0.50      -273.3789   2.0000                                         
     2  0  0.50       -13.7508   2.0000                                         
     2  1  0.50        -5.2854   2.0000                                         
     3  2  1.50        -5.4423   0.0000                                         
   Description                                                                  
     l       E           TYP  RCUT    TYP  RCUT                                 
     0    -13.7508458     23  1.200                                             
     0     -8.2022199     23  1.200                                             
     1     -5.2854383     23  1.500                                             
     1     34.0145650     23  1.500                                             
     2     -5.4423304      7  1.500                                             
  local pseudopotential read in
  partial core-charges read in
  partial kinetic energy density read in
  atomic valenz-charges read in
  non local Contribution for L=           0  read in
    real space projection operators read in
  non local Contribution for L=           0  read in
    real space projection operators read in
  non local Contribution for L=           1  read in
    real space projection operators read in
  non local Contribution for L=           1  read in
    real space projection operators read in
    PAW grid and wavefunctions read in
 
   number of l-projection  operators is LMAX  =           4
   number of lm-projection operators is LMMAX =           8
 
 POTCAR:    PAW_PBE Cr_pv 02Aug2007               
   SHA256 =  c9a7df34d3cdbacf1090e328ef39c0b420964e11c23f63548d1ac9dd218cdba0 Cr
   COPYR  = (c) Copyright 02Aug2007 Georg Kresse                                
   COPYR  = This file is part of the software VASP. Any use, copying, and all ot
   COPYR  = If you do not have a valid VASP license, you may not use, copy or di
   VRHFIN =Cr : p6d5s1                                                          
   LEXCH  = PE                                                                  
   EATOM  =  1647.9177 eV,  121.1185 Ry                                         
                                                                                
   TITEL  = PAW_PBE Cr_pv 02Aug2007                                             
   LULTRA =        F    use ultrasoft PP ?                                      
   IUNSCR =        1    unscreen: 0-lin 1-nonlin 2-no                           
   RPACOR =    2.080    partial core radius                                     
   POMASS =   51.996; ZVAL   =   12.000    mass and valenz                      
   RCORE  =    2.300    outmost cutoff radius                                   
   RWIGS  =    2.500; RWIGS  =    1.323    wigner-seitz radius (au A)           
   ENMAX  =  265.681; ENMIN  =  199.261 eV                                      
   ICORE  =        3    local potential                                         
   LCOR   =        T    correct aug charges                                     
   LPAW   =        T    paw PP                                                  
   EAUG   =  519.424                                                            
   DEXC   =    0.000                                                            
   RMAX   =    2.356    core radius for proj-oper                               
   RAUG   =    1.300    factor for augmentation sphere                          
   RDEP   =    2.447    radius for radial grids                                 
   RDEPT  =    1.882    core radius for aug-charge                              
                                                                                
   Atomic configuration                                                         
    8 entries                                                                   
     n  l   j            E        occ.                                          
     1  0  0.50     -5880.4963   2.0000                                         
     2  0  0.50      -667.0865   2.0000                                         
     2  1  1.50      -560.6250   6.0000                                         
     3  0  0.50       -73.9860   2.0000                                         
     3  1  1.50       -45.4378   6.0000                                         
     3  2  2.50        -2.9137   5.0000                                         
     4  0  0.50        -4.0071   1.0000                                         
     4  3  2.50        -1.3606   0.0000                                         
   Description                                                                  
     l       E           TYP  RCUT    TYP  RCUT                                 
     1    -45.4377911     23  2.000                                             
     1      1.3605826     23  2.000                                             
     2     -2.9136672     23  2.300                                             
     2     -4.2742498     23  2.300                                             
     0     -4.0071320     23  2.300                                             
     0      9.4498803     23  2.300                                             
     3      2.7211652     23  2.300                                             
  local pseudopotential read in
  partial core-charges read in
  partial kinetic energy density read in
  atomic valenz-charges read in
  non local Contribution for L=           1  read in
    real space projection operators read in
  non local Contribution for L=           1  read in
    real space projection operators read in
  non local Contribution for L=           2  read in
    real space projection operators read in
  non local Contribution for L=           2  read in
    real space projection operators read in
  non local Contribution for L=           0  read in
    real space projection operators read in
  non local Contribution for L=           0  read in
    real space projection operators read in
    PAW grid and wavefunctions read in
 
   number of l-projection  operators is LMAX  =           6
   number of lm-projection operators is LMMAX =          18
 
 POTCAR:    PAW_PBE C 08Apr2002                   
   SHA256 =  253f7b50bb8d59471dbedb8285d89021f4a42ed1a2c5d38a03a736e69125dd95 C/
   COPYR  = (c) Copyright 08Apr2002 Georg Kresse                                
   COPYR  = This file is part of the software VASP. Any use, copying, and all ot
   COPYR  = If you do not have a valid VASP license, you may not use, copy or di
   VRHFIN =C: s2p2                                                              
   LEXCH  = PE                                                                  
   EATOM  =   147.1560 eV,   10.8157 Ry                                         
                                                                                
   TITEL  = PAW_PBE C 08Apr2002                                                 
   LULTRA =        F    use ultrasoft PP ?                                      
   IUNSCR =        1    unscreen: 0-lin 1-nonlin 2-no                           
   RPACOR =    1.200    partial core radius                                     
   POMASS =   12.011; ZVAL   =    4.000    mass and valenz                      
   RCORE  =    1.500    outmost cutoff radius                                   
   RWIGS  =    1.630; RWIGS  =    0.863    wigner-seitz radius (au A)           
   ENMAX  =  400.000; ENMIN  =  300.000 eV                                      
   ICORE  =        2    local potential                                         
   LCOR   =        T    correct aug charges                                     
   LPAW   =        T    paw PP                                                  
   EAUG   =  644.873                                                            
   DEXC   =    0.000                                                            
   RMAX   =    1.529    core radius for proj-oper                               
   RAUG   =    1.300    factor for augmentation sphere                          
   RDEP   =    1.501    radius for radial grids                                 
   RDEPT  =    1.300    core radius for aug-charge                              
                                                                                
   Atomic configuration                                                         
    4 entries                                                                   
     n  l   j            E        occ.                                          
     1  0  0.50      -273.3789   2.0000                                         
     2  0  0.50       -13.7508   2.0000                                         
     2  1  0.50        -5.2854   2.0000                                         
     3  2  1.50        -5.4423   0.0000                                         
   Description                                                                  
     l       E           TYP  RCUT    TYP  RCUT                                 
     0    -13.7508458     23  1.200                                             
     0     -8.2022199     23  1.200                                             
     1     -5.2854383     23  1.500                                             
     1     34.0145650     23  1.500                                             
     2     -5.4423304      7  1.500                                             
  local pseudopotential read in
  partial core-charges read in
  partial kinetic energy density read in
  atomic valenz-charges read in
  non local Contribution for L=           0  read in
    real space projection operators read in
  non local Contribution for L=           0  read in
    real space projection operators read in
  non local Contribution for L=           1  read in
    real space projection operators read in
  non local Contribution for L=           1  read in
    real space projection operators read in
    PAW grid and wavefunctions read in
 
   number of l-projection  operators is LMAX  =           4
   number of lm-projection operators is LMMAX =           8
 
 POTCAR:    PAW_PBE O 08Apr2002                   
   SHA256 =  818f92134a0a090dccd8ba1447fa70422a3b330e708bb4f08108d8ae51209ddf O/
   COPYR  = (c) Copyright 08Apr2002 Georg Kresse                                
   COPYR  = This file is part of the software VASP. Any use, copying, and all ot
   COPYR  = If you do not have a valid VASP license, you may not use, copy or di
   VRHFIN =O: s2p4                                                              
   LEXCH  = PE                                                                  
   EATOM  =   432.3788 eV,   31.7789 Ry                                         
                                                                                
   TITEL  = PAW_PBE O 08Apr2002                                                 
   LULTRA =        F    use ultrasoft PP ?                                      
   IUNSCR =        1    unscreen: 0-lin 1-nonlin 2-no                           
   RPACOR =    1.200    partial core radius                                     
   POMASS =   16.000; ZVAL   =    6.000    mass and valenz                      
   RCORE  =    1.520    outmost cutoff radius                                   
   RWIGS  =    1.550; RWIGS  =    0.820    wigner-seitz radius (au A)           
   ENMAX  =  400.000; ENMIN  =  300.000 eV                                      
   ICORE  =        2    local potential                                         
   LCOR   =        T    correct aug charges                                     
   LPAW   =        T    paw PP                                                  
   EAUG   =  605.392                                                            
   DEXC   =    0.000                                                            
   RMAX   =    1.553    core radius for proj-oper                               
   RAUG   =    1.300    factor for augmentation sphere                          
   RDEP   =    1.550    radius for radial grids                                 
   RDEPT  =    1.329    core radius for aug-charge                              
                                                                                
   Atomic configuration                                                         
    4 entries                                                                   
     n  l   j            E        occ.                                          
     1  0  0.50      -514.6923   2.0000                                         
     2  0  0.50       -23.9615   2.0000                                         
     2  1  0.50        -9.0305   4.0000                                         
     3  2  1.50        -9.5241   0.0000                                         
   Description                                                                  
     l       E           TYP  RCUT    TYP  RCUT                                 
     0    -23.9615318     23  1.200                                             
     0     -9.5240782     23  1.200                                             
     1     -9.0304911     23  1.520                                             
     1      8.1634956     23  1.520                                             
     2     -9.5240782      7  1.500                                             
  local pseudopotential read in
  partial core-charges read in
  partial kinetic energy density read in
  kinetic energy density of atom read in
  atomic valenz-charges read in
  non local Contribution for L=           0  read in
    real space projection operators read in
  non local Contribution for L=           0  read in
    real space projection operators read in
  non local Contribution for L=           1  read in
    real space projection operators read in
  non local Contribution for L=           1  read in
    real space projection operators read in
    PAW grid and wavefunctions read in
 
   number of l-projection  operators is LMAX  =           4
   number of lm-projection operators is LMMAX =           8
 

 ----------------------------------------------------------------------------- 
|                                                                             |
|  ADVICE TO THIS USER RUNNING 'VASP/VAMP'   (HEAR YOUR MASTER'S VOICE ...):  |
|                                                                             |
|      You have a (more or less) 'large supercell' and for larger cells       |
|      it might be more efficient to use real space projection opertators     |
|      So try LREAL= Auto  in the INCAR   file.                               |
|      Mind:          For very  accurate calculation you might also keep the  |
|      reciprocal projection scheme          (i.e. LREAL=.FALSE.)             |
|                                                                             |
 ----------------------------------------------------------------------------- 

  PAW_PBE C 08Apr2002                   :
 energy of atom  1       EATOM= -147.1560
 kinetic energy error for atom=    0.0132 (will be added to EATOM!!)
  PAW_PBE N 08Apr2002                   :
 energy of atom  2       EATOM= -264.5486
 kinetic energy error for atom=    0.0298 (will be added to EATOM!!)
  PAW_PBE C 08Apr2002                   :
 energy of atom  3       EATOM= -147.1560
 kinetic energy error for atom=    0.0132 (will be added to EATOM!!)
  PAW_PBE Cr_pv 02Aug2007               :
 energy of atom  4       EATOM=-1647.9177
 kinetic energy error for atom=    0.0134 (will be added to EATOM!!)
  PAW_PBE C 08Apr2002                   :
 energy of atom  5       EATOM= -147.1560
 kinetic energy error for atom=    0.0132 (will be added to EATOM!!)
  PAW_PBE O 08Apr2002                   :
 energy of atom  6       EATOM= -432.3788
 kinetic energy error for atom=    0.0458 (will be added to EATOM!!)
 
 
 POSCAR: POSCAR-clean                            
  positions in direct lattice
  velocities in cartesian coordinates
 exchange correlation table for  LEXCH =        8
   RHO(1)=    0.500       N(1)  =     2000
   RHO(2)=  100.500       N(2)  =     4000

 VTST: version 3.2, (02/03/18)

 CHAIN: initializing optimizer
 
 OPT: Using VASP Dynamics algorithm
 CHAIN: Read ICHAIN            0
 
 POSCAR: POSCAR-clean                            
  positions in direct lattice
  velocities in cartesian coordinates
 


--------------------------------------------------------------------------------------------------------


 ion  position               nearest neighbor table
   1  0.999  0.999  0.493-  60 1.41   2 1.42  70 1.43
   2  0.055  0.110  0.492-   1 1.42  15 1.43  13 1.43
   3  0.166  0.001  0.493-   4 1.42  60 1.42  62 1.42
   4  0.222  0.112  0.493-   3 1.42  15 1.42  17 1.44
   5  0.333  0.002  0.493-   6 1.42  62 1.43  64 1.43
   6  0.389  0.113  0.495-   5 1.42  17 1.43  19 1.43
   7  0.500  0.001  0.490-   8 1.42  64 1.43  66 1.43
   8  0.555  0.113  0.492-   7 1.42  21 1.42  19 1.43
   9  0.666  0.999  0.489-  10 1.42  66 1.43  68 1.44
  10  0.721  0.110  0.490-   9 1.42  23 1.42  21 1.43
  11  0.833  0.999  0.492-  12 1.42  70 1.43  68 1.43
  12  0.888  0.110  0.491-  11 1.42  13 1.43  23 1.43
  13  0.999  0.165  0.491-  12 1.43  14 1.43   2 1.43
  14  0.054  0.277  0.491-  27 1.42  13 1.43  25 1.43
  15  0.166  0.168  0.492-  16 1.42   4 1.42   2 1.43
  16  0.222  0.279  0.490-  15 1.42  27 1.43  29 1.44
  17  0.334  0.169  0.495-   6 1.43  18 1.43   4 1.44
  18  0.390  0.281  0.497-  17 1.43  29 1.43  31 1.44
  19  0.500  0.169  0.495-  20 1.43   6 1.43   8 1.43
  20  0.556  0.281  0.499-  33 1.42  19 1.43  31 1.45
  21  0.666  0.167  0.492-  22 1.42   8 1.42  10 1.43
  22  0.722  0.278  0.495-  21 1.42  33 1.42  35 1.43
  23  0.832  0.166  0.491-  24 1.42  10 1.42  12 1.43
  24  0.888  0.277  0.492-  23 1.42  35 1.42  25 1.42
  25  0.999  0.333  0.492-  26 1.42  24 1.42  14 1.43
  26  0.055  0.444  0.492-  39 1.42  25 1.42  37 1.42
  27  0.165  0.333  0.491-  28 1.42  14 1.42  16 1.43
  28  0.220  0.445  0.492-  41 1.42  27 1.42  39 1.42
  29  0.334  0.336  0.491-  30 1.40  18 1.43  16 1.44
  30  0.387  0.446  0.490-  29 1.40  41 1.42  71 1.92
  31  0.502  0.339  0.504-  32 1.43  18 1.44  20 1.45
  32  0.559  0.451  0.514-  43 1.43  31 1.43  71 2.04
  33  0.667  0.334  0.499-  34 1.42  20 1.42  22 1.42
  34  0.724  0.445  0.501-  43 1.41  33 1.42  45 1.42
  35  0.833  0.333  0.494-  36 1.42  24 1.42  22 1.43
  36  0.889  0.445  0.494-  45 1.42  37 1.42  35 1.42
  37  1.000  0.501  0.493-  36 1.42  26 1.42  38 1.42
  38  0.055  0.612  0.492-  49 1.42  37 1.42  47 1.42
  39  0.165  0.500  0.493-  26 1.42  28 1.42  40 1.42
  40  0.221  0.612  0.492-  51 1.42  49 1.42  39 1.42
  41  0.330  0.500  0.488-  28 1.42  30 1.42  42 1.44  71 2.52
  42  0.387  0.613  0.486-  53 1.42  51 1.42  41 1.44  71 2.53
  43  0.670  0.500  0.508-  34 1.41  44 1.42  32 1.43
  44  0.726  0.612  0.508-  57 1.41  55 1.42  43 1.42
  45  0.835  0.501  0.497-  36 1.42  46 1.42  34 1.42
  46  0.890  0.612  0.497-  47 1.42  45 1.42  57 1.42
  47  0.000  0.668  0.494-  46 1.42  38 1.42  48 1.43
  48  0.056  0.780  0.493-  61 1.42  59 1.42  47 1.43
  49  0.166  0.668  0.491-  38 1.42  40 1.42  50 1.42
  50  0.222  0.779  0.491-  61 1.42  49 1.42  63 1.43
  51  0.331  0.668  0.490-  52 1.42  42 1.42  40 1.42
  52  0.388  0.779  0.488-  51 1.42  65 1.43  63 1.43
  53  0.497  0.666  0.483-  54 1.41  42 1.42  71 1.94
  54  0.554  0.776  0.486-  53 1.41  67 1.43  65 1.44
  55  0.664  0.661  0.513-  44 1.42  56 1.44  71 2.03
  56  0.719  0.773  0.501-  55 1.44  67 1.44  69 1.44
  57  0.835  0.668  0.501-  44 1.41  46 1.42  58 1.42
  58  0.890  0.779  0.498-  59 1.42  57 1.42  69 1.42
  59  0.001  0.835  0.495-  60 1.40  58 1.42  48 1.42
  60  0.056  0.945  0.493-  59 1.40   1 1.41   3 1.42
  61  0.167  0.835  0.492-  62 1.42  48 1.42  50 1.42
  62  0.222  0.946  0.493-  61 1.42   3 1.42   5 1.43
  63  0.333  0.835  0.490-  64 1.42  52 1.43  50 1.43
  64  0.389  0.946  0.491-  63 1.42   7 1.43   5 1.43
  65  0.499  0.833  0.486-  66 1.42  52 1.43  54 1.44
  66  0.555  0.945  0.488-  65 1.42   9 1.43   7 1.43
  67  0.665  0.831  0.493-  68 1.42  54 1.43  56 1.44
  68  0.721  0.942  0.491-  67 1.42  11 1.43   9 1.44
  69  0.831  0.831  0.498-  58 1.42  70 1.43  56 1.44
  70  0.888  0.943  0.494-  69 1.43   1 1.43  11 1.43
  71  0.513  0.557  0.541-  72 1.91  30 1.92  53 1.94  55 2.03  32 2.04  41 2.52  42 2.53
  72  0.524  0.520  0.661-  73 1.16  71 1.91
  73  0.531  0.501  0.735-  72 1.16
 

IMPORTANT INFORMATION: All symmetrisations will be switched off!
NOSYMM: (Re-)initialisation of all symmetry stuff for point group C_1.

 
 
 KPOINTS: K-Points                                

Automatic generation of k-mesh.
Space group operators:
 irot       det(A)        alpha          n_x          n_y          n_z        tau_x        tau_y        tau_z
    1     1.000000     0.000000     1.000000     0.000000     0.000000     0.000000     0.000000     0.000000
 
 Subroutine IBZKPT returns following result:
 ===========================================
 
 Found      5 irreducible k-points:
 
 Following reciprocal coordinates:
            Coordinates               Weight
  0.000000  0.000000  0.000000      1.000000
  0.333333 -0.000000  0.000000      2.000000
 -0.000000  0.333333  0.000000      2.000000
  0.333333  0.333333  0.000000      2.000000
 -0.333333  0.333333  0.000000      2.000000
 
 Following cartesian coordinates:
            Coordinates               Weight
  0.000000  0.000000  0.000000      1.000000
  0.022436  0.013066  0.000000      2.000000
  0.000002  0.026131  0.000000      2.000000
  0.022438  0.039197  0.000000      2.000000
 -0.022434  0.013066  0.000000      2.000000
 
 TETIRR: Found     24 inequivalent tetrahedra from       54


--------------------------------------------------------------------------------------------------------




 Dimension of arrays:
   k-points           NKPTS =      5   k-points in BZ     NKDIM =      5   number of bands    NBANDS=    192
   number of dos      NEDOS =   4000   number of ions     NIONS =     73
   non local maximal  LDIM  =      6   non local SUM 2l+1 LMDIM =     18
   total plane-waves  NPLWV = 512000
   max r-space proj   IRMAX =      1   max aug-charges    IRDMAX=   6465
   dimension x,y,z NGX =    80 NGY =   80 NGZ =   80
   dimension x,y,z NGXF=   160 NGYF=  160 NGZF=  160
   support grid    NGXF=   160 NGYF=  160 NGZF=  160
   ions per type =              59   1  10   1   1   1
   NGX,Y,Z   is equivalent  to a cutoff of   8.95,  9.01,  8.87 a.u.
   NGXF,Y,Z  is equivalent  to a cutoff of  17.90, 18.02, 17.73 a.u.

 SYSTEM =  unknown system                          
 POSCAR =  POSCAR-clean                            

 Startparameter for this run:
   NWRITE =      2    write-flag & timer
   PREC   = normal    normal or accurate (medium, high low for compatibility)
   ISTART =      0    job   : 0-new  1-cont  2-samecut
   ICHARG =      2    charge: 1-file 2-atom 10-const
   ISPIN  =      2    spin polarized calculation?
   LNONCOLLINEAR =      F non collinear calculations
   LSORBIT =      F    spin-orbit coupling
   INIWAV =      1    electr: 0-lowe 1-rand  2-diag
   LASPH  =      F    aspherical Exc in radial PAW
   METAGGA=      F    non-selfconsistent MetaGGA calc.

 Electronic Relaxation 1
   ENCUT  =  440.0 eV  32.34 Ry    5.69 a.u.  25.41 25.25 25.66*2*pi/ulx,y,z
   ENINI  =  440.0     initial cutoff
   ENAUG  =  644.9 eV  augmentation charge cutoff
   NELM   =    100;   NELMIN=  2; NELMDL= -5     # of ELM steps 
   EDIFF  = 0.1E-03   stopping-criterion for ELM
   LREAL  =      F    real-space projection
   NLSPLINE    = F    spline interpolate recip. space projectors
   LCOMPAT=      F    compatible to vasp.4.4
   GGA_COMPAT  = T    GGA compatible to vasp.4.4-vasp.4.6
   LMAXPAW     = -100 max onsite density
   LMAXMIX     =    2 max onsite mixed and CHGCAR
   VOSKOWN=      0    Vosko Wilk Nusair interpolation
   ROPT   =    0.00000   0.00000   0.00000   0.00000
   ROPT   =    0.00000   0.00000
 Ionic relaxation
   EDIFFG = -.1E-01   stopping-criterion for IOM
   NSW    =      0    number of steps for IOM
   NBLOCK =      1;   KBLOCK =      1    inner block; outer block 
   IBRION =     -1    ionic relax: 0-MD 1-quasi-New 2-CG
   NFREE  =      0    steps in history (QN), initial steepest desc. (CG)
   ISIF   =      2    stress and relaxation
   IWAVPR =     10    prediction:  0-non 1-charg 2-wave 3-comb
   ISYM   =      0    0-nonsym 1-usesym 2-fastsym
   LCORR  =      T    Harris-Foulkes like correction to forces

   POTIM  = 0.5000    time-step for ionic-motion
   TEIN   =    0.0    initial temperature
   TEBEG  =    0.0;   TEEND  =   0.0 temperature during run
   SMASS  =  -3.00    Nose mass-parameter (am)
   estimated Nose-frequenzy (Omega)   =  0.10E-29 period in steps =****** mass=  -0.504E-26a.u.
   SCALEE = 1.0000    scale energy and forces
   NPACO  =    256;   APACO  = 16.0  distance and # of slots for P.C.
   PSTRESS=    0.0 pullay stress

  Mass of Ions in am
   POMASS =  12.01 14.00 12.01 52.00 12.01 16.00
  Ionic Valenz
   ZVAL   =   4.00  5.00  4.00 12.00  4.00  6.00
  Atomic Wigner-Seitz radii
   RWIGS  =  -1.00 -1.00 -1.00 -1.00 -1.00 -1.00
  virtual crystal weights 
   VCA    =   1.00  1.00  1.00  1.00  1.00  1.00
   NELECT =     303.0000    total number of electrons
   NUPDOWN=      -1.0000    fix difference up-down

 DOS related values:
   EMIN   = -14.00;   EMAX   =  6.00  energy-range for DOS
   EFERMI =   0.00
   ISMEAR =    -5;   SIGMA  =   0.20  broadening in eV -4-tet -1-fermi 0-gaus

 Electronic relaxation 2 (details)
   IALGO  =     38    algorithm
   LDIAG  =      T    sub-space diagonalisation (order eigenvalues)
   LSUBROT=      F    optimize rotation matrix (better conditioning)
   TURBO    =      0    0=normal 1=particle mesh
   IRESTART =      0    0=no restart 2=restart with 2 vectors
   NREBOOT  =      0    no. of reboots
   NMIN     =      0    reboot dimension
   EREF     =   0.00    reference energy to select bands
   IMIX   =      4    mixing-type and parameters
     AMIX     =   0.25;   BMIX     =  0.00
     AMIX_MAG =   1.00;   BMIX_MAG =  0.00
     AMIN     =   0.10
     WC   =   100.;   INIMIX=   1;  MIXPRE=   1;  MAXMIX= -45

 Intra band minimization:
   WEIMIN = 0.0000     energy-eigenvalue tresh-hold
   EBREAK =  0.13E-06  absolut break condition
   DEPER  =   0.30     relativ break condition  

   TIME   =   0.40     timestep for ELM

  volume/ion in A,a.u.               =      38.94       262.81
  Fermi-wavevector in a.u.,A,eV,Ry     =   0.776187  1.466781  8.197059  0.602467
  Thomas-Fermi vector in A             =   1.878612
 
 Write flags
   LWAVE        =      F    write WAVECAR
   LDOWNSAMPLE  =      F    k-point downsampling of WAVECAR
   LCHARG       =      F    write CHGCAR
   LVTOT        =      F    write LOCPOT, total local potential
   LVHAR        =      F    write LOCPOT, Hartree potential only
   LELF         =      F    write electronic localiz. function (ELF)
   LORBIT       =     11    0 simple, 1 ext, 2 COOP (PROOUT), +10 PAW based schemes


 Dipole corrections
   LMONO  =      F    monopole corrections only (constant potential shift)
   LDIPOL =      F    correct potential (dipole corrections)
   IDIPOL =      0    1-x, 2-y, 3-z, 4-all directions 
   EPSILON=  1.0000000 bulk dielectric constant

 Exchange correlation treatment:
   GGA     =    --    GGA type
   LEXCH   =     8    internal setting for exchange type
   VOSKOWN=      0    Vosko Wilk Nusair interpolation
   LHFCALC =     F    Hartree Fock is set to
   LHFONE  =     F    Hartree Fock one center treatment
   AEXX    =    0.0000 exact exchange contribution

 Linear response parameters
   LEPSILON=     F    determine dielectric tensor
   LRPA    =     F    only Hartree local field effects (RPA)
   LNABLA  =     F    use nabla operator in PAW spheres
   LVEL    =     F    velocity operator in full k-point grid
   LINTERFAST=   F  fast interpolation
   KINTER  =     0    interpolate to denser k-point grid
   CSHIFT  =0.1000    complex shift for real part using Kramers Kronig
   OMEGAMAX=  -1.0    maximum frequency
   DEG_THRESHOLD= 0.2000000E-02 threshold for treating states as degnerate
   RTIME   =   -0.100 relaxation time in fs
  (WPLASMAI=    0.000 imaginary part of plasma frequency in eV, 0.658/RTIME)
   DFIELD  = 0.0000000 0.0000000 0.0000000 field for delta impulse in time
 
 Orbital magnetization related:
   ORBITALMAG=     F  switch on orbital magnetization
   LCHIMAG   =     F  perturbation theory with respect to B field
   DQ        =  0.001000  dq finite difference perturbation B field
   LLRAUG    =     F  two centre corrections for induced B field



--------------------------------------------------------------------------------------------------------


 Static calculation
 charge density and potential will be updated during run
 spin polarized calculation
 Variant of blocked Davidson
 Davidson routine will perform the subspace rotation
 perform sub-space diagonalisation
    after iterative eigenvector-optimisation
 modified Broyden-mixing scheme, WC =      100.0
 initial mixing is a Kerker type mixing with AMIX =  0.2500 and BMIX =      0.0001
 Hartree-type preconditioning will be used
 using additional bands           40
 reciprocal scheme for non local part
 use partial core corrections
 calculate Harris-corrections to forces 
   (improved forces if not selfconsistent)
 use gradient corrections 
 use of overlap-Matrix (Vanderbilt PP)
 Fermi weights with tetrahedron method with Bloechl corrections


--------------------------------------------------------------------------------------------------------


  energy-cutoff  :      440.00
  volume of cell :     2842.94
      direct lattice vectors                 reciprocal lattice vectors
    14.857851351 -0.001371368  0.000000000     0.067308101  0.039196736  0.000000000
    -7.428925676 12.756850017  0.000000000     0.000007236  0.078393471  0.000000000
     0.000000000  0.000000000 15.000000000     0.000000000  0.000000000  0.066666667

  length of vectors
    14.857851414 14.762322278 15.000000000     0.077889438  0.078393471  0.066666667


 
 k-points in units of 2pi/SCALE and weight: K-Points                                
   0.00000000  0.00000000  0.00000000       0.111
   0.02243603  0.01306558  0.00000000       0.222
   0.00000241  0.02613116  0.00000000       0.222
   0.02243845  0.03919674  0.00000000       0.222
  -0.02243362  0.01306558  0.00000000       0.222
 
 k-points in reciprocal lattice and weights: K-Points                                
   0.00000000  0.00000000  0.00000000       0.111
   0.33333333 -0.00000000  0.00000000       0.222
  -0.00000000  0.33333333  0.00000000       0.222
   0.33333333  0.33333333  0.00000000       0.222
  -0.33333333  0.33333333  0.00000000       0.222
 
 position of ions in fractional coordinates (direct lattice) 
   0.99939895  0.99898909  0.49292176
   0.05514816  0.11043381  0.49190000
   0.16604773  0.00134075  0.49304510
   0.22181326  0.11229577  0.49302896
   0.33304618  0.00217532  0.49256323
   0.38912533  0.11325963  0.49470592
   0.49958247  0.00095377  0.49001897
   0.55535638  0.11253758  0.49214948
   0.66593604  0.99896091  0.48897123
   0.72146447  0.11018901  0.49020171
   0.83272281  0.99870535  0.49216267
   0.88769365  0.10985518  0.49116580
   0.99869833  0.16530061  0.49136058
   0.05443112  0.27707182  0.49146086
   0.16633054  0.16771083  0.49184686
   0.22180873  0.27862735  0.49032959
   0.33383290  0.16900122  0.49510305
   0.39002278  0.28076998  0.49738133
   0.50043342  0.16918818  0.49512812
   0.55623159  0.28090179  0.49912811
   0.66626765  0.16651303  0.49202551
   0.72198261  0.27779185  0.49455883
   0.83242312  0.16579582  0.49090917
   0.88804245  0.27724586  0.49189414
   0.99895083  0.33283464  0.49206821
   0.05456195  0.44442468  0.49249924
   0.16525785  0.33318521  0.49109480
   0.22006403  0.44451294  0.49201932
   0.33388697  0.33564651  0.49116008
   0.38710892  0.44573651  0.48954000
   0.50184295  0.33919209  0.50379061
   0.55916849  0.45100072  0.51422305
   0.66702007  0.33368064  0.49873326
   0.72373209  0.44494030  0.50137637
   0.83318028  0.33323311  0.49351886
   0.88912869  0.44466635  0.49429010
   0.99978577  0.50053409  0.49280841
   0.05547798  0.61217672  0.49239890
   0.16514140  0.50030370  0.49267700
   0.22084671  0.61188096  0.49190461
   0.33045473  0.49974128  0.48795069
   0.38681061  0.61257083  0.48599425
   0.66970453  0.50044282  0.50828248
   0.72555359  0.61206450  0.50775045
   0.83452239  0.50050682  0.49747128
   0.89016563  0.61178932  0.49725019
   0.00045129  0.66811528  0.49389396
   0.05616300  0.77997584  0.49330014
   0.16608780  0.66777021  0.49146548
   0.22203282  0.77933778  0.49088336
   0.33144904  0.66770698  0.48975334
   0.38825317  0.77898151  0.48780286
   0.49727760  0.66596104  0.48264949
   0.55417013  0.77611988  0.48577907
   0.66449496  0.66113772  0.51286639
   0.71887326  0.77285566  0.50111518
   0.83545263  0.66771081  0.50073264
   0.88993575  0.77924792  0.49833132
   0.00060164  0.83537062  0.49493391
   0.05553253  0.94538427  0.49343273
   0.16684102  0.83487522  0.49190144
   0.22158417  0.94609241  0.49250602
   0.33318146  0.83501112  0.48954245
   0.38857934  0.94619776  0.49052350
   0.49924171  0.83334828  0.48609218
   0.55482566  0.94458381  0.48813291
   0.66537790  0.83102010  0.49280420
   0.72107839  0.94215198  0.49097249
   0.83092080  0.83098384  0.49783891
   0.88810489  0.94267930  0.49390425
   0.51263706  0.55709524  0.54058186
   0.52376255  0.51995312  0.66063906
   0.53080227  0.50110297  0.73485770
 
 position of ions in cartesian coordinates  (Angst):
   7.42750528 12.74258346  7.39382646
  -0.00102138  1.40871197  7.37849997
   2.45715214  0.01687599  7.39567657
   2.46143160  1.43223607  7.39543435
   4.93219041  0.02729352  7.38844848
   4.94016891  1.44430242  7.42058887
   7.41563652  0.01148202  7.35028462
   7.41536913  1.43486349  7.38224216
   2.47317241 12.74268120  7.33456852
   9.90082585  1.40467532  7.35302569
   4.95316398 12.73919234  7.38244002
  12.37311436  1.40018867  7.36748702
  13.61050542  2.10734556  7.37040867
  -1.24961653  3.53448905  7.37191285
   1.22540312  2.13923378  7.37770285
   1.22569920  3.55410315  7.35494387
   3.70454208  2.15546535  7.42654579
   3.70908117  3.58120563  7.46071989
   6.17847884  2.15762202  7.42692177
   6.17760779  3.58265915  7.48692166
   8.66229282  2.12326799  7.38038264
   8.66341523  3.54275884  7.41838245
  11.13633417  2.11389090  7.36363749
  11.13476388  3.53556605  7.37841209
  12.36965912  4.24455170  7.38102309
  -2.49092459  5.66938417  7.38748860
  -0.01983149  4.25016707  7.36642203
  -0.03257500  5.67028317  7.38028982
   2.46735000  4.28133425  7.36740117
   2.44026336  5.68566296  7.34310002
   4.93647508  4.32633441  7.55685917
   4.95759143  5.75258168  7.71334573
   7.43159644  4.25579909  7.48099893
   7.44767541  5.67504414  7.52064559
   9.90370475  4.24986216  7.40278292
   9.90714871  5.67132258  7.41435154
  11.13623775  6.38386723  7.39212614
  -3.72353175  7.80937053  7.38598350
  -1.26307272  6.38207282  7.39015502
  -1.26431056  7.80537075  7.37856921
   1.19730645  6.37467143  7.31926029
   1.19643144  7.81394373  7.28991380
   6.23261784  6.38315560  7.62423715
   6.23318569  7.80701997  7.61625677
   8.68098157  6.38374603  7.46206914
   8.68101119  7.80328391  7.45875285
  -4.95667355  8.52304579  7.40840943
  -4.95992101  9.94995781  7.39950214
  -2.49310738  8.51841664  7.37198218
  -2.49071183  9.94159066  7.36325046
  -0.03572490  8.51738324  7.34630013
  -0.01838790  9.93681783  7.31704289
   2.44110155  8.49488321  7.23974233
   2.46804060  9.90008489  7.28668612
   4.96142444  8.43312343  7.69299583
   4.93942475  9.85821785  7.51672764
   7.45265702  8.51674091  7.51098960
   7.43355818  9.93952838  7.47496975
  -6.19696720 10.65669693  7.42400868
  -6.19809538 12.06004920  7.40149093
  -3.72332687 10.65014910  7.37852167
  -3.73618549 12.06885506  7.38759031
  -1.25287490 10.65165470  7.34313678
  -1.25577881 12.06997002  7.35785245
   1.22677674 10.63021435  7.29138277
   1.22627433 12.04915309  7.32199368
   3.71249933 10.60028634  7.39206294
   3.71449845 12.01790269  7.36458734
   6.17238051 10.59959672  7.46758370
   6.19223594 12.02440057  7.40856379
   3.47806614  7.10607744  8.10872784
   3.91929295  6.63224571  9.90958584
   4.16392459  6.39176748 11.02286557
 


--------------------------------------------------------------------------------------------------------


 k-point  1 :   0.0000 0.0000 0.0000  plane waves:   59585
 k-point  2 :   0.3333-0.0000 0.0000  plane waves:   59554
 k-point  3 :  -0.0000 0.3333 0.0000  plane waves:   59612
 k-point  4 :   0.3333 0.3333 0.0000  plane waves:   59626
 k-point  5 :  -0.3333 0.3333 0.0000  plane waves:   59552

 maximum and minimum number of plane-waves per node :      4998     4938

 maximum number of plane-waves:     59626
 maximum index in each direction: 
   IXMAX=   25   IYMAX=   25   IZMAX=   25
   IXMIN=  -25   IYMIN=  -25   IZMIN=  -25


 parallel 3D FFT for wavefunctions:
    minimum data exchange during FFTs selected (reduces bandwidth)
 parallel 3D FFT for charge:
    minimum data exchange during FFTs selected (reduces bandwidth)


 total amount of memory used by VASP MPI-rank0   116041. kBytes
=======================================================================

   base      :      30000. kBytes
   nonl-proj :      27286. kBytes
   fftplans  :       4700. kBytes
   grid      :      15193. kBytes
   one-center:        217. kBytes
   wavefun   :      38645. kBytes
 
     INWAV:  cpu time    0.0000: real time    0.0000
 Broyden mixing: mesh for mixing (old mesh)
   NGX = 51   NGY = 51   NGZ = 51
  (NGX  =160   NGY  =160   NGZ  =160)
  gives a total of 132651 points

 initial charge density was supplied:
 charge density of overlapping atoms calculated
 number of electron     303.0000000 magnetization       2.0000000
 keeping initial charge density in first step


--------------------------------------------------------------------------------------------------------


 Maximum index for augmentation-charges          179 (set IRDMAX)


--------------------------------------------------------------------------------------------------------


 First call to EWALD:  gamma=   0.125
 Maximum number of real-space cells 3x 3x 3
 Maximum number of reciprocal cells 3x 3x 3

    FEWALD:  cpu time    0.0060: real time    0.0063


--------------------------------------- Iteration      1(   1)  ---------------------------------------


    POTLOK:  cpu time    0.1683: real time    0.2385
    SETDIJ:  cpu time    0.0083: real time    0.0096
     EDDAV:  cpu time   11.2261: real time   11.3405
 BZINTS: Fermi energy:  8.076607;303.000000 electrons
         Band energy:***********;  BLOECHL correction: -0.017023
       DOS:  cpu time    0.1133: real time    0.1136
    --------------------------------------------
      LOOP:  cpu time   11.5160: real time   11.7022

 eigenvalue-minimisations  :  4384
 total energy-change (2. order) : 0.2524932E+04  (-0.1122478E+05)
 number of electron     303.0000000 magnetization       2.0000000
 augmentation part      303.0000000 magnetization       2.0000000

 Free energy of the ion-electron system (eV)
  ---------------------------------------------------
  alpha Z        PSCENC =       167.26514232
  Ewald energy   TEWEN  =     30887.18748702
  -Hartree energ DENC   =    -40558.60418178
  -exchange      EXHF   =         0.00000000
  -V(xc)+E(xc)   XCENC  =      1023.22527291
  PAW double counting   =      9455.23336183    -9546.47664214
  entropy T*S    EENTRO =         0.00000000
  eigenvalues    EBANDS =     -1547.65139517
  atomic energy  EATOM  =     12644.75315347
  Solvation  Ediel_sol  =         0.00000000
  ---------------------------------------------------
  free energy    TOTEN  =      2524.93219847 eV

  energy without entropy =     2524.93219847  energy(sigma->0) =     2524.93219847


--------------------------------------------------------------------------------------------------------




--------------------------------------- Iteration      1(   2)  ---------------------------------------


     EDDAV:  cpu time   14.8711: real time   15.2831
 BZINTS: Fermi energy: -1.947991;303.000000 electrons
         Band energy:***********;  BLOECHL correction: -0.003310
       DOS:  cpu time    0.0107: real time    0.0107
    --------------------------------------------
      LOOP:  cpu time   14.8818: real time   15.2938

 eigenvalue-minimisations  :  5464
 total energy-change (2. order) :-0.2766798E+04  (-0.2642142E+04)
 number of electron     303.0000000 magnetization       2.0000000
 augmentation part      303.0000000 magnetization       2.0000000

 Free energy of the ion-electron system (eV)
  ---------------------------------------------------
  alpha Z        PSCENC =       167.26514232
  Ewald energy   TEWEN  =     30887.18748702
  -Hartree energ DENC   =    -40558.60418178
  -exchange      EXHF   =         0.00000000
  -V(xc)+E(xc)   XCENC  =      1023.22527291
  PAW double counting   =      9455.23336183    -9546.47664214
  entropy T*S    EENTRO =         0.00000000
  eigenvalues    EBANDS =     -4314.44935380
  atomic energy  EATOM  =     12644.75315347
  Solvation  Ediel_sol  =         0.00000000
  ---------------------------------------------------
  free energy    TOTEN  =      -241.86576017 eV

  energy without entropy =     -241.86576017  energy(sigma->0) =     -241.86576017


--------------------------------------------------------------------------------------------------------




--------------------------------------- Iteration      1(   3)  ---------------------------------------


     EDDAV:  cpu time   12.4177: real time   12.6482
 BZINTS: Fermi energy: -4.559294;303.000000 electrons
         Band energy:***********;  BLOECHL correction: -0.043118
       DOS:  cpu time    0.0115: real time    0.0115
    --------------------------------------------
      LOOP:  cpu time   12.4292: real time   12.6597

 eigenvalue-minimisations  :  4568
 total energy-change (2. order) :-0.4582091E+03  (-0.4541228E+03)
 number of electron     303.0000000 magnetization       2.0000000
 augmentation part      303.0000000 magnetization       2.0000000

 Free energy of the ion-electron system (eV)
  ---------------------------------------------------
  alpha Z        PSCENC =       167.26514232
  Ewald energy   TEWEN  =     30887.18748702
  -Hartree energ DENC   =    -40558.60418178
  -exchange      EXHF   =         0.00000000
  -V(xc)+E(xc)   XCENC  =      1023.22527291
  PAW double counting   =      9455.23336183    -9546.47664214
  entropy T*S    EENTRO =         0.00000000
  eigenvalues    EBANDS =     -4772.65849254
  atomic energy  EATOM  =     12644.75315347
  Solvation  Ediel_sol  =         0.00000000
  ---------------------------------------------------
  free energy    TOTEN  =      -700.07489890 eV

  energy without entropy =     -700.07489890  energy(sigma->0) =     -700.07489890


--------------------------------------------------------------------------------------------------------




--------------------------------------- Iteration      1(   4)  ---------------------------------------


     EDDAV:  cpu time   12.7618: real time   12.9866
 BZINTS: Fermi energy: -4.722655;303.000000 electrons
         Band energy:***********;  BLOECHL correction: -0.042672
       DOS:  cpu time    0.0114: real time    0.0114
    --------------------------------------------
      LOOP:  cpu time   12.7732: real time   12.9980

 eigenvalue-minimisations  :  4664
 total energy-change (2. order) :-0.1665622E+02  (-0.1651418E+02)
 number of electron     303.0000000 magnetization       2.0000000
 augmentation part      303.0000000 magnetization       2.0000000

 Free energy of the ion-electron system (eV)
  ---------------------------------------------------
  alpha Z        PSCENC =       167.26514232
  Ewald energy   TEWEN  =     30887.18748702
  -Hartree energ DENC   =    -40558.60418178
  -exchange      EXHF   =         0.00000000
  -V(xc)+E(xc)   XCENC  =      1023.22527291
  PAW double counting   =      9455.23336183    -9546.47664214
  entropy T*S    EENTRO =         0.00000000
  eigenvalues    EBANDS =     -4789.31471068
  atomic energy  EATOM  =     12644.75315347
  Solvation  Ediel_sol  =         0.00000000
  ---------------------------------------------------
  free energy    TOTEN  =      -716.73111704 eV

  energy without entropy =     -716.73111704  energy(sigma->0) =     -716.73111704


--------------------------------------------------------------------------------------------------------




--------------------------------------- Iteration      1(   5)  ---------------------------------------


     EDDAV:  cpu time   13.7243: real time   13.9469
 BZINTS: Fermi energy: -4.731451;303.000000 electrons
         Band energy:***********;  BLOECHL correction: -0.042728
       DOS:  cpu time    0.0114: real time    0.0115
    CHARGE:  cpu time    0.1650: real time    0.1708
    MIXING:  cpu time    0.0032: real time    0.0053
    --------------------------------------------
      LOOP:  cpu time   13.9039: real time   14.1345

 eigenvalue-minimisations  :  5288
 total energy-change (2. order) :-0.5443109E+00  (-0.5424898E+00)
 number of electron     303.0000022 magnetization       0.0639940
 augmentation part       12.4699395 magnetization       0.0882310

 Broyden mixing:
  rms(total) = 0.47935E+01    rms(broyden)= 0.47929E+01
  rms(prec ) = 0.54794E+01
  weight for this iteration     100.00

 Free energy of the ion-electron system (eV)
  ---------------------------------------------------
  alpha Z        PSCENC =       167.26514232
  Ewald energy   TEWEN  =     30887.18748702
  -Hartree energ DENC   =    -40558.60418178
  -exchange      EXHF   =         0.00000000
  -V(xc)+E(xc)   XCENC  =      1023.22527291
  PAW double counting   =      9455.23336183    -9546.47664214
  entropy T*S    EENTRO =         0.00000000
  eigenvalues    EBANDS =     -4789.85902155
  atomic energy  EATOM  =     12644.75315347
  Solvation  Ediel_sol  =         0.00000000
  ---------------------------------------------------
  free energy    TOTEN  =      -717.27542791 eV

  energy without entropy =     -717.27542791  energy(sigma->0) =     -717.27542791


--------------------------------------------------------------------------------------------------------




--------------------------------------- Iteration      1(   6)  ---------------------------------------


    POTLOK:  cpu time    0.1602: real time    0.1637
    SETDIJ:  cpu time    0.0109: real time    0.0109
     EDDAV:  cpu time   12.3683: real time   12.4957
 BZINTS: Fermi energy: -5.518277;303.000000 electrons
         Band energy:***********;  BLOECHL correction: -0.022612
       DOS:  cpu time    0.0116: real time    0.0117
    CHARGE:  cpu time    0.2089: real time    0.2150
    MIXING:  cpu time    0.0042: real time    0.0072
    --------------------------------------------
      LOOP:  cpu time   12.7641: real time   12.9042

 eigenvalue-minimisations  :  4792
 total energy-change (2. order) : 0.5873966E+01  (-0.7348614E+01)
 number of electron     303.0000045 magnetization       0.0472530
 augmentation part       17.8432328 magnetization       0.0748287

 Broyden mixing:
  rms(total) = 0.72228E+01    rms(broyden)= 0.72225E+01
  rms(prec ) = 0.82524E+01
  weight for this iteration     100.00

 eigenvalues of (default mixing * dielectric matrix)
  average eigenvalue GAMMA=   0.2794
  0.2794

 Free energy of the ion-electron system (eV)
  ---------------------------------------------------
  alpha Z        PSCENC =       167.26514232
  Ewald energy   TEWEN  =     30887.18748702
  -Hartree energ DENC   =    -40918.61272533
  -exchange      EXHF   =         0.00000000
  -V(xc)+E(xc)   XCENC  =      1035.82015201
  PAW double counting   =     13270.60925472   -13362.19560957
  entropy T*S    EENTRO =         0.00000000
  eigenvalues    EBANDS =     -4436.22831644
  atomic energy  EATOM  =     12644.75315347
  Solvation  Ediel_sol  =         0.00000000
  ---------------------------------------------------
  free energy    TOTEN  =      -711.40146180 eV

  energy without entropy =     -711.40146180  energy(sigma->0) =     -711.40146180


--------------------------------------------------------------------------------------------------------




--------------------------------------- Iteration      1(   7)  ---------------------------------------


    POTLOK:  cpu time    0.1380: real time    0.1434
    SETDIJ:  cpu time    0.0087: real time    0.0088
     EDDAV:  cpu time   13.3490: real time   13.4933
 BZINTS: Fermi energy: -3.981699;303.000000 electrons
         Band energy:***********;  BLOECHL correction: -0.002538
       DOS:  cpu time    0.0104: real time    0.0105
    CHARGE:  cpu time    0.1628: real time    0.1663
    MIXING:  cpu time    0.0038: real time    0.0048
    --------------------------------------------
      LOOP:  cpu time   13.6728: real time   13.8270

 eigenvalue-minimisations  :  5272
 total energy-change (2. order) : 0.3602846E+02  (-0.7594542E+01)
 number of electron     303.0000023 magnetization       0.8140327
 augmentation part       13.9771459 magnetization       0.3426298

 Broyden mixing:
  rms(total) = 0.25401E+01    rms(broyden)= 0.25396E+01
  rms(prec ) = 0.27760E+01
  weight for this iteration     100.00

 eigenvalues of (default mixing * dielectric matrix)
  average eigenvalue GAMMA=   0.7420
  1.2017  0.2822

 Free energy of the ion-electron system (eV)
  ---------------------------------------------------
  alpha Z        PSCENC =       167.26514232
  Ewald energy   TEWEN  =     30887.18748702
  -Hartree energ DENC   =    -41070.89958401
  -exchange      EXHF   =         0.00000000
  -V(xc)+E(xc)   XCENC  =      1040.15546060
  PAW double counting   =     14447.37414451   -14543.27086549
  entropy T*S    EENTRO =         0.00000000
  eigenvalues    EBANDS =     -4247.93794435
  atomic energy  EATOM  =     12644.75315347
  Solvation  Ediel_sol  =         0.00000000
  ---------------------------------------------------
  free energy    TOTEN  =      -675.37300592 eV

  energy without entropy =     -675.37300592  energy(sigma->0) =     -675.37300592


--------------------------------------------------------------------------------------------------------




--------------------------------------- Iteration      1(   8)  ---------------------------------------


    POTLOK:  cpu time    0.1232: real time    0.1256
    SETDIJ:  cpu time    0.0100: real time    0.0101
     EDDAV:  cpu time   12.4292: real time   12.5740
 BZINTS: Fermi energy: -2.539933;303.000000 electrons
         Band energy:***********;  BLOECHL correction: -0.034649
       DOS:  cpu time    0.0115: real time    0.0116
    CHARGE:  cpu time    0.1620: real time    0.1636
    MIXING:  cpu time    0.0034: real time    0.0034
    --------------------------------------------
      LOOP:  cpu time   12.7393: real time   12.8884

 eigenvalue-minimisations  :  4760
 total energy-change (2. order) : 0.6983076E+01  (-0.2977800E+01)
 number of electron     303.0000025 magnetization       0.6980756
 augmentation part       12.5541639 magnetization       0.3282327

 Broyden mixing:
  rms(total) = 0.22124E+01    rms(broyden)= 0.22122E+01
  rms(prec ) = 0.25370E+01
  weight for this iteration     100.00

 eigenvalues of (default mixing * dielectric matrix)
  average eigenvalue GAMMA=   1.2275
  2.8027  0.3129  0.5669

 Free energy of the ion-electron system (eV)
  ---------------------------------------------------
  alpha Z        PSCENC =       167.26514232
  Ewald energy   TEWEN  =     30887.18748702
  -Hartree energ DENC   =    -41388.34863196
  -exchange      EXHF   =         0.00000000
  -V(xc)+E(xc)   XCENC  =      1051.40550871
  PAW double counting   =     18844.35767709   -18943.67674346
  entropy T*S    EENTRO =         0.00000000
  eigenvalues    EBANDS =     -3931.33352299
  atomic energy  EATOM  =     12644.75315347
  Solvation  Ediel_sol  =         0.00000000
  ---------------------------------------------------
  free energy    TOTEN  =      -668.38992979 eV

  energy without entropy =     -668.38992979  energy(sigma->0) =     -668.38992979


--------------------------------------------------------------------------------------------------------




--------------------------------------- Iteration      1(   9)  ---------------------------------------


    POTLOK:  cpu time    0.1621: real time    0.1644
    SETDIJ:  cpu time    0.0088: real time    0.0088
     EDDAV:  cpu time   12.0287: real time   12.1906
 BZINTS: Fermi energy: -2.598735;303.000000 electrons
         Band energy:***********;  BLOECHL correction: -0.045796
       DOS:  cpu time    0.0106: real time    0.0106
    CHARGE:  cpu time    0.1620: real time    0.1634
    MIXING:  cpu time    0.0038: real time    0.0044
    --------------------------------------------
      LOOP:  cpu time   12.3761: real time   12.5423

 eigenvalue-minimisations  :  4600
 total energy-change (2. order) : 0.3923515E+01  (-0.2372752E+01)
 number of electron     303.0000025 magnetization       0.3829728
 augmentation part       14.2994358 magnetization       0.0617210

 Broyden mixing:
  rms(total) = 0.14356E+01    rms(broyden)= 0.14349E+01
  rms(prec ) = 0.17391E+01
  weight for this iteration     100.00

 eigenvalues of (default mixing * dielectric matrix)
  average eigenvalue GAMMA=   1.2164
  3.1354  1.0047  0.3476  0.3779

 Free energy of the ion-electron system (eV)
  ---------------------------------------------------
  alpha Z        PSCENC =       167.26514232
  Ewald energy   TEWEN  =     30887.18748702
  -Hartree energ DENC   =    -41782.69041689
  -exchange      EXHF   =         0.00000000
  -V(xc)+E(xc)   XCENC  =      1065.89013895
  PAW double counting   =     26651.82479032   -26754.38337970
  entropy T*S    EENTRO =         0.00000000
  eigenvalues    EBANDS =     -3544.31332984
  atomic energy  EATOM  =     12644.75315347
  Solvation  Ediel_sol  =         0.00000000
  ---------------------------------------------------
  free energy    TOTEN  =      -664.46641434 eV

  energy without entropy =     -664.46641434  energy(sigma->0) =     -664.46641434


--------------------------------------------------------------------------------------------------------




--------------------------------------- Iteration      1(  10)  ---------------------------------------


    POTLOK:  cpu time    0.1793: real time    0.1819
    SETDIJ:  cpu time    0.0110: real time    0.0110
     EDDAV:  cpu time   13.2882: real time   13.4108
 BZINTS: Fermi energy: -1.894602;303.000000 electrons
         Band energy:***********;  BLOECHL correction: -0.006243
       DOS:  cpu time    0.0114: real time    0.0114
    CHARGE:  cpu time    0.1890: real time    0.1899
    MIXING:  cpu time    0.0037: real time    0.0037
    --------------------------------------------
      LOOP:  cpu time   13.6826: real time   13.8087

 eigenvalue-minimisations  :  5232
 total energy-change (2. order) : 0.1044474E+01  (-0.7694380E+00)
 number of electron     303.0000025 magnetization       0.7638369
 augmentation part       12.9884593 magnetization       0.1374096

 Broyden mixing:
  rms(total) = 0.76222E+00    rms(broyden)= 0.76169E+00
  rms(prec ) = 0.84430E+00
  weight for this iteration     100.00

 eigenvalues of (default mixing * dielectric matrix)
  average eigenvalue GAMMA=   1.2594
  3.4982  1.4613  0.6458  0.3458  0.3458

 Free energy of the ion-electron system (eV)
  ---------------------------------------------------
  alpha Z        PSCENC =       167.26514232
  Ewald energy   TEWEN  =     30887.18748702
  -Hartree energ DENC   =    -41790.25418637
  -exchange      EXHF   =         0.00000000
  -V(xc)+E(xc)   XCENC  =      1066.15191810
  PAW double counting   =     28362.18176612   -28464.91732373
  entropy T*S    EENTRO =         0.00000000
  eigenvalues    EBANDS =     -3535.78989779
  atomic energy  EATOM  =     12644.75315347
  Solvation  Ediel_sol  =         0.00000000
  ---------------------------------------------------
  free energy    TOTEN  =      -663.42194084 eV

  energy without entropy =     -663.42194084  energy(sigma->0) =     -663.42194084


--------------------------------------------------------------------------------------------------------




--------------------------------------- Iteration      1(  11)  ---------------------------------------


    POTLOK:  cpu time    0.1347: real time    0.1369
    SETDIJ:  cpu time    0.0099: real time    0.0103
     EDDAV:  cpu time   12.5307: real time   12.6669
 BZINTS: Fermi energy: -2.051993;303.000000 electrons
         Band energy:***********;  BLOECHL correction:  0.000000
       DOS:  cpu time    0.0059: real time    0.0059
    CHARGE:  cpu time    0.1600: real time    0.1617
    MIXING:  cpu time    0.0032: real time    0.0035
    --------------------------------------------
      LOOP:  cpu time   12.8443: real time   12.9851

 eigenvalue-minimisations  :  4944
 total energy-change (2. order) : 0.1152695E+00  (-0.9926220E-01)
 number of electron     303.0000026 magnetization       0.9956607
 augmentation part       13.1487756 magnetization       0.3921370

 Broyden mixing:
  rms(total) = 0.50819E+00    rms(broyden)= 0.50803E+00
  rms(prec ) = 0.56033E+00
  weight for this iteration     100.00

 eigenvalues of (default mixing * dielectric matrix)
  average eigenvalue GAMMA=   1.2654
  3.5709  1.8813  0.7164  0.7164  0.3538  0.3538

 Free energy of the ion-electron system (eV)
  ---------------------------------------------------
  alpha Z        PSCENC =       167.26514232
  Ewald energy   TEWEN  =     30887.18748702
  -Hartree energ DENC   =    -41758.26425158
  -exchange      EXHF   =         0.00000000
  -V(xc)+E(xc)   XCENC  =      1065.59682136
  PAW double counting   =     30215.49467432   -30317.74629499
  entropy T*S    EENTRO =         0.00000000
  eigenvalues    EBANDS =     -3567.59340325
  atomic energy  EATOM  =     12644.75315347
  Solvation  Ediel_sol  =         0.00000000
  ---------------------------------------------------
  free energy    TOTEN  =      -663.30667132 eV

  energy without entropy =     -663.30667132  energy(sigma->0) =     -663.30667132


--------------------------------------------------------------------------------------------------------




--------------------------------------- Iteration      1(  12)  ---------------------------------------


    POTLOK:  cpu time    0.1367: real time    0.1400
    SETDIJ:  cpu time    0.0088: real time    0.0096
     EDDAV:  cpu time   12.0924: real time   12.2343
 BZINTS: Fermi energy: -2.187042;303.000000 electrons
         Band energy:***********;  BLOECHL correction:  0.000000
       DOS:  cpu time    0.0067: real time    0.0067
    CHARGE:  cpu time    0.1841: real time    0.1851
    MIXING:  cpu time    0.0035: real time    0.0037
    --------------------------------------------
      LOOP:  cpu time   12.4322: real time   12.5795

 eigenvalue-minimisations  :  4616
 total energy-change (2. order) : 0.1004503E+00  (-0.3916271E-01)
 number of electron     303.0000026 magnetization       0.9883970
 augmentation part       13.3182902 magnetization       0.4987516

 Broyden mixing:
  rms(total) = 0.27128E+00    rms(broyden)= 0.27115E+00
  rms(prec ) = 0.27813E+00
  weight for this iteration     100.00

 eigenvalues of (default mixing * dielectric matrix)
  average eigenvalue GAMMA=   1.3624
  3.8233  2.4517  0.8774  0.8388  0.8388  0.3534  0.3534

 Free energy of the ion-electron system (eV)
  ---------------------------------------------------
  alpha Z        PSCENC =       167.26514232
  Ewald energy   TEWEN  =     30887.18748702
  -Hartree energ DENC   =    -41712.08737090
  -exchange      EXHF   =         0.00000000
  -V(xc)+E(xc)   XCENC  =      1064.21798821
  PAW double counting   =     31362.83434255   -31464.47188039
  entropy T*S    EENTRO =         0.00000000
  eigenvalues    EBANDS =     -3612.90508325
  atomic energy  EATOM  =     12644.75315347
  Solvation  Ediel_sol  =         0.00000000
  ---------------------------------------------------
  free energy    TOTEN  =      -663.20622097 eV

  energy without entropy =     -663.20622097  energy(sigma->0) =     -663.20622097


--------------------------------------------------------------------------------------------------------




--------------------------------------- Iteration      1(  13)  ---------------------------------------


    POTLOK:  cpu time    0.1363: real time    0.1387
    SETDIJ:  cpu time    0.0105: real time    0.0107
     EDDAV:  cpu time   12.2682: real time   12.3494
 BZINTS: Fermi energy: -2.242058;303.000000 electrons
         Band energy:***********;  BLOECHL correction:  0.000000
       DOS:  cpu time    0.0071: real time    0.0071
    CHARGE:  cpu time    0.1612: real time    0.1632
    MIXING:  cpu time    0.0040: real time    0.0041
    --------------------------------------------
      LOOP:  cpu time   12.5872: real time   12.6732

 eigenvalue-minimisations  :  4776
 total energy-change (2. order) :-0.1185991E-01  (-0.1691324E-01)
 number of electron     303.0000026 magnetization       0.9785419
 augmentation part       13.4118100 magnetization       0.5495444

 Broyden mixing:
  rms(total) = 0.19835E+00    rms(broyden)= 0.19829E+00
  rms(prec ) = 0.20442E+00
  weight for this iteration     100.00

 eigenvalues of (default mixing * dielectric matrix)
  average eigenvalue GAMMA=   1.3654
  3.7900  2.2882  1.6301  0.9811  0.7641  0.7641  0.3530  0.3530

 Free energy of the ion-electron system (eV)
  ---------------------------------------------------
  alpha Z        PSCENC =       167.26514232
  Ewald energy   TEWEN  =     30887.18748702
  -Hartree energ DENC   =    -41696.15483187
  -exchange      EXHF   =         0.00000000
  -V(xc)+E(xc)   XCENC  =      1063.74335016
  PAW double counting   =     31875.70083622   -31977.05801232
  entropy T*S    EENTRO =         0.00000000
  eigenvalues    EBANDS =     -3628.65520588
  atomic energy  EATOM  =     12644.75315347
  Solvation  Ediel_sol  =         0.00000000
  ---------------------------------------------------
  free energy    TOTEN  =      -663.21808088 eV

  energy without entropy =     -663.21808088  energy(sigma->0) =     -663.21808088


--------------------------------------------------------------------------------------------------------




--------------------------------------- Iteration      1(  14)  ---------------------------------------


    POTLOK:  cpu time    0.1441: real time    0.1472
    SETDIJ:  cpu time    0.0103: real time    0.0107
     EDDAV:  cpu time   11.5313: real time   11.6647
 BZINTS: Fermi energy: -2.227054;303.000000 electrons
         Band energy:***********;  BLOECHL correction:  0.000000
       DOS:  cpu time    0.0069: real time    0.0070
    CHARGE:  cpu time    0.1613: real time    0.1622
    MIXING:  cpu time    0.0039: real time    0.0039
    --------------------------------------------
      LOOP:  cpu time   11.8578: real time   11.9957

 eigenvalue-minimisations  :  4408
 total energy-change (2. order) :-0.3807620E-02  (-0.3450396E-02)
 number of electron     303.0000026 magnetization       0.9866076
 augmentation part       13.4077575 magnetization       0.5713011

 Broyden mixing:
  rms(total) = 0.16675E+00    rms(broyden)= 0.16674E+00
  rms(prec ) = 0.17368E+00
  weight for this iteration     100.00

 eigenvalues of (default mixing * dielectric matrix)
  average eigenvalue GAMMA=   1.3469
  3.7162  2.2991  2.1163  0.3531  0.3531  0.9793  0.7780  0.7780  0.7487

 Free energy of the ion-electron system (eV)
  ---------------------------------------------------
  alpha Z        PSCENC =       167.26514232
  Ewald energy   TEWEN  =     30887.18748702
  -Hartree energ DENC   =    -41701.70219547
  -exchange      EXHF   =         0.00000000
  -V(xc)+E(xc)   XCENC  =      1063.92597592
  PAW double counting   =     31856.19724720   -31957.56093405
  entropy T*S    EENTRO =         0.00000000
  eigenvalues    EBANDS =     -3623.28776492
  atomic energy  EATOM  =     12644.75315347
  Solvation  Ediel_sol  =         0.00000000
  ---------------------------------------------------
  free energy    TOTEN  =      -663.22188850 eV

  energy without entropy =     -663.22188850  energy(sigma->0) =     -663.22188850


--------------------------------------------------------------------------------------------------------




--------------------------------------- Iteration      1(  15)  ---------------------------------------


    POTLOK:  cpu time    0.1445: real time    0.1468
    SETDIJ:  cpu time    0.0086: real time    0.0087
     EDDAV:  cpu time   12.5974: real time   12.6996
 BZINTS: Fermi energy: -2.222053;303.000000 electrons
         Band energy:***********;  BLOECHL correction:  0.000000
       DOS:  cpu time    0.0067: real time    0.0067
    CHARGE:  cpu time    0.1591: real time    0.1598
    MIXING:  cpu time    0.0043: real time    0.0043
    --------------------------------------------
      LOOP:  cpu time   12.9206: real time   13.0259

 eigenvalue-minimisations  :  4832
 total energy-change (2. order) :-0.7061478E-03  (-0.7519878E-03)
 number of electron     303.0000026 magnetization       0.9963838
 augmentation part       13.4019548 magnetization       0.5967439

 Broyden mixing:
  rms(total) = 0.13047E+00    rms(broyden)= 0.13046E+00
  rms(prec ) = 0.13725E+00
  weight for this iteration     100.00

 eigenvalues of (default mixing * dielectric matrix)
  average eigenvalue GAMMA=   1.3564
  3.7147  2.6168  1.8652  1.2198  0.3531  0.3531  0.9305  0.9305  0.7901  0.7901

 Free energy of the ion-electron system (eV)
  ---------------------------------------------------
  alpha Z        PSCENC =       167.26514232
  Ewald energy   TEWEN  =     30887.18748702
  -Hartree energ DENC   =    -41702.32274850
  -exchange      EXHF   =         0.00000000
  -V(xc)+E(xc)   XCENC  =      1063.93863853
  PAW double counting   =     31833.00161001   -31934.30864909
  entropy T*S    EENTRO =         0.00000000
  eigenvalues    EBANDS =     -3622.73722841
  atomic energy  EATOM  =     12644.75315347
  Solvation  Ediel_sol  =         0.00000000
  ---------------------------------------------------
  free energy    TOTEN  =      -663.22259465 eV

  energy without entropy =     -663.22259465  energy(sigma->0) =     -663.22259465


--------------------------------------------------------------------------------------------------------




--------------------------------------- Iteration      1(  16)  ---------------------------------------


    POTLOK:  cpu time    0.1671: real time    0.1703
    SETDIJ:  cpu time    0.0084: real time    0.0084
     EDDAV:  cpu time   12.5093: real time   12.6130
 BZINTS: Fermi energy: -2.222051;303.000000 electrons
         Band energy:***********;  BLOECHL correction:  0.000000
       DOS:  cpu time    0.0064: real time    0.0064
    CHARGE:  cpu time    0.1989: real time    0.2033
    MIXING:  cpu time    0.0043: real time    0.0057
    --------------------------------------------
      LOOP:  cpu time   12.8944: real time   13.0072

 eigenvalue-minimisations  :  4864
 total energy-change (2. order) : 0.1358299E-02  (-0.3103976E-03)
 number of electron     303.0000026 magnetization       0.9976695
 augmentation part       13.3875011 magnetization       0.6069723

 Broyden mixing:
  rms(total) = 0.94448E-01    rms(broyden)= 0.94445E-01
  rms(prec ) = 0.98216E-01
  weight for this iteration     100.00

 eigenvalues of (default mixing * dielectric matrix)
  average eigenvalue GAMMA=   1.4130
  3.7263  2.5416  2.1568  2.1568  0.3531  0.3531  0.9551  0.8897  0.8897  0.7607
  0.7607

 Free energy of the ion-electron system (eV)
  ---------------------------------------------------
  alpha Z        PSCENC =       167.26514232
  Ewald energy   TEWEN  =     30887.18748702
  -Hartree energ DENC   =    -41701.51840307
  -exchange      EXHF   =         0.00000000
  -V(xc)+E(xc)   XCENC  =      1063.91582181
  PAW double counting   =     31847.63284648   -31948.87437299
  entropy T*S    EENTRO =         0.00000000
  eigenvalues    EBANDS =     -3623.58291138
  atomic energy  EATOM  =     12644.75315347
  Solvation  Ediel_sol  =         0.00000000
  ---------------------------------------------------
  free energy    TOTEN  =      -663.22123635 eV

[...]
   0.157E+02 -.287E+01 0.642E+01   -.156E+02 0.282E+01 -.621E+01   -.139E+00 0.476E-01 -.204E+00   0.153E-02 -.509E-02 -.175E-01
   0.546E+02 0.149E+02 0.696E+02   -.545E+02 -.154E+02 -.714E+02   -.172E-01 0.640E+00 0.189E+01   -.782E-01 -.826E-01 -.747E-01
   0.524E+02 -.201E+02 0.714E+02   -.520E+02 0.210E+02 -.729E+02   -.273E+00 -.959E+00 0.152E+01   -.105E+00 0.148E-01 -.829E-01
   -.433E+02 0.139E+02 0.127E+02   0.421E+02 -.140E+02 -.123E+02   0.115E+01 0.232E+00 -.308E+00   0.559E-01 -.414E-01 -.483E-01
   -.404E+02 -.209E+02 0.855E+01   0.388E+02 0.208E+02 -.818E+01   0.150E+01 0.152E-02 -.350E+00   0.688E-01 0.213E-01 -.478E-01
   -.156E+02 0.349E+01 0.969E+01   0.153E+02 -.372E+01 -.969E+01   0.269E+00 0.225E+00 0.585E-04   -.502E-02 0.380E-02 -.110E-01
   -.147E+02 -.903E+00 0.950E+01   0.144E+02 0.601E+00 -.946E+01   0.276E+00 0.362E+00 -.229E-01   0.265E-02 0.505E-02 -.109E-01
   -.895E+01 -.161E+01 0.111E+02   0.881E+01 0.898E+00 -.111E+02   0.128E+00 0.696E+00 0.500E-01   -.112E-02 0.164E-01 -.705E-02
   -.769E+01 0.520E+01 0.989E+01   0.868E+01 -.621E+01 -.990E+01   -.967E+00 0.980E+00 0.443E-01   -.582E-02 0.146E-01 -.626E-02
   0.514E+01 -.280E+01 0.987E+01   -.507E+01 0.261E+01 -.990E+01   -.945E-01 0.145E+00 0.252E-01   0.192E-03 0.100E-01 -.866E-02
   0.103E+01 -.291E+01 0.103E+02   -.545E+00 0.271E+01 -.102E+02   -.438E+00 0.204E+00 -.122E-01   -.977E-02 0.955E-03 -.729E-02
   0.248E+02 -.122E+02 0.170E+02   -.246E+02 0.121E+02 -.167E+02   -.229E+00 0.104E+00 -.266E+00   -.144E-01 -.108E-01 -.307E-01
   0.126E+02 -.151E+02 0.237E+02   -.122E+02 0.151E+02 -.238E+02   -.367E+00 0.537E-03 0.114E+00   -.168E-01 -.379E-02 -.175E-01
   -.278E+01 -.572E+02 0.146E+03   0.104E+02 0.536E+02 -.147E+03   -.751E+01 0.345E+01 0.125E+01   -.156E+00 0.169E+00 -.170E+00
   0.454E+01 -.367E+02 0.582E+02   -.423E+01 0.359E+02 -.582E+02   -.344E+00 0.747E+00 0.274E-01   -.244E-01 0.260E-01 -.490E-01
   -.129E+02 -.538E+02 -.117E+00   0.616E+01 0.491E+02 0.221E+01   0.656E+01 0.445E+01 -.191E+01   0.181E+00 0.162E+00 -.972E-01
   -.496E+01 -.282E+02 0.830E+01   0.421E+01 0.263E+02 -.832E+01   0.732E+00 0.184E+01 0.564E-01   0.375E-01 0.316E-01 -.325E-01
   -.207E+02 -.101E+02 0.827E+01   0.201E+02 0.915E+01 -.840E+01   0.669E+00 0.949E+00 0.148E+00   0.170E-01 0.363E-02 -.182E-01
   -.704E+01 -.561E+01 0.317E+01   0.576E+01 0.448E+01 -.297E+01   0.131E+01 0.108E+01 -.183E+00   0.214E-01 0.189E-01 -.129E-01
   -.608E+01 0.228E+02 0.613E+01   0.588E+01 -.292E+02 -.600E+01   0.186E+00 0.630E+01 -.124E+00   0.100E-01 0.103E-01 -.746E-02
   -.449E+01 -.460E+01 0.102E+02   0.471E+01 0.492E+01 -.103E+02   -.189E+00 -.265E+00 0.133E+00   0.102E-01 0.140E-02 -.819E-02
   -.731E+01 0.269E+01 0.982E+01   0.797E+01 -.314E+01 -.984E+01   -.650E+00 0.387E+00 0.340E-01   -.781E-02 0.332E-02 -.578E-02
   -.108E+02 -.542E+00 0.727E+01   0.122E+02 0.158E+00 -.727E+01   -.137E+01 0.360E+00 0.104E-01   -.196E-01 0.980E-02 -.585E-02
   0.454E+01 -.398E+01 0.137E+02   -.430E+01 0.402E+01 -.137E+02   -.285E+00 -.537E-01 0.187E-01   -.136E-01 -.855E-02 -.892E-02
   0.161E+01 -.417E+01 0.112E+02   -.134E+01 0.419E+01 -.112E+02   -.269E+00 -.596E-01 0.507E-02   -.183E-01 -.702E-02 -.721E-02
   0.608E+01 -.162E+02 0.345E+02   -.551E+01 0.160E+02 -.346E+02   -.526E+00 0.162E+00 0.104E+00   -.138E-01 -.196E-02 -.201E-01
   0.408E+01 -.119E+02 0.197E+02   -.402E+01 0.118E+02 -.197E+02   -.668E-01 0.126E+00 -.737E-02   -.312E-02 -.443E-02 -.109E-01
   -.253E+01 -.215E+02 0.226E+02   0.265E+01 0.206E+02 -.224E+02   -.122E+00 0.822E+00 -.238E+00   0.126E-01 0.293E-01 -.299E-01
   0.175E+01 -.156E+02 0.163E+02   -.192E+01 0.151E+02 -.163E+02   0.189E+00 0.541E+00 0.185E-01   0.842E-02 0.391E-02 -.139E-01
   0.281E+01 -.117E+02 0.629E+01   -.427E+01 0.108E+02 -.633E+01   0.141E+01 0.942E+00 0.458E-01   0.152E-01 0.971E-02 -.158E-01
   0.674E+01 -.937E+01 0.986E+01   -.828E+01 0.865E+01 -.995E+01   0.147E+01 0.720E+00 0.792E-01   0.199E-01 0.266E-02 -.939E-02
   0.515E+02 -.793E+02 -.292E+03   -.419E+02 0.778E+02 0.285E+03   -.965E+01 0.175E+01 0.728E+01   -.381E-01 -.133E+00 -.475E+00
   0.258E+02 -.124E+02 -.265E+03   -.303E+02 0.169E+02 0.246E+03   0.444E+01 -.440E+01 0.183E+02   0.694E-01 -.809E-01 0.235E+00
   -.491E+02 0.570E+02 -.680E+03   0.614E+02 -.691E+02 0.736E+03   -.123E+02 0.121E+02 -.562E+02   0.394E-01 -.428E-01 0.121E+00
 -----------------------------------------------------------------------------------------------
   0.158E+02 -.101E+02 0.316E+02   0.284E-13 0.000E+00 -.682E-12   -.160E+02 0.103E+02 -.298E+02   0.103E+00 -.196E+00 -.177E+01
 
 
 POSITION                                       TOTAL-FORCE (eV/Angst)
 -----------------------------------------------------------------------------------
      7.42751     12.74258      7.39383         0.048430      0.043514      0.021999
     -0.00102      1.40871      7.37850        -0.035908     -0.021980      0.013564
      2.45715      0.01688      7.39568        -0.041156     -0.097194     -0.017290
      2.46143      1.43224      7.39543        -0.034304      0.075176     -0.008894
      4.93219      0.02729      7.38845         0.027049     -0.029297     -0.011989
      4.94017      1.44430      7.42059         0.004336      0.085691      0.001296
      7.41564      0.01148      7.35028        -0.012473      0.043665      0.016843
      7.41537      1.43486      7.38224         0.048228     -0.026430      0.023878
      2.47317     12.74268      7.33457         0.010666     -0.012768     -0.004617
      9.90083      1.40468      7.35303        -0.041500      0.051001      0.014028
      4.95316     12.73919      7.38244        -0.042993     -0.039626      0.010194
     12.37311      1.40019      7.36749         0.050837      0.064353      0.009475
     13.61051      2.10735      7.37041        -0.011386      0.059532      0.001140
     -1.24962      3.53449      7.37191        -0.037664     -0.045167     -0.005356
      1.22540      2.13923      7.37770        -0.006411     -0.065643     -0.020024
      1.22570      3.55410      7.35494         0.020668      0.041870     -0.011787
      3.70454      2.15547      7.42655         0.026377     -0.033239     -0.011124
      3.70908      3.58121      7.46072         0.014477      0.027382     -0.001757
      6.17848      2.15762      7.42692        -0.054720     -0.036566     -0.019993
      6.17761      3.58266      7.48692        -0.067989     -0.002196      0.006512
      8.66229      2.12327      7.38038        -0.007569      0.023557     -0.005724
      8.66342      3.54276      7.41838         0.025427      0.017269      0.015078
     11.13633      2.11389      7.36364         0.035325     -0.023019      0.000651
     11.13476      3.53557      7.37841         0.060260      0.002030      0.012919
     12.36966      4.24455      7.38102         0.052590     -0.024302     -0.014928
     -2.49092      5.66938      7.38749        -0.002776      0.045851     -0.020974
     -0.01983      4.25017      7.36642         0.011169     -0.015778      0.008042
     -0.03257      5.67028      7.38029        -0.042985     -0.044244      0.016835
      2.46735      4.28133      7.36740        -0.053117     -0.034106      0.000079
      2.44026      5.68566      7.34310         0.040901      0.038434     -0.000253
      4.93648      4.32633      7.55686         0.011184     -0.068622      0.003522
      4.95759      5.75258      7.71335        -0.003446      0.070437     -0.017580
      7.43160      4.25580      7.48100         0.054846      0.023934      0.000018
      7.44768      5.67504      7.52065        -0.013683     -0.025683     -0.012365
      9.90370      4.24986      7.40278        -0.083592     -0.049092     -0.000612
      9.90715      5.67132      7.41435         0.020795      0.002996      0.007954
     11.13624      6.38387      7.39213         0.009496      0.000963      0.013974
     -3.72353      7.80937      7.38598         0.017601      0.015536      0.030332
     -1.26307      6.38207      7.39016        -0.040613      0.014441     -0.015572
     -1.26431      7.80537      7.37857        -0.035770     -0.007337     -0.013514
      1.19731      6.37467      7.31926        -0.018152      0.025716     -0.013635
      1.19643      7.81394      7.28991         0.024479     -0.002599      0.001404
      6.23262      6.38316      7.62424         0.017962      0.068831     -0.009030
      6.23319      7.80702      7.61626        -0.000157     -0.048490     -0.021085
      8.68098      6.38375      7.46207         0.001214      0.000658     -0.006551
      8.68101      7.80328      7.45875        -0.004676      0.067633      0.006590
     -4.95667      8.52305      7.40841        -0.010231      0.000308      0.004152
     -4.95992      9.94996      7.39950         0.010289     -0.002758      0.026266
     -2.49311      8.51842      7.37198        -0.028841     -0.025959     -0.005350
     -2.49071      9.94159      7.36325         0.040071      0.008979      0.000106
     -0.03572      8.51738      7.34630        -0.017603      0.017871      0.008944
     -0.01839      9.93682      7.31704        -0.027736      0.010392     -0.000317
      2.44110      8.49488      7.23974         0.002926     -0.031559     -0.042183
      2.46804      9.90008      7.28669        -0.050757      0.006372     -0.004382
      4.96142      8.43312      7.69300        -0.053356     -0.063060      0.088176
      4.93942      9.85822      7.51673         0.004104      0.010221      0.001689
      7.45266      8.51674      7.51099         0.066348     -0.009146     -0.002780
      7.43356      9.93953      7.47497         0.048466     -0.015771     -0.005398
     -6.19697     10.65670      7.42401        -0.001627     -0.058402      0.003668
     -6.19810     12.06005      7.40149         0.038348      0.056594      0.006447
     -3.72333     10.65015      7.37852         0.011168     -0.064792      0.003209
     -3.73619     12.06886      7.38759         0.026339     -0.012812      0.002039
     -1.25287     10.65165      7.34314        -0.063488     -0.026744     -0.000196
     -1.25578     12.06997      7.35785        -0.018767     -0.047297     -0.009682
      1.22678     10.63021      7.29138         0.028477     -0.037413     -0.011565
      1.22627     12.04915      7.32199        -0.005919      0.047852     -0.001864
      3.71250     10.60029      7.39206         0.013746     -0.024432     -0.000582
      3.71450     12.01790      7.36459         0.023643      0.058157      0.009537
      6.17238     10.59960      7.46758        -0.037737      0.017313     -0.015948
      6.19224     12.02440      7.40856        -0.052415      0.000541     -0.022351
      3.47807      7.10608      8.10873        -0.005625      0.027141      0.082613
      3.91929      6.63225      9.90959         0.101733      0.029885     -0.058351
      4.16392      6.39177     11.02287         0.017166     -0.028569     -0.027566
 -----------------------------------------------------------------------------------
    total drift:                               -0.020171      0.009429      0.036858


--------------------------------------------------------------------------------------------------------



  FREE ENERGIE OF THE ION-ELECTRON SYSTEM (eV)
  ---------------------------------------------------
  free  energy   TOTEN  =      -669.79226102 eV

  energy  without entropy=     -669.79226102  energy(sigma->0) =     -669.79226102
 


--------------------------------------------------------------------------------------------------------


    POTLOK:  cpu time    0.1457: real time    0.1462


--------------------------------------------------------------------------------------------------------


 stress matrix after NEB project (eV)
     -9.89148     -0.46828      0.25461
     -0.46828     -1.95414      0.02380
      0.25461      0.02380     -3.14958
  FORCES: max atom, RMS     0.121027    0.057803
  FORCE total and by dimension    0.493873    0.101733
  Stress total and by dimension   10.590055    9.891480
     LOOP+:  cpu time  242.6499: real time  245.7610
    4ORBIT:  cpu time    0.0000: real time    0.0000
 


 total charge     
 
# of ion       s       p       d       tot
------------------------------------------
    1        0.852   1.746   0.000   2.598
    2        0.862   1.787   0.000   2.649
    3        0.852   1.749   0.000   2.601
    4        0.862   1.788   0.000   2.650
    5        0.863   1.781   0.000   2.644
    6        0.865   1.787   0.000   2.652
    7        0.863   1.780   0.000   2.643
    8        0.864   1.780   0.000   2.644
    9        0.863   1.780   0.000   2.643
   10        0.865   1.783   0.000   2.648
   11        0.862   1.783   0.000   2.645
   12        0.865   1.786   0.000   2.651
   13        0.863   1.783   0.000   2.645
   14        0.864   1.783   0.000   2.647
   15        0.866   1.788   0.000   2.654
   16        0.864   1.781   0.000   2.645
   17        0.861   1.775   0.000   2.636
   18        0.865   1.767   0.000   2.632
   19        0.863   1.775   0.000   2.638
   20        0.863   1.766   0.000   2.629
   21        0.864   1.785   0.000   2.650
   22        0.866   1.784   0.000   2.650
   23        0.864   1.788   0.000   2.652
   24        0.866   1.786   0.000   2.652
   25        0.864   1.786   0.000   2.650
   26        0.866   1.790   0.000   2.656
   27        0.866   1.787   0.000   2.653
   28        0.868   1.794   0.000   2.662
   29        0.866   1.776   0.000   2.642
   30        0.881   1.693   0.000   2.574
   31        0.858   1.747   0.000   2.605
   32        0.869   1.630   0.000   2.499
   33        0.865   1.793   0.000   2.659
   34        0.870   1.795   0.000   2.666
   35        0.864   1.789   0.000   2.654
   36        0.867   1.792   0.000   2.660
   37        0.866   1.790   0.000   2.656
   38        0.865   1.789   0.000   2.655
   39        0.867   1.791   0.000   2.658
   40        0.866   1.792   0.000   2.659
   41        0.869   1.773   0.000   2.642
   42        0.869   1.773   0.000   2.642
   43        0.875   1.790   0.000   2.665
   44        0.876   1.783   0.000   2.659
   45        0.867   1.795   0.000   2.661
   46        0.868   1.796   0.000   2.664
   47        0.865   1.789   0.000   2.654
   48        0.862   1.793   0.000   2.655
   49        0.867   1.791   0.000   2.658
   50        0.864   1.790   0.000   2.654
   51        0.869   1.792   0.000   2.662
   52        0.866   1.787   0.000   2.652
   53        0.880   1.700   0.000   2.580
   54        0.865   1.771   0.000   2.636
   55        0.871   1.645   0.000   2.516
   56        0.859   1.751   0.000   2.609
   57        0.868   1.795   0.000   2.663
   58        0.864   1.795   0.000   2.658
   59        0.854   1.752   0.000   2.606
   60        1.210   2.698   0.000   3.908
   61        0.866   1.790   0.000   2.657
   62        0.862   1.793   0.000   2.655
   63        0.866   1.785   0.000   2.651
   64        0.864   1.786   0.000   2.650
   65        0.865   1.776   0.000   2.641
   66        0.864   1.783   0.000   2.646
   67        0.865   1.773   0.000   2.639
   68        0.863   1.773   0.000   2.636
   69        0.864   1.768   0.000   2.632
   70        0.861   1.782   0.000   2.642
   71        0.409   6.450   4.331  11.189
   72        0.983   1.540   0.000   2.523
   73        1.627   3.528   0.000   5.155
--------------------------------------------------
tot         63.918 136.712   4.331 204.961
 


 magnetization (x)
 
# of ion       s       p       d       tot
------------------------------------------
    1        0.000   0.006   0.000   0.007
    2       -0.000  -0.003   0.000  -0.004
    3        0.000   0.003   0.000   0.003
    4       -0.000  -0.004   0.000  -0.004
    5        0.000   0.002   0.000   0.002
    6       -0.000  -0.005   0.000  -0.005
    7        0.000   0.004   0.000   0.004
    8       -0.000  -0.003   0.000  -0.003
    9        0.000   0.006   0.000   0.006
   10       -0.000  -0.003   0.000  -0.003
   11        0.000   0.001   0.000   0.001
   12       -0.000  -0.002   0.000  -0.003
   13        0.000   0.003   0.000   0.003
   14       -0.000  -0.004   0.000  -0.004
   15        0.000   0.003   0.000   0.003
   16       -0.001  -0.005   0.000  -0.005
   17        0.001   0.006   0.000   0.007
   18       -0.001  -0.014   0.000  -0.015
   19        0.000   0.003   0.000   0.003
   20       -0.001  -0.004   0.000  -0.005
   21        0.000   0.003   0.000   0.003
   22       -0.000  -0.003   0.000  -0.004
   23        0.000   0.007   0.000   0.008
   24       -0.000  -0.003   0.000  -0.003
   25        0.000   0.001   0.000   0.001
   26       -0.000  -0.002   0.000  -0.003
   27        0.001   0.011   0.000   0.012
   28       -0.000  -0.006   0.000  -0.006
   29        0.002   0.015   0.000   0.017
   30       -0.008  -0.046   0.000  -0.054
   31        0.001   0.008   0.000   0.009
   32       -0.007  -0.036   0.000  -0.042
   33        0.000   0.006   0.000   0.007
   34       -0.000  -0.004   0.000  -0.004
   35        0.000   0.002   0.000   0.002
   36       -0.000  -0.002   0.000  -0.002
   37        0.000   0.004   0.000   0.004
   38       -0.000  -0.003   0.000  -0.003
   39        0.000   0.001   0.000   0.002
   40       -0.000  -0.004   0.000  -0.004
   41        0.002   0.012   0.000   0.014
   42        0.000  -0.006   0.000  -0.006
   43        0.002   0.006   0.000   0.008
   44        0.001  -0.003   0.000  -0.003
   45        0.000  -0.002   0.000  -0.002
   46       -0.000  -0.004   0.000  -0.004
   47        0.000   0.002   0.000   0.002
   48       -0.000  -0.005   0.000  -0.005
   49        0.000   0.000   0.000   0.000
   50       -0.000  -0.004   0.000  -0.004
   51        0.001   0.004   0.000   0.005
   52       -0.000  -0.002   0.000  -0.002
   53       -0.003  -0.001   0.000  -0.004
   54        0.000   0.001   0.000   0.001
   55       -0.006  -0.023   0.000  -0.028
   56       -0.000   0.003   0.000   0.003
   57        0.000   0.002   0.000   0.002
   58        0.000   0.000   0.000   0.000
   59       -0.000  -0.005   0.000  -0.005
   60       -0.000  -0.001   0.000  -0.001
   61        0.000   0.002   0.000   0.003
   62       -0.000  -0.006   0.000  -0.006
   63        0.000   0.003   0.000   0.003
   64       -0.000  -0.002   0.000  -0.002
   65        0.000   0.003   0.000   0.003
   66       -0.000  -0.002   0.000  -0.002
   67        0.001   0.009   0.000   0.009
   68       -0.000  -0.002   0.000  -0.003
   69       -0.000  -0.002   0.000  -0.002
   70       -0.000  -0.003   0.000  -0.003
   71        0.010   0.015   0.947   0.972
   72       -0.003   0.013   0.000   0.010
   73        0.001   0.038   0.000   0.039
--------------------------------------------------
tot         -0.009  -0.020   0.947   0.918
 
 BZINTS: Fermi energy: -2.217049;303.000000 electrons
         Band energy:***********;  BLOECHL correction:  0.000000

 total amount of memory used by VASP MPI-rank0   116041. kBytes
=======================================================================

   base      :      30000. kBytes
   nonl-proj :      27286. kBytes
   fftplans  :       4700. kBytes
   grid      :      15193. kBytes
   one-center:        217. kBytes
   wavefun   :      38645. kBytes
 
  
  
 General timing and accounting informations for this job:
 ========================================================
  
                  Total CPU time used (sec):      260.403
                            User time (sec):      251.415
                          System time (sec):        8.989
                         Elapsed time (sec):      273.349
  
                   Maximum memory used (kb):      472280.
                   Average memory used (kb):           0.
  
                          Minor page faults:      1381855
                          Major page faults:            0
                 Voluntary context switches:         9459
