 vasp.5.4.4.18Apr17-6-g9f103f2a35 (build Jan 14 2022 15:04:31) complex          
  
 executed on             LinuxIFC date 2023.01.27  22:53:25
 running on   48 total cores
 distrk:  each k-point on   48 cores,    1 groups
 distr:  one band on NCORES_PER_BAND=  12 cores,    4 groups


--------------------------------------------------------------------------------------------------------


 INCAR:
 POTCAR:    PAW_PBE C 08Apr2002                   
 POTCAR:    PAW_PBE N 08Apr2002                   
 POTCAR:    PAW_PBE C 08Apr2002                   
 POTCAR:    PAW_PBE Cr_pv 02Aug2007               
 POTCAR:    PAW_PBE C 08Apr2002                   
 POTCAR:    PAW_PBE O 08Apr2002                   
 POTCAR:    PAW_PBE C 08Apr2002                   
   SHA256 =  253f7b50bb8d59471dbedb8285d89021f4a42ed1a2c5d38a03a736e69125dd95 C/
   COPYR  = (c) Copyright 08Apr2002 Georg Kresse                                
   COPYR  = This file is part of the software VASP. Any use, copying, and all ot
   COPYR  = If you do not have a valid VASP license, you may not use, copy or di
   VRHFIN =C: s2p2                                                              
   LEXCH  = PE                                                                  
   EATOM  =   147.1560 eV,   10.8157 Ry                                         
                                                                                
   TITEL  = PAW_PBE C 08Apr2002                                                 
   LULTRA =        F    use ultrasoft PP ?                                      
   IUNSCR =        1    unscreen: 0-lin 1-nonlin 2-no                           
   RPACOR =    1.200    partial core radius                                     
   POMASS =   12.011; ZVAL   =    4.000    mass and valenz                      
   RCORE  =    1.500    outmost cutoff radius                                   
   RWIGS  =    1.630; RWIGS  =    0.863    wigner-seitz radius (au A)           
   ENMAX  =  400.000; ENMIN  =  300.000 eV                                      
   ICORE  =        2    local potential                                         
   LCOR   =        T    correct aug charges                                     
   LPAW   =        T    paw PP                                                  
   EAUG   =  644.873                                                            
   DEXC   =    0.000                                                            
   RMAX   =    1.529    core radius for proj-oper                               
   RAUG   =    1.300    factor for augmentation sphere                          
   RDEP   =    1.501    radius for radial grids                                 
   RDEPT  =    1.300    core radius for aug-charge                              
                                                                                
   Atomic configuration                                                         
    4 entries                                                                   
     n  l   j            E        occ.                                          
     1  0  0.50      -273.3789   2.0000                                         
     2  0  0.50       -13.7508   2.0000                                         
     2  1  0.50        -5.2854   2.0000                                         
     3  2  1.50        -5.4423   0.0000                                         
   Description                                                                  
     l       E           TYP  RCUT    TYP  RCUT                                 
     0    -13.7508458     23  1.200                                             
     0     -8.2022199     23  1.200                                             
     1     -5.2854383     23  1.500                                             
     1     34.0145650     23  1.500                                             
     2     -5.4423304      7  1.500                                             
  local pseudopotential read in
  partial core-charges read in
  partial kinetic energy density read in
  atomic valenz-charges read in
  non local Contribution for L=           0  read in
    real space projection operators read in
  non local Contribution for L=           0  read in
    real space projection operators read in
  non local Contribution for L=           1  read in
    real space projection operators read in
  non local Contribution for L=           1  read in
    real space projection operators read in
    PAW grid and wavefunctions read in
 
   number of l-projection  operators is LMAX  =           4
   number of lm-projection operators is LMMAX =           8
 
 POTCAR:    PAW_PBE N 08Apr2002                   
   SHA256 =  e053789ff3a61a86a1b75d8a110fcc91f86041011e7b0817c7c99e4e8a6349d7 N/
   COPYR  = (c) Copyright 08Apr2002 Georg Kresse                                
   COPYR  = This file is part of the software VASP. Any use, copying, and all ot
   COPYR  = If you do not have a valid VASP license, you may not use, copy or di
   VRHFIN =N: s2p3                                                              
   LEXCH  = PE                                                                  
   EATOM  =   264.5486 eV,   19.4438 Ry                                         
                                                                                
   TITEL  = PAW_PBE N 08Apr2002                                                 
   LULTRA =        F    use ultrasoft PP ?                                      
   IUNSCR =        1    unscreen: 0-lin 1-nonlin 2-no                           
   RPACOR =    1.200    partial core radius                                     
   POMASS =   14.001; ZVAL   =    5.000    mass and valenz                      
   RCORE  =    1.500    outmost cutoff radius                                   
   RWIGS  =    1.400; RWIGS  =    0.741    wigner-seitz radius (au A)           
   ENMAX  =  400.000; ENMIN  =  300.000 eV                                      
   ICORE  =        2    local potential                                         
   LCOR   =        T    correct aug charges                                     
   LPAW   =        T    paw PP                                                  
   EAUG   =  627.112                                                            
   DEXC   =    0.000                                                            
   RMAX   =    1.529    core radius for proj-oper                               
   RAUG   =    1.300    factor for augmentation sphere                          
   RDEP   =    1.514    radius for radial grids                                 
   RDEPT  =    1.338    core radius for aug-charge                              
                                                                                
   Atomic configuration                                                         
    4 entries                                                                   
     n  l   j            E        occ.                                          
     1  0  0.50      -384.7179   2.0000                                         
     2  0  0.50       -18.5828   2.0000                                         
     2  1  0.50        -7.0898   3.0000                                         
     3  2  1.50        -6.8029   0.0000                                         
   Description                                                                  
     l       E           TYP  RCUT    TYP  RCUT                                 
     0    -18.5828119     23  1.200                                             
     0    -13.5018863     23  1.200                                             
     1     -7.0897853     23  1.500                                             
     1      9.5240782     23  1.500                                             
     2     -6.8029130      7  1.500                                             
  local pseudopotential read in
  partial core-charges read in
  partial kinetic energy density read in
  atomic valenz-charges read in
  non local Contribution for L=           0  read in
    real space projection operators read in
  non local Contribution for L=           0  read in
    real space projection operators read in
  non local Contribution for L=           1  read in
    real space projection operators read in
  non local Contribution for L=           1  read in
    real space projection operators read in
    PAW grid and wavefunctions read in
 
   number of l-projection  operators is LMAX  =           4
   number of lm-projection operators is LMMAX =           8
 
 POTCAR:    PAW_PBE C 08Apr2002                   
   SHA256 =  253f7b50bb8d59471dbedb8285d89021f4a42ed1a2c5d38a03a736e69125dd95 C/
   COPYR  = (c) Copyright 08Apr2002 Georg Kresse                                
   COPYR  = This file is part of the software VASP. Any use, copying, and all ot
   COPYR  = If you do not have a valid VASP license, you may not use, copy or di
   VRHFIN =C: s2p2                                                              
   LEXCH  = PE                                                                  
   EATOM  =   147.1560 eV,   10.8157 Ry                                         
                                                                                
   TITEL  = PAW_PBE C 08Apr2002                                                 
   LULTRA =        F    use ultrasoft PP ?                                      
   IUNSCR =        1    unscreen: 0-lin 1-nonlin 2-no                           
   RPACOR =    1.200    partial core radius                                     
   POMASS =   12.011; ZVAL   =    4.000    mass and valenz                      
   RCORE  =    1.500    outmost cutoff radius                                   
   RWIGS  =    1.630; RWIGS  =    0.863    wigner-seitz radius (au A)           
   ENMAX  =  400.000; ENMIN  =  300.000 eV                                      
   ICORE  =        2    local potential                                         
   LCOR   =        T    correct aug charges                                     
   LPAW   =        T    paw PP                                                  
   EAUG   =  644.873                                                            
   DEXC   =    0.000                                                            
   RMAX   =    1.529    core radius for proj-oper                               
   RAUG   =    1.300    factor for augmentation sphere                          
   RDEP   =    1.501    radius for radial grids                                 
   RDEPT  =    1.300    core radius for aug-charge                              
                                                                                
   Atomic configuration                                                         
    4 entries                                                                   
     n  l   j            E        occ.                                          
     1  0  0.50      -273.3789   2.0000                                         
     2  0  0.50       -13.7508   2.0000                                         
     2  1  0.50        -5.2854   2.0000                                         
     3  2  1.50        -5.4423   0.0000                                         
   Description                                                                  
     l       E           TYP  RCUT    TYP  RCUT                                 
     0    -13.7508458     23  1.200                                             
     0     -8.2022199     23  1.200                                             
     1     -5.2854383     23  1.500                                             
     1     34.0145650     23  1.500                                             
     2     -5.4423304      7  1.500                                             
  local pseudopotential read in
  partial core-charges read in
  partial kinetic energy density read in
  atomic valenz-charges read in
  non local Contribution for L=           0  read in
    real space projection operators read in
  non local Contribution for L=           0  read in
    real space projection operators read in
  non local Contribution for L=           1  read in
    real space projection operators read in
  non local Contribution for L=           1  read in
    real space projection operators read in
    PAW grid and wavefunctions read in
 
   number of l-projection  operators is LMAX  =           4
   number of lm-projection operators is LMMAX =           8
 
 POTCAR:    PAW_PBE Cr_pv 02Aug2007               
   SHA256 =  c9a7df34d3cdbacf1090e328ef39c0b420964e11c23f63548d1ac9dd218cdba0 Cr
   COPYR  = (c) Copyright 02Aug2007 Georg Kresse                                
   COPYR  = This file is part of the software VASP. Any use, copying, and all ot
   COPYR  = If you do not have a valid VASP license, you may not use, copy or di
   VRHFIN =Cr : p6d5s1                                                          
   LEXCH  = PE                                                                  
   EATOM  =  1647.9177 eV,  121.1185 Ry                                         
                                                                                
   TITEL  = PAW_PBE Cr_pv 02Aug2007                                             
   LULTRA =        F    use ultrasoft PP ?                                      
   IUNSCR =        1    unscreen: 0-lin 1-nonlin 2-no                           
   RPACOR =    2.080    partial core radius                                     
   POMASS =   51.996; ZVAL   =   12.000    mass and valenz                      
   RCORE  =    2.300    outmost cutoff radius                                   
   RWIGS  =    2.500; RWIGS  =    1.323    wigner-seitz radius (au A)           
   ENMAX  =  265.681; ENMIN  =  199.261 eV                                      
   ICORE  =        3    local potential                                         
   LCOR   =        T    correct aug charges                                     
   LPAW   =        T    paw PP                                                  
   EAUG   =  519.424                                                            
   DEXC   =    0.000                                                            
   RMAX   =    2.356    core radius for proj-oper                               
   RAUG   =    1.300    factor for augmentation sphere                          
   RDEP   =    2.447    radius for radial grids                                 
   RDEPT  =    1.882    core radius for aug-charge                              
                                                                                
   Atomic configuration                                                         
    8 entries                                                                   
     n  l   j            E        occ.                                          
     1  0  0.50     -5880.4963   2.0000                                         
     2  0  0.50      -667.0865   2.0000                                         
     2  1  1.50      -560.6250   6.0000                                         
     3  0  0.50       -73.9860   2.0000                                         
     3  1  1.50       -45.4378   6.0000                                         
     3  2  2.50        -2.9137   5.0000                                         
     4  0  0.50        -4.0071   1.0000                                         
     4  3  2.50        -1.3606   0.0000                                         
   Description                                                                  
     l       E           TYP  RCUT    TYP  RCUT                                 
     1    -45.4377911     23  2.000                                             
     1      1.3605826     23  2.000                                             
     2     -2.9136672     23  2.300                                             
     2     -4.2742498     23  2.300                                             
     0     -4.0071320     23  2.300                                             
     0      9.4498803     23  2.300                                             
     3      2.7211652     23  2.300                                             
  local pseudopotential read in
  partial core-charges read in
  partial kinetic energy density read in
  atomic valenz-charges read in
  non local Contribution for L=           1  read in
    real space projection operators read in
  non local Contribution for L=           1  read in
    real space projection operators read in
  non local Contribution for L=           2  read in
    real space projection operators read in
  non local Contribution for L=           2  read in
    real space projection operators read in
  non local Contribution for L=           0  read in
    real space projection operators read in
  non local Contribution for L=           0  read in
    real space projection operators read in
    PAW grid and wavefunctions read in
 
   number of l-projection  operators is LMAX  =           6
   number of lm-projection operators is LMMAX =          18
 
 POTCAR:    PAW_PBE C 08Apr2002                   
   SHA256 =  253f7b50bb8d59471dbedb8285d89021f4a42ed1a2c5d38a03a736e69125dd95 C/
   COPYR  = (c) Copyright 08Apr2002 Georg Kresse                                
   COPYR  = This file is part of the software VASP. Any use, copying, and all ot
   COPYR  = If you do not have a valid VASP license, you may not use, copy or di
   VRHFIN =C: s2p2                                                              
   LEXCH  = PE                                                                  
   EATOM  =   147.1560 eV,   10.8157 Ry                                         
                                                                                
   TITEL  = PAW_PBE C 08Apr2002                                                 
   LULTRA =        F    use ultrasoft PP ?                                      
   IUNSCR =        1    unscreen: 0-lin 1-nonlin 2-no                           
   RPACOR =    1.200    partial core radius                                     
   POMASS =   12.011; ZVAL   =    4.000    mass and valenz                      
   RCORE  =    1.500    outmost cutoff radius                                   
   RWIGS  =    1.630; RWIGS  =    0.863    wigner-seitz radius (au A)           
   ENMAX  =  400.000; ENMIN  =  300.000 eV                                      
   ICORE  =        2    local potential                                         
   LCOR   =        T    correct aug charges                                     
   LPAW   =        T    paw PP                                                  
   EAUG   =  644.873                                                            
   DEXC   =    0.000                                                            
   RMAX   =    1.529    core radius for proj-oper                               
   RAUG   =    1.300    factor for augmentation sphere                          
   RDEP   =    1.501    radius for radial grids                                 
   RDEPT  =    1.300    core radius for aug-charge                              
                                                                                
   Atomic configuration                                                         
    4 entries                                                                   
     n  l   j            E        occ.                                          
     1  0  0.50      -273.3789   2.0000                                         
     2  0  0.50       -13.7508   2.0000                                         
     2  1  0.50        -5.2854   2.0000                                         
     3  2  1.50        -5.4423   0.0000                                         
   Description                                                                  
     l       E           TYP  RCUT    TYP  RCUT                                 
     0    -13.7508458     23  1.200                                             
     0     -8.2022199     23  1.200                                             
     1     -5.2854383     23  1.500                                             
     1     34.0145650     23  1.500                                             
     2     -5.4423304      7  1.500                                             
  local pseudopotential read in
  partial core-charges read in
  partial kinetic energy density read in
  atomic valenz-charges read in
  non local Contribution for L=           0  read in
    real space projection operators read in
  non local Contribution for L=           0  read in
    real space projection operators read in
  non local Contribution for L=           1  read in
    real space projection operators read in
  non local Contribution for L=           1  read in
    real space projection operators read in
    PAW grid and wavefunctions read in
 
   number of l-projection  operators is LMAX  =           4
   number of lm-projection operators is LMMAX =           8
 
 POTCAR:    PAW_PBE O 08Apr2002                   
   SHA256 =  818f92134a0a090dccd8ba1447fa70422a3b330e708bb4f08108d8ae51209ddf O/
   COPYR  = (c) Copyright 08Apr2002 Georg Kresse                                
   COPYR  = This file is part of the software VASP. Any use, copying, and all ot
   COPYR  = If you do not have a valid VASP license, you may not use, copy or di
   VRHFIN =O: s2p4                                                              
   LEXCH  = PE                                                                  
   EATOM  =   432.3788 eV,   31.7789 Ry                                         
                                                                                
   TITEL  = PAW_PBE O 08Apr2002                                                 
   LULTRA =        F    use ultrasoft PP ?                                      
   IUNSCR =        1    unscreen: 0-lin 1-nonlin 2-no                           
   RPACOR =    1.200    partial core radius                                     
   POMASS =   16.000; ZVAL   =    6.000    mass and valenz                      
   RCORE  =    1.520    outmost cutoff radius                                   
   RWIGS  =    1.550; RWIGS  =    0.820    wigner-seitz radius (au A)           
   ENMAX  =  400.000; ENMIN  =  300.000 eV                                      
   ICORE  =        2    local potential                                         
   LCOR   =        T    correct aug charges                                     
   LPAW   =        T    paw PP                                                  
   EAUG   =  605.392                                                            
   DEXC   =    0.000                                                            
   RMAX   =    1.553    core radius for proj-oper                               
   RAUG   =    1.300    factor for augmentation sphere                          
   RDEP   =    1.550    radius for radial grids                                 
   RDEPT  =    1.329    core radius for aug-charge                              
                                                                                
   Atomic configuration                                                         
    4 entries                                                                   
     n  l   j            E        occ.                                          
     1  0  0.50      -514.6923   2.0000                                         
     2  0  0.50       -23.9615   2.0000                                         
     2  1  0.50        -9.0305   4.0000                                         
     3  2  1.50        -9.5241   0.0000                                         
   Description                                                                  
     l       E           TYP  RCUT    TYP  RCUT                                 
     0    -23.9615318     23  1.200                                             
     0     -9.5240782     23  1.200                                             
     1     -9.0304911     23  1.520                                             
     1      8.1634956     23  1.520                                             
     2     -9.5240782      7  1.500                                             
  local pseudopotential read in
  partial core-charges read in
  partial kinetic energy density read in
  kinetic energy density of atom read in
  atomic valenz-charges read in
  non local Contribution for L=           0  read in
    real space projection operators read in
  non local Contribution for L=           0  read in
    real space projection operators read in
  non local Contribution for L=           1  read in
    real space projection operators read in
  non local Contribution for L=           1  read in
    real space projection operators read in
    PAW grid and wavefunctions read in
 
   number of l-projection  operators is LMAX  =           4
   number of lm-projection operators is LMMAX =           8
 

 ----------------------------------------------------------------------------- 
|                                                                             |
|  ADVICE TO THIS USER RUNNING 'VASP/VAMP'   (HEAR YOUR MASTER'S VOICE ...):  |
|                                                                             |
|      You have a (more or less) 'large supercell' and for larger cells       |
|      it might be more efficient to use real space projection opertators     |
|      So try LREAL= Auto  in the INCAR   file.                               |
|      Mind:          For very  accurate calculation you might also keep the  |
|      reciprocal projection scheme          (i.e. LREAL=.FALSE.)             |
|                                                                             |
 ----------------------------------------------------------------------------- 

  PAW_PBE C 08Apr2002                   :
 energy of atom  1       EATOM= -147.1560
 kinetic energy error for atom=    0.0132 (will be added to EATOM!!)
  PAW_PBE N 08Apr2002                   :
 energy of atom  2       EATOM= -264.5486
 kinetic energy error for atom=    0.0298 (will be added to EATOM!!)
  PAW_PBE C 08Apr2002                   :
 energy of atom  3       EATOM= -147.1560
 kinetic energy error for atom=    0.0132 (will be added to EATOM!!)
  PAW_PBE Cr_pv 02Aug2007               :
 energy of atom  4       EATOM=-1647.9177
 kinetic energy error for atom=    0.0134 (will be added to EATOM!!)
  PAW_PBE C 08Apr2002                   :
 energy of atom  5       EATOM= -147.1560
 kinetic energy error for atom=    0.0132 (will be added to EATOM!!)
  PAW_PBE O 08Apr2002                   :
 energy of atom  6       EATOM= -432.3788
 kinetic energy error for atom=    0.0458 (will be added to EATOM!!)
 
 
 POSCAR: POSCAR-clean                            
  positions in direct lattice
  velocities in cartesian coordinates
 exchange correlation table for  LEXCH =        8
   RHO(1)=    0.500       N(1)  =     2000
   RHO(2)=  100.500       N(2)  =     4000

 VTST: version 3.2, (02/03/18)

 CHAIN: initializing optimizer
 
 OPT: Using VASP Dynamics algorithm
 CHAIN: Read ICHAIN            0
 
 POSCAR: POSCAR-clean                            
  positions in direct lattice
  velocities in cartesian coordinates
 


--------------------------------------------------------------------------------------------------------


 ion  position               nearest neighbor table
   1  0.999  0.999  0.493-  60 1.42   2 1.43  70 1.43
   2  0.055  0.111  0.492-  15 1.43  13 1.43   1 1.43
   3  0.166  0.001  0.493-  62 1.42   4 1.42  60 1.43
   4  0.222  0.113  0.493-  15 1.42   3 1.42  17 1.44
   5  0.333  0.002  0.493-  62 1.42   6 1.42  64 1.43
   6  0.389  0.114  0.495-   5 1.42  19 1.42  17 1.43
   7  0.500  0.001  0.490-   8 1.42  64 1.42  66 1.43
   8  0.555  0.113  0.493-   7 1.42  21 1.42  19 1.44
   9  0.666  0.999  0.489-  10 1.42  66 1.43  68 1.44
  10  0.721  0.110  0.490-   9 1.42  23 1.43  21 1.43
  11  0.832  0.999  0.492-  70 1.42  12 1.42  68 1.43
  12  0.888  0.110  0.491-  11 1.42  23 1.43  13 1.43
  13  0.999  0.166  0.492-  14 1.42  12 1.43   2 1.43
  14  0.054  0.277  0.492-  13 1.42  27 1.43  25 1.43
  15  0.166  0.167  0.492-   4 1.42  16 1.42   2 1.43
  16  0.222  0.279  0.491-  15 1.42  27 1.43  29 1.44
  17  0.334  0.170  0.495-  18 1.43   6 1.43   4 1.44
  18  0.390  0.281  0.497-  17 1.43  29 1.43  31 1.44
  19  0.500  0.169  0.496-   6 1.42  20 1.43   8 1.44
  20  0.556  0.281  0.500-  33 1.43  19 1.43  31 1.45
  21  0.666  0.167  0.492-  22 1.42   8 1.42  10 1.43
  22  0.722  0.278  0.495-  21 1.42  33 1.43  35 1.43
  23  0.833  0.166  0.491-  24 1.42  12 1.43  10 1.43
  24  0.888  0.278  0.492-  25 1.42  23 1.42  35 1.43
  25  0.999  0.333  0.493-  24 1.42  26 1.42  14 1.43
  26  0.055  0.445  0.493-  39 1.42  37 1.42  25 1.42
  27  0.166  0.333  0.492-  28 1.42  16 1.43  14 1.43
  28  0.220  0.445  0.492-  41 1.42  27 1.42  39 1.42
  29  0.334  0.336  0.491-  30 1.40  18 1.43  16 1.44
  30  0.387  0.446  0.489-  29 1.40  41 1.42  71 1.91
  31  0.502  0.340  0.504-  18 1.44  32 1.44  20 1.45
  32  0.559  0.452  0.514-  43 1.43  31 1.44  71 2.04
  33  0.667  0.334  0.499-  34 1.42  22 1.43  20 1.43
  34  0.724  0.445  0.502-  43 1.41  33 1.42  45 1.43
  35  0.833  0.334  0.494-  36 1.42  24 1.43  22 1.43
  36  0.889  0.445  0.495-  35 1.42  37 1.42  45 1.42
  37  1.000  0.501  0.493-  36 1.42  26 1.42  38 1.43
  38  0.056  0.613  0.493-  49 1.42  37 1.43  47 1.43
  39  0.165  0.501  0.493-  40 1.42  26 1.42  28 1.42
  40  0.221  0.612  0.492-  39 1.42  51 1.42  49 1.42
  41  0.331  0.500  0.488-  28 1.42  30 1.42  42 1.44  71 2.51
  42  0.387  0.613  0.485-  53 1.42  51 1.42  41 1.44  71 2.52
  43  0.670  0.501  0.509-  34 1.41  44 1.42  32 1.43
  44  0.726  0.613  0.508-  55 1.42  57 1.42  43 1.42
  45  0.835  0.501  0.498-  46 1.41  36 1.42  34 1.43
  46  0.890  0.612  0.498-  45 1.41  47 1.42  57 1.42
  47  0.000  0.669  0.494-  48 1.42  46 1.42  38 1.43
  48  0.055  0.780  0.494-  59 1.41  47 1.42  61 1.42
  49  0.166  0.668  0.492-  38 1.42  50 1.42  40 1.42
  50  0.222  0.779  0.491-  49 1.42  63 1.43  61 1.43
  51  0.331  0.668  0.490-  52 1.42  40 1.42  42 1.42
  52  0.388  0.779  0.488-  51 1.42  65 1.43  63 1.43
  53  0.497  0.666  0.481-  54 1.40  42 1.42  71 1.94
  54  0.554  0.776  0.485-  53 1.40  67 1.44  65 1.44
  55  0.665  0.662  0.513-  44 1.42  56 1.43  71 2.04
  56  0.719  0.773  0.501-  55 1.43  67 1.45  69 1.45
  57  0.836  0.668  0.501-  58 1.41  44 1.42  46 1.42
  58  0.890  0.779  0.498-  59 1.41  57 1.41  69 1.42
  59  0.000  0.834  0.495-  60 1.41  58 1.41  48 1.41
  60  0.055  0.944  0.493-  59 1.41   1 1.42   3 1.43
  61  0.166  0.835  0.492-  62 1.42  48 1.42  50 1.43
  62  0.223  0.947  0.493-  61 1.42   5 1.42   3 1.42
  63  0.333  0.835  0.490-  64 1.42  50 1.43  52 1.43
  64  0.389  0.946  0.491-  63 1.42   7 1.42   5 1.43
  65  0.499  0.833  0.486-  66 1.42  52 1.43  54 1.44
  66  0.555  0.945  0.488-  65 1.42   9 1.43   7 1.43
  67  0.665  0.831  0.492-  68 1.42  54 1.44  56 1.45
  68  0.721  0.942  0.491-  67 1.42  11 1.43   9 1.44
  69  0.832  0.831  0.497-  58 1.42  70 1.42  56 1.45
  70  0.887  0.943  0.493-  11 1.42  69 1.42   1 1.43
  71  0.512  0.557  0.539-  72 1.91  30 1.91  53 1.94  32 2.04  55 2.04  41 2.51  42 2.52
  72  0.522  0.516  0.658-  73 1.17  71 1.91
  73  0.528  0.494  0.731-  72 1.17
 

IMPORTANT INFORMATION: All symmetrisations will be switched off!
NOSYMM: (Re-)initialisation of all symmetry stuff for point group C_1.

 
 
 KPOINTS: K-Points                                

Automatic generation of k-mesh.
Space group operators:
 irot       det(A)        alpha          n_x          n_y          n_z        tau_x        tau_y        tau_z
    1     1.000000     0.000000     1.000000     0.000000     0.000000     0.000000     0.000000     0.000000
 
 Subroutine IBZKPT returns following result:
 ===========================================
 
 Found      5 irreducible k-points:
 
 Following reciprocal coordinates:
            Coordinates               Weight
  0.000000  0.000000  0.000000      1.000000
  0.333333  0.000000  0.000000      2.000000
  0.000000  0.333333  0.000000      2.000000
  0.333333  0.333333  0.000000      2.000000
 -0.333333  0.333333  0.000000      2.000000
 
 Following cartesian coordinates:
            Coordinates               Weight
  0.000000  0.000000  0.000000      1.000000
  0.022433  0.013066  0.000000      2.000000
  0.000007  0.026132  0.000000      2.000000
  0.022440  0.039198  0.000000      2.000000
 -0.022426  0.013066  0.000000      2.000000
 
 TETIRR: Found     24 inequivalent tetrahedra from       54


--------------------------------------------------------------------------------------------------------




 Dimension of arrays:
   k-points           NKPTS =      5   k-points in BZ     NKDIM =      5   number of bands    NBANDS=    192
   number of dos      NEDOS =   4000   number of ions     NIONS =     73
   non local maximal  LDIM  =      6   non local SUM 2l+1 LMDIM =     18
   total plane-waves  NPLWV = 512000
   max r-space proj   IRMAX =      1   max aug-charges    IRDMAX=   6464
   dimension x,y,z NGX =    80 NGY =   80 NGZ =   80
   dimension x,y,z NGXF=   160 NGYF=  160 NGZF=  160
   support grid    NGXF=   160 NGYF=  160 NGZF=  160
   ions per type =              58   1  11   1   1   1
   NGX,Y,Z   is equivalent  to a cutoff of   8.95,  9.01,  8.87 a.u.
   NGXF,Y,Z  is equivalent  to a cutoff of  17.90, 18.02, 17.73 a.u.

 SYSTEM =  unknown system                          
 POSCAR =  POSCAR-clean                            

 Startparameter for this run:
   NWRITE =      2    write-flag & timer
   PREC   = normal    normal or accurate (medium, high low for compatibility)
   ISTART =      0    job   : 0-new  1-cont  2-samecut
   ICHARG =      2    charge: 1-file 2-atom 10-const
   ISPIN  =      2    spin polarized calculation?
   LNONCOLLINEAR =      F non collinear calculations
   LSORBIT =      F    spin-orbit coupling
   INIWAV =      1    electr: 0-lowe 1-rand  2-diag
   LASPH  =      F    aspherical Exc in radial PAW
   METAGGA=      F    non-selfconsistent MetaGGA calc.

 Electronic Relaxation 1
   ENCUT  =  440.0 eV  32.34 Ry    5.69 a.u.  25.42 25.25 25.66*2*pi/ulx,y,z
   ENINI  =  440.0     initial cutoff
   ENAUG  =  644.9 eV  augmentation charge cutoff
   NELM   =    100;   NELMIN=  2; NELMDL= -5     # of ELM steps 
   EDIFF  = 0.1E-03   stopping-criterion for ELM
   LREAL  =      F    real-space projection
   NLSPLINE    = F    spline interpolate recip. space projectors
   LCOMPAT=      F    compatible to vasp.4.4
   GGA_COMPAT  = T    GGA compatible to vasp.4.4-vasp.4.6
   LMAXPAW     = -100 max onsite density
   LMAXMIX     =    2 max onsite mixed and CHGCAR
   VOSKOWN=      0    Vosko Wilk Nusair interpolation
   ROPT   =    0.00000   0.00000   0.00000   0.00000
   ROPT   =    0.00000   0.00000
 Ionic relaxation
   EDIFFG = -.1E-01   stopping-criterion for IOM
   NSW    =      0    number of steps for IOM
   NBLOCK =      1;   KBLOCK =      1    inner block; outer block 
   IBRION =     -1    ionic relax: 0-MD 1-quasi-New 2-CG
   NFREE  =      0    steps in history (QN), initial steepest desc. (CG)
   ISIF   =      2    stress and relaxation
   IWAVPR =     10    prediction:  0-non 1-charg 2-wave 3-comb
   ISYM   =      0    0-nonsym 1-usesym 2-fastsym
   LCORR  =      T    Harris-Foulkes like correction to forces

   POTIM  = 0.5000    time-step for ionic-motion
   TEIN   =    0.0    initial temperature
   TEBEG  =    0.0;   TEEND  =   0.0 temperature during run
   SMASS  =  -3.00    Nose mass-parameter (am)
   estimated Nose-frequenzy (Omega)   =  0.10E-29 period in steps =****** mass=  -0.505E-26a.u.
   SCALEE = 1.0000    scale energy and forces
   NPACO  =    256;   APACO  = 16.0  distance and # of slots for P.C.
   PSTRESS=    0.0 pullay stress

  Mass of Ions in am
   POMASS =  12.01 14.00 12.01 52.00 12.01 16.00
  Ionic Valenz
   ZVAL   =   4.00  5.00  4.00 12.00  4.00  6.00
  Atomic Wigner-Seitz radii
   RWIGS  =  -1.00 -1.00 -1.00 -1.00 -1.00 -1.00
  virtual crystal weights 
   VCA    =   1.00  1.00  1.00  1.00  1.00  1.00
   NELECT =     303.0000    total number of electrons
   NUPDOWN=      -1.0000    fix difference up-down

 DOS related values:
   EMIN   = -14.00;   EMAX   =  6.00  energy-range for DOS
   EFERMI =   0.00
   ISMEAR =    -5;   SIGMA  =   0.20  broadening in eV -4-tet -1-fermi 0-gaus

 Electronic relaxation 2 (details)
   IALGO  =     38    algorithm
   LDIAG  =      T    sub-space diagonalisation (order eigenvalues)
   LSUBROT=      F    optimize rotation matrix (better conditioning)
   TURBO    =      0    0=normal 1=particle mesh
   IRESTART =      0    0=no restart 2=restart with 2 vectors
   NREBOOT  =      0    no. of reboots
   NMIN     =      0    reboot dimension
   EREF     =   0.00    reference energy to select bands
   IMIX   =      4    mixing-type and parameters
     AMIX     =   0.25;   BMIX     =  0.00
     AMIX_MAG =   1.00;   BMIX_MAG =  0.00
     AMIN     =   0.10
     WC   =   100.;   INIMIX=   1;  MIXPRE=   1;  MAXMIX= -45

 Intra band minimization:
   WEIMIN = 0.0000     energy-eigenvalue tresh-hold
   EBREAK =  0.13E-06  absolut break condition
   DEPER  =   0.30     relativ break condition  

   TIME   =   0.40     timestep for ELM

  volume/ion in A,a.u.               =      38.95       262.86
  Fermi-wavevector in a.u.,A,eV,Ry     =   0.776136  1.466685  8.195983  0.602388
  Thomas-Fermi vector in A             =   1.878551
 
 Write flags
   LWAVE        =      F    write WAVECAR
   LDOWNSAMPLE  =      F    k-point downsampling of WAVECAR
   LCHARG       =      F    write CHGCAR
   LVTOT        =      F    write LOCPOT, total local potential
   LVHAR        =      F    write LOCPOT, Hartree potential only
   LELF         =      F    write electronic localiz. function (ELF)
   LORBIT       =     11    0 simple, 1 ext, 2 COOP (PROOUT), +10 PAW based schemes


 Dipole corrections
   LMONO  =      F    monopole corrections only (constant potential shift)
   LDIPOL =      F    correct potential (dipole corrections)
   IDIPOL =      0    1-x, 2-y, 3-z, 4-all directions 
   EPSILON=  1.0000000 bulk dielectric constant

 Exchange correlation treatment:
   GGA     =    --    GGA type
   LEXCH   =     8    internal setting for exchange type
   VOSKOWN=      0    Vosko Wilk Nusair interpolation
   LHFCALC =     F    Hartree Fock is set to
   LHFONE  =     F    Hartree Fock one center treatment
   AEXX    =    0.0000 exact exchange contribution

 Linear response parameters
   LEPSILON=     F    determine dielectric tensor
   LRPA    =     F    only Hartree local field effects (RPA)
   LNABLA  =     F    use nabla operator in PAW spheres
   LVEL    =     F    velocity operator in full k-point grid
   LINTERFAST=   F  fast interpolation
   KINTER  =     0    interpolate to denser k-point grid
   CSHIFT  =0.1000    complex shift for real part using Kramers Kronig
   OMEGAMAX=  -1.0    maximum frequency
   DEG_THRESHOLD= 0.2000000E-02 threshold for treating states as degnerate
   RTIME   =   -0.100 relaxation time in fs
  (WPLASMAI=    0.000 imaginary part of plasma frequency in eV, 0.658/RTIME)
   DFIELD  = 0.0000000 0.0000000 0.0000000 field for delta impulse in time
 
 Orbital magnetization related:
   ORBITALMAG=     F  switch on orbital magnetization
   LCHIMAG   =     F  perturbation theory with respect to B field
   DQ        =  0.001000  dq finite difference perturbation B field
   LLRAUG    =     F  two centre corrections for induced B field



--------------------------------------------------------------------------------------------------------


 Static calculation
 charge density and potential will be updated during run
 spin polarized calculation
 Variant of blocked Davidson
 Davidson routine will perform the subspace rotation
 perform sub-space diagonalisation
    after iterative eigenvector-optimisation
 modified Broyden-mixing scheme, WC =      100.0
 initial mixing is a Kerker type mixing with AMIX =  0.2500 and BMIX =      0.0001
 Hartree-type preconditioning will be used
 using additional bands           40
 reciprocal scheme for non local part
 use partial core corrections
 calculate Harris-corrections to forces 
   (improved forces if not selfconsistent)
 use gradient corrections 
 use of overlap-Matrix (Vanderbilt PP)
 Fermi weights with tetrahedron method with Bloechl corrections


--------------------------------------------------------------------------------------------------------


  energy-cutoff  :      440.00
  volume of cell :     2843.50
      direct lattice vectors                 reciprocal lattice vectors
    14.861160630 -0.003892508  0.000000000     0.067299762  0.039197741  0.000000000
    -7.430580315 12.757783281  0.000000000     0.000020534  0.078395483  0.000000000
     0.000000000  0.000000000 15.000000000     0.000000000  0.000000000  0.066666667

  length of vectors
    14.861161140 14.763961463 15.000000000     0.077882738  0.078395485  0.066666667


 
 k-points in units of 2pi/SCALE and weight: K-Points                                
   0.00000000  0.00000000  0.00000000       0.111
   0.02243325  0.01306591  0.00000000       0.222
   0.00000684  0.02613183  0.00000000       0.222
   0.02244010  0.03919774  0.00000000       0.222
  -0.02242641  0.01306591  0.00000000       0.222
 
 k-points in reciprocal lattice and weights: K-Points                                
   0.00000000  0.00000000  0.00000000       0.111
   0.33333333  0.00000000  0.00000000       0.222
   0.00000000  0.33333333  0.00000000       0.222
   0.33333333  0.33333333  0.00000000       0.222
  -0.33333333  0.33333333  0.00000000       0.222
 
 position of ions in fractional coordinates (direct lattice) 
   0.99874209  0.99856366  0.49291096
   0.05491128  0.11059199  0.49216667
   0.16630552  0.00092791  0.49292119
   0.22218085  0.11259994  0.49310041
   0.33344356  0.00206023  0.49281434
   0.38937182  0.11362822  0.49506149
   0.49959620  0.00112706  0.49020514
   0.55540410  0.11271534  0.49261799
   0.66590427  0.99916051  0.48852704
   0.72141698  0.11038333  0.49018989
   0.83229617  0.99856527  0.49187232
   0.88785070  0.11017899  0.49125267
   0.99891700  0.16577785  0.49182965
   0.05447107  0.27734145  0.49231700
   0.16604327  0.16715257  0.49216434
   0.22186555  0.27867823  0.49076056
   0.33414453  0.16953300  0.49522230
   0.39035033  0.28123840  0.49749622
   0.50030111  0.16935789  0.49569619
   0.55603758  0.28117167  0.49997150
   0.66632392  0.16674036  0.49238081
   0.72207978  0.27818095  0.49515720
   0.83259571  0.16591182  0.49107382
   0.88829074  0.27752544  0.49220312
   0.99911989  0.33312308  0.49250443
   0.05472276  0.44482079  0.49273476
   0.16554611  0.33334708  0.49180215
   0.22031466  0.44483653  0.49237491
   0.33367449  0.33567531  0.49109410
   0.38687377  0.44569114  0.48914531
   0.50200639  0.33960542  0.50410640
   0.55948422  0.45193759  0.51378023
   0.66706113  0.33401311  0.49946949
   0.72381048  0.44538563  0.50209175
   0.83331638  0.33351445  0.49381002
   0.88929178  0.44479363  0.49452571
   0.99991668  0.50085525  0.49310736
   0.05570837  0.61263696  0.49262826
   0.16537218  0.50065479  0.49293526
   0.22087311  0.61198234  0.49217890
   0.33062377  0.50004621  0.48759564
   0.38698115  0.61281938  0.48512606
   0.67006294  0.50105398  0.50877360
   0.72595768  0.61274375  0.50834670
   0.83474920  0.50087763  0.49791403
   0.89021988  0.61161510  0.49770729
   0.00045522  0.66851009  0.49415599
   0.05540967  0.77953874  0.49353838
   0.16613512  0.66795961  0.49158729
   0.22155206  0.77928372  0.49117378
   0.33144612  0.66776739  0.48967611
   0.38812089  0.77898532  0.48777329
   0.49720266  0.66622152  0.48123490
   0.55395325  0.77610138  0.48509831
   0.66495470  0.66156329  0.51294795
   0.71933740  0.77263878  0.50106143
   0.83604379  0.66802129  0.50121361
   0.89033073  0.77881462  0.49826697
   0.00024380  0.83435331  0.49487959
   0.05518292  0.94449766  0.49331877
   0.16614222  0.83525228  0.49223181
   0.22283768  0.94657523  0.49264890
   0.33273989  0.83486470  0.48982173
   0.38864192  0.94604061  0.49074105
   0.49912151  0.83346577  0.48565285
   0.55483800  0.94482496  0.48780040
   0.66544048  0.83081013  0.49248489
   0.72068748  0.94194213  0.49055735
   0.83235876  0.83148071  0.49740515
   0.88731337  0.94309056  0.49340968
   0.51208471  0.55701185  0.53900591
   0.52170264  0.51627496  0.65764517
   0.52818321  0.49418235  0.73100356
 
 position of ions in cartesian coordinates  (Angst):
   7.42255920 12.73557113  7.39366438
  -0.00571730  1.41069494  7.38250010
   2.46459811  0.01119069  7.39381785
   2.46518236  1.43566081  7.39650611
   4.94004964  0.02498599  7.39221503
   4.94219360  1.44812852  7.42592240
   7.41620467  0.01243415  7.35307707
   7.41640909  1.43583596  7.38926981
   2.47176786 12.74448119  7.32790567
   9.90088138  1.40543851  7.35284837
   4.94896770 12.73623957  7.37808480
  12.37579810  1.40218365  7.36879011
  13.61324037  2.11106958  7.37744471
  -1.25130462  3.53805009  7.38475505
   1.22555513  2.13184992  7.38246514
   1.22643857  3.55445289  7.36140839
   3.70604694  2.16156455  7.42833448
   3.71129445  3.58645917  7.46244329
   6.17662768  2.15868384  7.43544290
   6.17409507  3.58496280  7.49957247
   8.66336921  2.12464371  7.38571222
   8.66389773  3.54616158  7.42735797
  11.14051749  2.11342618  7.36610725
  11.13885623  3.53715180  7.38304685
  12.37278338  4.24602291  7.38756638
  -2.49203288  5.67471423  7.39102147
  -0.01675483  4.25212536  7.37703230
  -0.03126209  5.67427051  7.38562364
   2.46452789  4.28117403  7.36641157
   2.43764949  5.68452506  7.33717961
   4.93693227  4.33065827  7.56159597
   4.95642634  5.76354407  7.70670340
   7.43139143  4.25867029  7.49204239
   7.44719016  5.67931593  7.53137622
   9.90584274  4.25166134  7.40715033
   9.91083321  5.67111916  7.41788559
  11.13827732  6.38591053  7.39661037
  -3.72435709  7.81567276  7.38942389
  -1.26253307  6.38660163  7.39402893
  -1.26495316  7.80667829  7.38268357
   1.19781937  6.37819423  7.31393464
   1.19738541  7.81671054  7.27689092
   6.23479112  6.38972986  7.63160404
   6.23553203  7.81442612  7.62520053
   8.68353047  6.38683899  7.46871049
   8.68504558  7.79938769  7.46560939
  -4.96065283  8.52870503  7.41233985
  -4.96897325  9.94497059  7.40307566
  -2.49436685  8.52103730  7.37380941
  -2.49800953  9.94107039  7.36760667
  -0.03622509  8.51794143  7.34514158
  -0.02038609  9.93661515  7.31659940
   2.43859613  8.49757444  7.21852346
   2.46550459  9.89917696  7.27647458
   4.96619951  8.43749268  7.69421920
   4.94903411  9.85435806  7.51592139
   7.46079515  8.51921653  7.51820418
   7.44430339  9.93248258  7.47400454
  -6.19610618 10.64449778  7.42319380
  -6.19808340 12.04948162  7.39978154
  -3.73734288 10.65532084  7.38347719
  -3.72197665 12.07533424  7.38973346
  -1.25862826 10.64972769  7.34732593
  -1.25396071 12.06786823  7.36111574
   1.22439056 10.63123284  7.28479272
   1.22493890 12.05171241  7.31700604
   3.71581655 10.59670531  7.38727339
   3.71107567 12.01428832  7.35836024
   6.19143303 10.60461074  7.46107725
   6.17879630 12.02829116  7.40114521
   3.47125185  7.10424314  8.08508863
   3.91688411  6.58449331  9.86467748
   4.17735384  6.30261536 10.96505339
 


--------------------------------------------------------------------------------------------------------


 k-point  1 :   0.0000 0.0000 0.0000  plane waves:   59585
 k-point  2 :   0.3333 0.0000 0.0000  plane waves:   59568
 k-point  3 :   0.0000 0.3333 0.0000  plane waves:   59622
 k-point  4 :   0.3333 0.3333 0.0000  plane waves:   59642
 k-point  5 :  -0.3333 0.3333 0.0000  plane waves:   59568

 maximum and minimum number of plane-waves per node :      4991     4927

 maximum number of plane-waves:     59642
 maximum index in each direction: 
   IXMAX=   25   IYMAX=   25   IZMAX=   25
   IXMIN=  -25   IYMIN=  -25   IZMIN=  -25


 parallel 3D FFT for wavefunctions:
    minimum data exchange during FFTs selected (reduces bandwidth)
 parallel 3D FFT for charge:
    minimum data exchange during FFTs selected (reduces bandwidth)


 total amount of memory used by VASP MPI-rank0   116147. kBytes
=======================================================================

   base      :      30000. kBytes
   nonl-proj :      27330. kBytes
   fftplans  :       4700. kBytes
   grid      :      15193. kBytes
   one-center:        217. kBytes
   wavefun   :      38707. kBytes
 
     INWAV:  cpu time    0.0000: real time    0.0000
 Broyden mixing: mesh for mixing (old mesh)
   NGX = 51   NGY = 51   NGZ = 51
  (NGX  =160   NGY  =160   NGZ  =160)
  gives a total of 132651 points

 initial charge density was supplied:
 charge density of overlapping atoms calculated
 number of electron     303.0000000 magnetization       2.0000000
 keeping initial charge density in first step


--------------------------------------------------------------------------------------------------------


 Maximum index for augmentation-charges          182 (set IRDMAX)


--------------------------------------------------------------------------------------------------------


 First call to EWALD:  gamma=   0.125
 Maximum number of real-space cells 3x 3x 3
 Maximum number of reciprocal cells 3x 3x 3

    FEWALD:  cpu time    0.0022: real time    0.0023


--------------------------------------- Iteration      1(   1)  ---------------------------------------


    POTLOK:  cpu time    0.2592: real time    0.2903
    SETDIJ:  cpu time    0.0090: real time    0.0092
     EDDAV:  cpu time   11.2192: real time   11.3209
 BZINTS: Fermi energy:  8.055514;303.000000 electrons
         Band energy:***********;  BLOECHL correction:  0.000000
       DOS:  cpu time    0.1050: real time    0.1051
    --------------------------------------------
      LOOP:  cpu time   11.5925: real time   11.7255

 eigenvalue-minimisations  :  4360
 total energy-change (2. order) : 0.2545025E+04  (-0.1118267E+05)
 number of electron     303.0000000 magnetization       2.0000000
 augmentation part      303.0000000 magnetization       2.0000000

 Free energy of the ion-electron system (eV)
  ---------------------------------------------------
  alpha Z        PSCENC =       167.23218672
  Ewald energy   TEWEN  =     30930.46454402
  -Hartree energ DENC   =    -40601.60750442
  -exchange      EXHF   =         0.00000000
  -V(xc)+E(xc)   XCENC  =      1023.24313410
  PAW double counting   =      9455.23336183    -9546.47664214
  entropy T*S    EENTRO =         0.00000000
  eigenvalues    EBANDS =     -1527.81756177
  atomic energy  EATOM  =     12644.75315347
  Solvation  Ediel_sol  =         0.00000000
  ---------------------------------------------------
  free energy    TOTEN  =      2545.02467180 eV

  energy without entropy =     2545.02467180  energy(sigma->0) =     2545.02467180


--------------------------------------------------------------------------------------------------------




--------------------------------------- Iteration      1(   2)  ---------------------------------------


     EDDAV:  cpu time   14.6263: real time   14.8846
 BZINTS: Fermi energy: -1.851932;303.000000 electrons
         Band energy:***********;  BLOECHL correction: -0.007561
       DOS:  cpu time    0.0110: real time    0.0110
    --------------------------------------------
      LOOP:  cpu time   14.6373: real time   14.8956

 eigenvalue-minimisations  :  5456
 total energy-change (2. order) :-0.2782451E+04  (-0.2654830E+04)
 number of electron     303.0000000 magnetization       2.0000000
 augmentation part      303.0000000 magnetization       2.0000000

 Free energy of the ion-electron system (eV)
  ---------------------------------------------------
  alpha Z        PSCENC =       167.23218672
  Ewald energy   TEWEN  =     30930.46454402
  -Hartree energ DENC   =    -40601.60750442
  -exchange      EXHF   =         0.00000000
  -V(xc)+E(xc)   XCENC  =      1023.24313410
  PAW double counting   =      9455.23336183    -9546.47664214
  entropy T*S    EENTRO =         0.00000000
  eigenvalues    EBANDS =     -4310.26826738
  atomic energy  EATOM  =     12644.75315347
  Solvation  Ediel_sol  =         0.00000000
  ---------------------------------------------------
  free energy    TOTEN  =      -237.42603380 eV

  energy without entropy =     -237.42603380  energy(sigma->0) =     -237.42603380


--------------------------------------------------------------------------------------------------------




--------------------------------------- Iteration      1(   3)  ---------------------------------------


     EDDAV:  cpu time   12.9315: real time   13.0375
 BZINTS: Fermi energy: -4.561401;303.000000 electrons
         Band energy:***********;  BLOECHL correction: -0.047970
       DOS:  cpu time    0.0110: real time    0.0111
    --------------------------------------------
      LOOP:  cpu time   12.9425: real time   13.0485

 eigenvalue-minimisations  :  4576
 total energy-change (2. order) :-0.4623881E+03  (-0.4582286E+03)
 number of electron     303.0000000 magnetization       2.0000000
 augmentation part      303.0000000 magnetization       2.0000000

 Free energy of the ion-electron system (eV)
  ---------------------------------------------------
  alpha Z        PSCENC =       167.23218672
  Ewald energy   TEWEN  =     30930.46454402
  -Hartree energ DENC   =    -40601.60750442
  -exchange      EXHF   =         0.00000000
  -V(xc)+E(xc)   XCENC  =      1023.24313410
  PAW double counting   =      9455.23336183    -9546.47664214
  entropy T*S    EENTRO =         0.00000000
  eigenvalues    EBANDS =     -4772.65639112
  atomic energy  EATOM  =     12644.75315347
  Solvation  Ediel_sol  =         0.00000000
  ---------------------------------------------------
  free energy    TOTEN  =      -699.81415754 eV

  energy without entropy =     -699.81415754  energy(sigma->0) =     -699.81415754


--------------------------------------------------------------------------------------------------------




--------------------------------------- Iteration      1(   4)  ---------------------------------------


     EDDAV:  cpu time   12.7689: real time   12.9739
 BZINTS: Fermi energy: -4.732249;303.000000 electrons
         Band energy:***********;  BLOECHL correction: -0.045790
       DOS:  cpu time    0.0115: real time    0.0115
    --------------------------------------------
      LOOP:  cpu time   12.7803: real time   12.9854

 eigenvalue-minimisations  :  4648
 total energy-change (2. order) :-0.1681731E+02  (-0.1667503E+02)
 number of electron     303.0000000 magnetization       2.0000000
 augmentation part      303.0000000 magnetization       2.0000000

 Free energy of the ion-electron system (eV)
  ---------------------------------------------------
  alpha Z        PSCENC =       167.23218672
  Ewald energy   TEWEN  =     30930.46454402
  -Hartree energ DENC   =    -40601.60750442
  -exchange      EXHF   =         0.00000000
  -V(xc)+E(xc)   XCENC  =      1023.24313410
  PAW double counting   =      9455.23336183    -9546.47664214
  entropy T*S    EENTRO =         0.00000000
  eigenvalues    EBANDS =     -4789.47369677
  atomic energy  EATOM  =     12644.75315347
  Solvation  Ediel_sol  =         0.00000000
  ---------------------------------------------------
  free energy    TOTEN  =      -716.63146319 eV

  energy without entropy =     -716.63146319  energy(sigma->0) =     -716.63146319


--------------------------------------------------------------------------------------------------------




--------------------------------------- Iteration      1(   5)  ---------------------------------------


     EDDAV:  cpu time   14.3046: real time   14.5630
 BZINTS: Fermi energy: -4.741942;303.000000 electrons
         Band energy:***********;  BLOECHL correction: -0.045718
       DOS:  cpu time    0.0108: real time    0.0108
    CHARGE:  cpu time    0.1657: real time    0.1724
    MIXING:  cpu time    0.0034: real time    0.0043
    --------------------------------------------
      LOOP:  cpu time   14.4846: real time   14.7504

 eigenvalue-minimisations  :  5264
 total energy-change (2. order) :-0.5522056E+00  (-0.5502565E+00)
 number of electron     302.9999985 magnetization       0.0684676
 augmentation part       12.4733795 magnetization       0.0882557

 Broyden mixing:
  rms(total) = 0.47989E+01    rms(broyden)= 0.47983E+01
  rms(prec ) = 0.54805E+01
  weight for this iteration     100.00

 Free energy of the ion-electron system (eV)
  ---------------------------------------------------
  alpha Z        PSCENC =       167.23218672
  Ewald energy   TEWEN  =     30930.46454402
  -Hartree energ DENC   =    -40601.60750442
  -exchange      EXHF   =         0.00000000
  -V(xc)+E(xc)   XCENC  =      1023.24313410
  PAW double counting   =      9455.23336183    -9546.47664214
  entropy T*S    EENTRO =         0.00000000
  eigenvalues    EBANDS =     -4790.02590240
  atomic energy  EATOM  =     12644.75315347
  Solvation  Ediel_sol  =         0.00000000
  ---------------------------------------------------
  free energy    TOTEN  =      -717.18366882 eV

  energy without entropy =     -717.18366882  energy(sigma->0) =     -717.18366882


--------------------------------------------------------------------------------------------------------




--------------------------------------- Iteration      1(   6)  ---------------------------------------


    POTLOK:  cpu time    0.1401: real time    0.1431
    SETDIJ:  cpu time    0.0088: real time    0.0088
     EDDAV:  cpu time   12.4253: real time   12.5763
 BZINTS: Fermi energy: -5.541495;303.000000 electrons
         Band energy:***********;  BLOECHL correction: -0.020664
       DOS:  cpu time    0.0114: real time    0.0114
    CHARGE:  cpu time    0.2028: real time    0.2086
    MIXING:  cpu time    0.0037: real time    0.0041
    --------------------------------------------
      LOOP:  cpu time   12.7920: real time   12.9523

 eigenvalue-minimisations  :  4768
 total energy-change (2. order) : 0.6056943E+01  (-0.7042856E+01)
 number of electron     302.9999982 magnetization       0.0495764
 augmentation part       17.8327009 magnetization       0.0712463

 Broyden mixing:
  rms(total) = 0.72032E+01    rms(broyden)= 0.72029E+01
  rms(prec ) = 0.82338E+01
  weight for this iteration     100.00

 eigenvalues of (default mixing * dielectric matrix)
  average eigenvalue GAMMA=   0.2802
  0.2802

 Free energy of the ion-electron system (eV)
  ---------------------------------------------------
  alpha Z        PSCENC =       167.23218672
  Ewald energy   TEWEN  =     30930.46454402
  -Hartree energ DENC   =    -40960.61886177
  -exchange      EXHF   =         0.00000000
  -V(xc)+E(xc)   XCENC  =      1035.84087318
  PAW double counting   =     13271.14403656   -13362.74359375
  entropy T*S    EENTRO =         0.00000000
  eigenvalues    EBANDS =     -4437.19906393
  atomic energy  EATOM  =     12644.75315347
  Solvation  Ediel_sol  =         0.00000000
  ---------------------------------------------------
  free energy    TOTEN  =      -711.12672550 eV

  energy without entropy =     -711.12672550  energy(sigma->0) =     -711.12672550


--------------------------------------------------------------------------------------------------------




--------------------------------------- Iteration      1(   7)  ---------------------------------------


    POTLOK:  cpu time    0.1369: real time    0.1429
    SETDIJ:  cpu time    0.0088: real time    0.0088
     EDDAV:  cpu time   13.5446: real time   13.6669
 BZINTS: Fermi energy: -4.022270;303.000000 electrons
         Band energy:***********;  BLOECHL correction: -0.004532
       DOS:  cpu time    0.0117: real time    0.0118
    CHARGE:  cpu time    0.1671: real time    0.1715
    MIXING:  cpu time    0.0036: real time    0.0038
    --------------------------------------------
      LOOP:  cpu time   13.8729: real time   14.0056

 eigenvalue-minimisations  :  5296
 total energy-change (2. order) : 0.3574034E+02  (-0.7642453E+01)
 number of electron     302.9999988 magnetization       0.7567079
 augmentation part       13.9744926 magnetization       0.3156618

 Broyden mixing:
  rms(total) = 0.25365E+01    rms(broyden)= 0.25360E+01
  rms(prec ) = 0.27708E+01
  weight for this iteration     100.00

 eigenvalues of (default mixing * dielectric matrix)
  average eigenvalue GAMMA=   0.7482
  1.2144  0.2821

 Free energy of the ion-electron system (eV)
  ---------------------------------------------------
  alpha Z        PSCENC =       167.23218672
  Ewald energy   TEWEN  =     30930.46454402
  -Hartree energ DENC   =    -41113.38732505
  -exchange      EXHF   =         0.00000000
  -V(xc)+E(xc)   XCENC  =      1040.17402739
  PAW double counting   =     14448.57533710   -14544.48264861
  entropy T*S    EENTRO =         0.00000000
  eigenvalues    EBANDS =     -4248.71565905
  atomic energy  EATOM  =     12644.75315347
  Solvation  Ediel_sol  =         0.00000000
  ---------------------------------------------------
  free energy    TOTEN  =      -675.38638401 eV

  energy without entropy =     -675.38638401  energy(sigma->0) =     -675.38638401


--------------------------------------------------------------------------------------------------------




--------------------------------------- Iteration      1(   8)  ---------------------------------------


    POTLOK:  cpu time    0.1329: real time    0.1351
    SETDIJ:  cpu time    0.0088: real time    0.0088
     EDDAV:  cpu time   12.3902: real time   12.5088
 BZINTS: Fermi energy: -2.477406;303.000000 electrons
         Band energy:***********;  BLOECHL correction: -0.035485
       DOS:  cpu time    0.0117: real time    0.0118
    CHARGE:  cpu time    0.1658: real time    0.1677
    MIXING:  cpu time    0.0033: real time    0.0033
    --------------------------------------------
      LOOP:  cpu time   12.7127: real time   12.8355

 eigenvalue-minimisations  :  4776
 total energy-change (2. order) : 0.6831363E+01  (-0.3053838E+01)
 number of electron     302.9999985 magnetization       0.5325695
 augmentation part       12.5121457 magnetization       0.2553030

 Broyden mixing:
  rms(total) = 0.22411E+01    rms(broyden)= 0.22409E+01
  rms(prec ) = 0.25878E+01
  weight for this iteration     100.00

 eigenvalues of (default mixing * dielectric matrix)
  average eigenvalue GAMMA=   1.2291
  2.8113  0.3141  0.5619

 Free energy of the ion-electron system (eV)
  ---------------------------------------------------
  alpha Z        PSCENC =       167.23218672
  Ewald energy   TEWEN  =     30930.46454402
  -Hartree energ DENC   =    -41434.99200557
  -exchange      EXHF   =         0.00000000
  -V(xc)+E(xc)   XCENC  =      1051.50558240
  PAW double counting   =     18881.45789230   -18980.80998697
  entropy T*S    EENTRO =         0.00000000
  eigenvalues    EBANDS =     -3928.16638692
  atomic energy  EATOM  =     12644.75315347
  Solvation  Ediel_sol  =         0.00000000
  ---------------------------------------------------
  free energy    TOTEN  =      -668.55502057 eV

  energy without entropy =     -668.55502057  energy(sigma->0) =     -668.55502057


--------------------------------------------------------------------------------------------------------




--------------------------------------- Iteration      1(   9)  ---------------------------------------


    POTLOK:  cpu time    0.1894: real time    0.1924
    SETDIJ:  cpu time    0.0107: real time    0.0107
     EDDAV:  cpu time   12.4151: real time   12.6308
 BZINTS: Fermi energy: -2.696748;303.000000 electrons
         Band energy:***********;  BLOECHL correction: -0.056359
       DOS:  cpu time    0.0112: real time    0.0112
    CHARGE:  cpu time    0.1640: real time    0.1651
    MIXING:  cpu time    0.0036: real time    0.0037
    --------------------------------------------
      LOOP:  cpu time   12.7940: real time   13.0140

 eigenvalue-minimisations  :  4656
 total energy-change (2. order) : 0.3770416E+01  (-0.2189261E+01)
 number of electron     302.9999985 magnetization       0.2335180
 augmentation part       14.3811557 magnetization      -0.0061603

 Broyden mixing:
  rms(total) = 0.15074E+01    rms(broyden)= 0.15066E+01
  rms(prec ) = 0.18493E+01
  weight for this iteration     100.00

 eigenvalues of (default mixing * dielectric matrix)
  average eigenvalue GAMMA=   1.2096
  3.1343  0.9896  0.3574  0.3574

 Free energy of the ion-electron system (eV)
  ---------------------------------------------------
  alpha Z        PSCENC =       167.23218672
  Ewald energy   TEWEN  =     30930.46454402
  -Hartree energ DENC   =    -41821.40290554
  -exchange      EXHF   =         0.00000000
  -V(xc)+E(xc)   XCENC  =      1065.78421485
  PAW double counting   =     26585.20693542   -26687.77462745
  entropy T*S    EENTRO =         0.00000000
  eigenvalues    EBANDS =     -3549.04810594
  atomic energy  EATOM  =     12644.75315347
  Solvation  Ediel_sol  =         0.00000000
  ---------------------------------------------------
  free energy    TOTEN  =      -664.78460445 eV

  energy without entropy =     -664.78460445  energy(sigma->0) =     -664.78460445


--------------------------------------------------------------------------------------------------------




--------------------------------------- Iteration      1(  10)  ---------------------------------------


    POTLOK:  cpu time    0.1334: real time    0.1364
    SETDIJ:  cpu time    0.0100: real time    0.0100
     EDDAV:  cpu time   13.5396: real time   13.6382
 BZINTS: Fermi energy: -1.974274;303.000000 electrons
         Band energy:***********;  BLOECHL correction: -0.000963
       DOS:  cpu time    0.0116: real time    0.0117
    CHARGE:  cpu time    0.1646: real time    0.1653
    MIXING:  cpu time    0.0038: real time    0.0038
    --------------------------------------------
      LOOP:  cpu time   13.8631: real time   13.9654

 eigenvalue-minimisations  :  5304
 total energy-change (2. order) : 0.1340695E+01  (-0.8232524E+00)
 number of electron     302.9999988 magnetization       0.8415956
 augmentation part       13.0276022 magnetization       0.1188481

 Broyden mixing:
  rms(total) = 0.75765E+00    rms(broyden)= 0.75711E+00
  rms(prec ) = 0.82504E+00
  weight for this iteration     100.00

 eigenvalues of (default mixing * dielectric matrix)
  average eigenvalue GAMMA=   1.2440
  3.4780  1.4568  0.6047  0.3402  0.3402

 Free energy of the ion-electron system (eV)
  ---------------------------------------------------
  alpha Z        PSCENC =       167.23218672
  Ewald energy   TEWEN  =     30930.46454402
  -Hartree energ DENC   =    -41834.64949952
  -exchange      EXHF   =         0.00000000
  -V(xc)+E(xc)   XCENC  =      1066.22498232
  PAW double counting   =     28356.70981469   -28459.51495227
  entropy T*S    EENTRO =         0.00000000
  eigenvalues    EBANDS =     -3534.66413859
  atomic energy  EATOM  =     12644.75315347
  Solvation  Ediel_sol  =         0.00000000
  ---------------------------------------------------
  free energy    TOTEN  =      -663.44390916 eV

  energy without entropy =     -663.44390916  energy(sigma->0) =     -663.44390916


--------------------------------------------------------------------------------------------------------




--------------------------------------- Iteration      1(  11)  ---------------------------------------


    POTLOK:  cpu time    0.1704: real time    0.1733
    SETDIJ:  cpu time    0.0109: real time    0.0110
     EDDAV:  cpu time   12.3886: real time   12.5343
 BZINTS: Fermi energy: -2.071393;303.000000 electrons
         Band energy:***********;  BLOECHL correction:  0.000000
       DOS:  cpu time    0.0046: real time    0.0046
    CHARGE:  cpu time    0.1822: real time    0.1856
    MIXING:  cpu time    0.0035: real time    0.0036
    --------------------------------------------
      LOOP:  cpu time   12.7602: real time   12.9124

 eigenvalue-minimisations  :  4856
 total energy-change (2. order) : 0.4838484E-01  (-0.1100224E+00)
 number of electron     302.9999986 magnetization       1.0271903
 augmentation part       13.1036604 magnetization       0.4077984

 Broyden mixing:
  rms(total) = 0.54097E+00    rms(broyden)= 0.54083E+00
  rms(prec ) = 0.60718E+00
  weight for this iteration     100.00

 eigenvalues of (default mixing * dielectric matrix)
  average eigenvalue GAMMA=   1.2632
  3.5553  1.8909  0.7141  0.7141  0.3522  0.3522

 Free energy of the ion-electron system (eV)
  ---------------------------------------------------
  alpha Z        PSCENC =       167.23218672
  Ewald energy   TEWEN  =     30930.46454402
  -Hartree energ DENC   =    -41806.69657916
  -exchange      EXHF   =         0.00000000
  -V(xc)+E(xc)   XCENC  =      1065.75363659
  PAW double counting   =     30048.87831225   -30151.21954427
  entropy T*S    EENTRO =         0.00000000
  eigenvalues    EBANDS =     -3562.56123393
  atomic energy  EATOM  =     12644.75315347
  Solvation  Ediel_sol  =         0.00000000
  ---------------------------------------------------
  free energy    TOTEN  =      -663.39552432 eV

  energy without entropy =     -663.39552432  energy(sigma->0) =     -663.39552432


--------------------------------------------------------------------------------------------------------




--------------------------------------- Iteration      1(  12)  ---------------------------------------


    POTLOK:  cpu time    0.1335: real time    0.1364
    SETDIJ:  cpu time    0.0090: real time    0.0098
     EDDAV:  cpu time   12.2461: real time   12.3506
 BZINTS: Fermi energy: -2.257054;303.000000 electrons
         Band energy:***********;  BLOECHL correction:  0.000000
       DOS:  cpu time    0.0064: real time    0.0066
    CHARGE:  cpu time    0.1601: real time    0.1617
    MIXING:  cpu time    0.0040: real time    0.0040
    --------------------------------------------
      LOOP:  cpu time   12.5591: real time   12.6692

 eigenvalue-minimisations  :  4664
 total energy-change (2. order) : 0.1418870E+00  (-0.4888740E-01)
 number of electron     302.9999986 magnetization       1.0138019
 augmentation part       13.3151984 magnetization       0.5232087

 Broyden mixing:
  rms(total) = 0.28247E+00    rms(broyden)= 0.28233E+00
  rms(prec ) = 0.28933E+00
  weight for this iteration     100.00

 eigenvalues of (default mixing * dielectric matrix)
  average eigenvalue GAMMA=   1.3555
  3.8095  2.4446  0.8551  0.8551  0.8205  0.3520  0.3520

 Free energy of the ion-electron system (eV)
  ---------------------------------------------------
  alpha Z        PSCENC =       167.23218672
  Ewald energy   TEWEN  =     30930.46454402
  -Hartree energ DENC   =    -41755.00712505
  -exchange      EXHF   =         0.00000000
  -V(xc)+E(xc)   XCENC  =      1064.24401855
  PAW double counting   =     31334.44091442   -31436.09556687
  entropy T*S    EENTRO =         0.00000000
  eigenvalues    EBANDS =     -3613.28576253
  atomic energy  EATOM  =     12644.75315347
  Solvation  Ediel_sol  =         0.00000000
  ---------------------------------------------------
  free energy    TOTEN  =      -663.25363728 eV

  energy without entropy =     -663.25363728  energy(sigma->0) =     -663.25363728


--------------------------------------------------------------------------------------------------------




--------------------------------------- Iteration      1(  13)  ---------------------------------------


    POTLOK:  cpu time    0.1462: real time    0.1482
    SETDIJ:  cpu time    0.0105: real time    0.0105
     EDDAV:  cpu time   12.5213: real time   12.6348
 BZINTS: Fermi energy: -2.317074;303.000000 electrons
         Band energy:***********;  BLOECHL correction:  0.000000
       DOS:  cpu time    0.0066: real time    0.0066
    CHARGE:  cpu time    0.1590: real time    0.1603
    MIXING:  cpu time    0.0492: real time    0.0498
    --------------------------------------------
      LOOP:  cpu time   12.8928: real time   13.0102

 eigenvalue-minimisations  :  4776
 total energy-change (2. order) :-0.1606564E-01  (-0.1956568E-01)
 number of electron     302.9999986 magnetization       0.9790741
 augmentation part       13.4191176 magnetization       0.5536902

 Broyden mixing:
  rms(total) = 0.20989E+00    rms(broyden)= 0.20982E+00
  rms(prec ) = 0.21706E+00
  weight for this iteration     100.00

 eigenvalues of (default mixing * dielectric matrix)
  average eigenvalue GAMMA=   1.3722
  3.7529  2.1123  1.9169  0.9787  0.7567  0.7567  0.3517  0.3517

 Free energy of the ion-electron system (eV)
  ---------------------------------------------------
  alpha Z        PSCENC =       167.23218672
  Ewald energy   TEWEN  =     30930.46454402
  -Hartree energ DENC   =    -41737.68341282
  -exchange      EXHF   =         0.00000000
  -V(xc)+E(xc)   XCENC  =      1063.72708341
  PAW double counting   =     31885.99605251   -31987.35825713
  entropy T*S    EENTRO =         0.00000000
  eigenvalues    EBANDS =     -3630.40105308
  atomic energy  EATOM  =     12644.75315347
  Solvation  Ediel_sol  =         0.00000000
  ---------------------------------------------------
  free energy    TOTEN  =      -663.26970291 eV

  energy without entropy =     -663.26970291  energy(sigma->0) =     -663.26970291


--------------------------------------------------------------------------------------------------------




--------------------------------------- Iteration      1(  14)  ---------------------------------------


    POTLOK:  cpu time    0.1438: real time    0.1464
    SETDIJ:  cpu time    0.0085: real time    0.0089
     EDDAV:  cpu time   11.7423: real time   11.8356
 BZINTS: Fermi energy: -2.297072;303.000000 electrons
         Band energy:***********;  BLOECHL correction:  0.000000
       DOS:  cpu time    0.0071: real time    0.0074
    CHARGE:  cpu time    0.1600: real time    0.1605
    MIXING:  cpu time    0.0041: real time    0.0042
    --------------------------------------------
      LOOP:  cpu time   12.0658: real time   12.1629

 eigenvalue-minimisations  :  4384
 total energy-change (2. order) :-0.4157083E-02  (-0.3969727E-02)
 number of electron     302.9999986 magnetization       0.9891524
 augmentation part       13.4116284 magnetization       0.5741025

 Broyden mixing:
  rms(total) = 0.17226E+00    rms(broyden)= 0.17224E+00
  rms(prec ) = 0.18105E+00
  weight for this iteration     100.00

 eigenvalues of (default mixing * dielectric matrix)
  average eigenvalue GAMMA=   1.3693
  3.6878  2.5190  2.0434  0.3518  0.3518  0.8092  0.8092  0.8757  0.8757

 Free energy of the ion-electron system (eV)
  ---------------------------------------------------
  alpha Z        PSCENC =       167.23218672
  Ewald energy   TEWEN  =     30930.46454402
  -Hartree energ DENC   =    -41745.47240143
  -exchange      EXHF   =         0.00000000
  -V(xc)+E(xc)   XCENC  =      1063.97488196
  PAW double counting   =     31837.65818759   -31939.05651069
  entropy T*S    EENTRO =         0.00000000
  eigenvalues    EBANDS =     -3622.82790162
  atomic energy  EATOM  =     12644.75315347
  Solvation  Ediel_sol  =         0.00000000
  ---------------------------------------------------
  free energy    TOTEN  =      -663.27386000 eV

  energy without entropy =     -663.27386000  energy(sigma->0) =     -663.27386000


--------------------------------------------------------------------------------------------------------




--------------------------------------- Iteration      1(  15)  ---------------------------------------


    POTLOK:  cpu time    0.1352: real time    0.1377
    SETDIJ:  cpu time    0.0102: real time    0.0102
     EDDAV:  cpu time   12.8019: real time   12.9000
 BZINTS: Fermi energy: -2.297069;303.000000 electrons
         Band energy:***********;  BLOECHL correction:  0.000000
       DOS:  cpu time    0.0064: real time    0.0065
    CHARGE:  cpu time    0.1591: real time    0.1598
    MIXING:  cpu time    0.0040: real time    0.0040
    --------------------------------------------
      LOOP:  cpu time   13.1167: real time   13.2181

 eigenvalue-minimisations  :  4896
 total energy-change (2. order) : 0.1385757E-02  (-0.5874373E-03)
 number of electron     302.9999986 magnetization       1.0084461
 augmentation part       13.4007268 magnetization       0.6103855

 Broyden mixing:
  rms(total) = 0.12749E+00    rms(broyden)= 0.12748E+00
  rms(prec ) = 0.13475E+00
  weight for this iteration     100.00

 eigenvalues of (default mixing * dielectric matrix)
  average eigenvalue GAMMA=   1.3679
  3.7122  2.7685  1.5951  1.5951  0.3517  0.3517  0.8071  0.8071  0.9057  0.7843

 Free energy of the ion-electron system (eV)
  ---------------------------------------------------
  alpha Z        PSCENC =       167.23218672
  Ewald energy   TEWEN  =     30930.46454402
  -Hartree energ DENC   =    -41744.76112953
  -exchange      EXHF   =         0.00000000
  -V(xc)+E(xc)   XCENC  =      1063.94750581
  PAW double counting   =     31827.32804468   -31928.65307509
  entropy T*S    EENTRO =         0.00000000
  eigenvalues    EBANDS =     -3623.58370433
  atomic energy  EATOM  =     12644.75315347
  Solvation  Ediel_sol  =         0.00000000
  ---------------------------------------------------
  free energy    TOTEN  =      -663.27247424 eV

  energy without entropy =     -663.27247424  energy(sigma->0) =     -663.27247424


--------------------------------------------------------------------------------------------------------




--------------------------------------- Iteration      1(  16)  ---------------------------------------


    POTLOK:  cpu time    0.1349: real time    0.1370
    SETDIJ:  cpu time    0.0105: real time    0.0105
     EDDAV:  cpu time   12.7525: real time   12.8327
 BZINTS: Fermi energy: -2.297065;303.000000 electrons
         Band energy:***********;  BLOECHL correction:  0.000000
       DOS:  cpu time    0.0063: real time    0.0063
    CHARGE:  cpu time    0.2115: real time    0.2160
    MIXING:  cpu time    0.0045: real time    0.0047
    --------------------------------------------
      LOOP:  cpu time   13.1201: real time   13.2072

 eigenvalue-minimisations  :  4888
 total energy-change (2. order) : 0.1646578E-02  (-0.4770048E-03)
 number of electron     302.9999986 magnetization       1.0043797
 augmentation part       13.3853230 magnetization       0.6153303

 Broyden mixing:
  rms(total) = 0.90217E-01    rms(broyden)= 0.90211E-01
  rms(prec ) = 0.93496E-01
  weight for this iteration     100.00

 eigenvalues of (default mixing * dielectric matrix)
  average eigenvalue GAMMA=   1.3960
  3.6906  2.5816  2.0760  2.0760  0.3517  0.3517  0.9209  0.9209  0.8760  0.7553
  0.7553

 Free energy of the ion-electron system (eV)
  ---------------------------------------------------
  alpha Z        PSCENC =       167.23218672
  Ewald energy   TEWEN  =     30930.46454402
  -Hartree energ DENC   =    -41743.46146408
  -exchange      EXHF   =         0.00000000
  -V(xc)+E(xc)   XCENC  =      1063.91244995
  PAW double counting   =     31852.57975944   -31953.82678113
  entropy T*S    EENTRO =         0.00000000
  eigenvalues    EBANDS =     -3624.92467604
  atomic energy  EATOM  =     12644.75315347
  Solvation  Ediel_sol  =         0.00000000
  ---------------------------------------------------
  free energy    TOTEN  =      -663.27082766 eV

[...]
   0.156E+02 -.336E+01 0.497E+01   -.154E+02 0.334E+01 -.475E+01   -.188E+00 0.925E-01 -.255E+00   -.708E-02 -.894E-03 -.790E-02
   0.561E+02 0.152E+02 0.709E+02   -.561E+02 -.158E+02 -.728E+02   0.117E+00 0.641E+00 0.192E+01   -.593E-01 -.461E-01 -.409E-01
   0.534E+02 -.206E+02 0.746E+02   -.530E+02 0.215E+02 -.761E+02   -.259E+00 -.101E+01 0.155E+01   -.734E-01 0.181E-01 -.453E-01
   -.436E+02 0.142E+02 0.110E+02   0.423E+02 -.145E+02 -.107E+02   0.122E+01 0.284E+00 -.305E+00   0.439E-01 -.232E-01 -.272E-01
   -.398E+02 -.204E+02 0.503E+01   0.378E+02 0.202E+02 -.458E+01   0.196E+01 0.129E+00 -.430E+00   0.547E-01 0.186E-01 -.275E-01
   -.159E+02 0.708E+01 0.921E+01   0.157E+02 -.764E+01 -.921E+01   0.270E+00 0.495E+00 0.102E-01   0.313E-02 0.768E-02 -.478E-02
   -.148E+02 0.327E+01 0.826E+01   0.145E+02 -.411E+01 -.823E+01   0.243E+00 0.877E+00 -.315E-01   0.541E-02 0.775E-02 -.483E-02
   -.136E+02 0.476E+01 0.110E+02   0.138E+02 -.621E+01 -.111E+02   -.158E+00 0.139E+01 0.625E-01   -.356E-02 0.104E-01 -.267E-02
   -.270E+02 0.770E+01 0.978E+01   0.322E+02 -.108E+02 -.987E+01   -.531E+01 0.314E+01 0.122E+00   -.594E-02 0.576E-02 -.235E-02
   0.309E+01 -.218E+01 0.104E+02   -.287E+01 0.202E+01 -.104E+02   -.261E+00 0.143E+00 0.730E-01   -.575E-02 0.433E-02 -.347E-02
   0.928E+00 -.522E+01 0.949E+01   -.320E+00 0.495E+01 -.948E+01   -.605E+00 0.238E+00 -.134E-01   -.102E-01 0.288E-02 -.286E-02
   0.246E+02 -.123E+02 0.163E+02   -.244E+02 0.122E+02 -.160E+02   -.236E+00 0.112E+00 -.297E+00   -.181E-01 -.270E-03 -.150E-01
   0.126E+02 -.161E+02 0.230E+02   -.122E+02 0.161E+02 -.232E+02   -.401E+00 0.141E-01 0.110E+00   -.144E-01 0.134E-02 -.826E-02
   -.403E+01 -.577E+02 0.151E+03   0.117E+02 0.542E+02 -.152E+03   -.757E+01 0.343E+01 0.145E+01   -.861E-01 0.106E+00 -.948E-01
   0.365E+01 -.386E+02 0.590E+02   -.334E+01 0.379E+02 -.590E+02   -.259E+00 0.777E+00 0.160E-01   -.148E-01 0.250E-01 -.267E-01
   -.979E+01 -.531E+02 -.369E+01   0.289E+01 0.485E+02 0.554E+01   0.679E+01 0.448E+01 -.179E+01   0.112E+00 0.952E-01 -.568E-01
   -.418E+01 -.323E+02 0.728E+01   0.330E+01 0.304E+02 -.730E+01   0.810E+00 0.194E+01 0.244E-01   0.294E-01 0.229E-01 -.181E-01
   -.162E+02 -.396E+01 0.572E+01   0.153E+02 0.225E+01 -.579E+01   0.949E+00 0.169E+01 0.841E-01   0.172E-01 0.638E-02 -.900E-02
   0.120E+02 -.282E+01 0.306E+01   -.175E+02 -.479E+00 -.269E+01   0.563E+01 0.333E+01 -.388E+00   0.182E-01 0.699E-02 -.596E-02
   -.693E+01 -.594E+01 0.907E+01   0.666E+01 0.559E+01 -.911E+01   0.289E+00 0.336E+00 0.458E-01   0.113E-01 -.454E-03 -.403E-02
   -.322E+01 -.301E+02 0.951E+01   0.312E+01 0.363E+02 -.960E+01   0.755E-01 -.621E+01 0.117E+00   0.679E-02 -.944E-02 -.240E-02
   -.106E+02 -.148E+00 0.888E+01   0.119E+02 0.603E+00 -.891E+01   -.127E+01 -.433E+00 0.224E-01   -.981E-02 0.219E-02 -.209E-02
   -.677E+01 -.300E+01 0.735E+01   0.747E+01 0.344E+01 -.734E+01   -.740E+00 -.506E+00 0.414E-02   -.777E-02 -.280E-02 -.226E-02
   0.417E+01 -.394E+01 0.125E+02   -.386E+01 0.400E+01 -.125E+02   -.335E+00 -.454E-01 -.763E-03   -.115E-01 -.609E-03 -.370E-02
   0.652E+00 -.400E+01 0.109E+02   -.437E+00 0.404E+01 -.109E+02   -.187E+00 -.336E-01 0.210E-01   -.105E-01 -.165E-02 -.283E-02
   0.572E+01 -.169E+02 0.356E+02   -.517E+01 0.167E+02 -.357E+02   -.513E+00 0.153E+00 0.107E+00   -.122E-01 0.576E-02 -.101E-01
   0.371E+01 -.116E+02 0.210E+02   -.364E+01 0.115E+02 -.210E+02   -.769E-01 0.887E-01 0.434E-02   -.470E-02 0.490E-02 -.481E-02
   -.300E+01 -.209E+02 0.222E+02   0.312E+01 0.200E+02 -.220E+02   -.675E-01 0.865E+00 -.238E+00   0.756E-02 0.244E-01 -.160E-01
   0.220E+01 -.157E+02 0.174E+02   -.232E+01 0.153E+02 -.174E+02   0.111E+00 0.554E+00 0.143E-01   0.541E-02 0.803E-02 -.645E-02
   0.736E+01 -.139E+02 0.796E+01   -.950E+01 0.138E+02 -.803E+01   0.205E+01 0.127E+00 0.751E-01   0.187E-01 0.676E-02 -.712E-02
   0.343E+01 -.120E+02 0.123E+02   -.428E+01 0.121E+02 -.124E+02   0.864E+00 -.992E-01 0.140E+00   0.109E-01 0.154E-02 -.382E-02
   0.517E+02 -.904E+02 -.278E+03   -.421E+02 0.886E+02 0.271E+03   -.967E+01 0.185E+01 0.708E+01   -.741E-02 -.607E-01 -.231E+00
   0.295E+02 -.168E+02 -.269E+03   -.342E+02 0.220E+02 0.251E+03   0.478E+01 -.512E+01 0.179E+02   0.388E-01 -.535E-01 0.140E+00
   -.511E+02 0.662E+02 -.683E+03   0.642E+02 -.803E+02 0.738E+03   -.131E+02 0.142E+02 -.555E+02   0.241E-01 -.310E-01 0.793E-01
 -----------------------------------------------------------------------------------------------
   0.159E+02 -.124E+02 0.302E+02   0.199E-12 -.114E-12 0.455E-12   -.159E+02 0.126E+02 -.294E+02   0.542E-01 -.122E+00 -.854E+00
 
 
 POSITION                                       TOTAL-FORCE (eV/Angst)
 -----------------------------------------------------------------------------------
      7.42256     12.73557      7.39366        -0.018132      0.024074     -0.005318
     -0.00572      1.41069      7.38250         0.027359      0.009944      0.015161
      2.46460      0.01119      7.39382         0.066490     -0.068959      0.004172
      2.46518      1.43566      7.39651        -0.026384      0.050043     -0.022890
      4.94005      0.02499      7.39222         0.021468     -0.016530     -0.008777
      4.94219      1.44813      7.42592        -0.051690      0.030026     -0.015875
      7.41620      0.01243      7.35308         0.051484     -0.019350     -0.001053
      7.41641      1.43584      7.38927        -0.006339      0.002820      0.011462
      2.47177     12.74448      7.32791        -0.018553     -0.102884      0.013115
      9.90088      1.40544      7.35285         0.008482      0.045717      0.016480
      4.94897     12.73624      7.37808        -0.088557     -0.066789      0.005407
     12.37580      1.40218      7.36879         0.005256      0.015104      0.011418
     13.61324      2.11107      7.37744         0.005441      0.019122      0.000791
     -1.25130      3.53805      7.38476         0.039665      0.022595     -0.046755
      1.22556      2.13185      7.38247        -0.003933      0.003541     -0.005895
      1.22644      3.55445      7.36141        -0.025253      0.061785     -0.013057
      3.70605      2.16156      7.42833         0.013062     -0.068220      0.007366
      3.71129      3.58646      7.46244        -0.008287      0.014442     -0.017378
      6.17663      2.15868      7.43544         0.023856     -0.007197     -0.003780
      6.17410      3.58496      7.49957         0.022831      0.070818     -0.019312
      8.66337      2.12464      7.38571        -0.021904      0.000798      0.002238
      8.66390      3.54616      7.42736        -0.055816      0.012698     -0.005507
     11.14052      2.11343      7.36611         0.020129      0.058094      0.002359
     11.13886      3.53715      7.38305         0.003517     -0.038758      0.011104
     12.37278      4.24602      7.38757         0.021392      0.017266     -0.002279
     -2.49203      5.67471      7.39102         0.036522      0.013445      0.003611
     -0.01675      4.25213      7.37703        -0.040211     -0.004857     -0.000915
     -0.03126      5.67427      7.38562        -0.019837     -0.075499     -0.003342
      2.46453      4.28117      7.36641        -0.018454     -0.083538      0.006393
      2.43765      5.68453      7.33718         0.010907      0.017596     -0.019216
      4.93693      4.33066      7.56160         0.007967     -0.041280     -0.020364
      4.95643      5.76354      7.70670         0.010901     -0.034090      0.010374
      7.43139      4.25867      7.49204         0.062755      0.003505      0.015442
      7.44719      5.67932      7.53138        -0.045848     -0.043405     -0.024871
      9.90584      4.25166      7.40715        -0.017981     -0.025214      0.009015
      9.91083      5.67112      7.41789        -0.001158      0.037666      0.030427
     11.13828      6.38591      7.39661        -0.002742      0.033819     -0.007661
     -3.72436      7.81567      7.38942         0.032707     -0.003548      0.023967
     -1.26253      6.38660      7.39403        -0.065001     -0.072005     -0.010658
     -1.26495      7.80668      7.38268         0.013031      0.064877     -0.043774
      1.19782      6.37819      7.31393        -0.030290     -0.040019      0.004676
      1.19739      7.81671      7.27689        -0.039415      0.011966      0.028967
      6.23479      6.38973      7.63160         0.052698      0.020205     -0.036542
      6.23553      7.81443      7.62520         0.019937     -0.007825     -0.006426
      8.68353      6.38684      7.46871         0.003465     -0.059803      0.007263
      8.68505      7.79939      7.46561        -0.030265      0.043555     -0.005581
     -4.96065      8.52871      7.41234         0.018058     -0.049347      0.006060
     -4.96897      9.94497      7.40308        -0.024362      0.059668      0.024499
     -2.49437      8.52104      7.37381        -0.049573     -0.015353      0.030301
     -2.49801      9.94107      7.36761        -0.005167     -0.033782     -0.002131
     -0.03623      8.51794      7.34514        -0.008777      0.050608     -0.005823
     -0.02039      9.93662      7.31660        -0.061554     -0.000209     -0.010302
      2.43860      8.49757      7.21852         0.001455     -0.005379     -0.038897
      2.46550      9.89918      7.27647         0.047586      0.059259      0.003286
      4.96620      8.43749      7.69422        -0.012994     -0.039494      0.006262
      4.94903      9.85436      7.51592        -0.053588      0.032272     -0.015431
      7.46080      8.51922      7.51820         0.011659     -0.005595      0.002238
      7.44430      9.93248      7.47400         0.067659      0.032265     -0.018647
     -6.19611     10.64450      7.42319         0.029154     -0.012380      0.000217
     -6.19808     12.04948      7.39978        -0.014662     -0.013927      0.023066
     -3.73734     10.65532      7.38348         0.046268      0.023006     -0.009192
     -3.72198     12.07533      7.38973        -0.042024     -0.071048      0.006607
     -1.25863     10.64973      7.34733        -0.033062      0.021583     -0.018166
     -1.25396     12.06787      7.36112         0.018633      0.008022      0.008940
      1.22439     10.63123      7.28479         0.030564     -0.011759      0.003611
      1.22494     12.05171      7.31701        -0.012230      0.002251      0.011625
      3.71582     10.59671      7.38727         0.051260      0.047088     -0.008130
      3.71108     12.01429      7.35836        -0.003992      0.067257      0.008472
      6.19143     10.60461      7.46108        -0.073869      0.006173     -0.008195
      6.17880     12.02829      7.40115         0.019769     -0.001556      0.018942
      3.47125      7.10424      8.08509         0.003725      0.042217      0.103583
      3.91688      6.58449      9.86468         0.093898     -0.008952      0.028286
      4.17735      6.30262     10.96505         0.010889     -0.008638     -0.045062
 -----------------------------------------------------------------------------------
    total drift:                               -0.011451      0.005010      0.020934


--------------------------------------------------------------------------------------------------------



  FREE ENERGIE OF THE ION-ELECTRON SYSTEM (eV)
  ---------------------------------------------------
  free  energy   TOTEN  =      -669.84467705 eV

  energy  without entropy=     -669.84467705  energy(sigma->0) =     -669.84467705
 


--------------------------------------------------------------------------------------------------------


    POTLOK:  cpu time    0.1471: real time    0.1478


--------------------------------------------------------------------------------------------------------


 stress matrix after NEB project (eV)
    -11.12263      0.68200      0.24620
      0.68200     -1.86477     -0.03675
      0.24620     -0.03675     -3.27249
  FORCES: max atom, RMS     0.111918    0.057659
  FORCE total and by dimension    0.492643    0.103583
  Stress total and by dimension   11.787857   11.122626
     LOOP+:  cpu time  262.1390: real time  265.1486
    4ORBIT:  cpu time    0.0000: real time    0.0000
 


 total charge     
 
# of ion       s       p       d       tot
------------------------------------------
    1        0.861   1.788   0.000   2.649
    2        0.862   1.778   0.000   2.641
    3        0.862   1.790   0.000   2.652
    4        0.862   1.779   0.000   2.641
    5        0.864   1.789   0.000   2.653
    6        0.865   1.783   0.000   2.648
    7        0.863   1.781   0.000   2.645
    8        0.864   1.776   0.000   2.640
    9        0.863   1.781   0.000   2.644
   10        0.865   1.779   0.000   2.644
   11        0.863   1.789   0.000   2.652
   12        0.865   1.781   0.000   2.646
   13        0.864   1.785   0.000   2.649
   14        0.865   1.783   0.000   2.647
   15        0.865   1.788   0.000   2.653
   16        0.864   1.776   0.000   2.641
   17        0.862   1.774   0.000   2.636
   18        0.865   1.767   0.000   2.632
   19        0.863   1.777   0.000   2.639
   20        0.862   1.765   0.000   2.627
   21        0.864   1.785   0.000   2.649
   22        0.866   1.780   0.000   2.646
   23        0.863   1.787   0.000   2.651
   24        0.865   1.784   0.000   2.650
   25        0.864   1.787   0.000   2.651
   26        0.866   1.788   0.000   2.654
   27        0.865   1.785   0.000   2.650
   28        0.868   1.791   0.000   2.659
   29        0.866   1.779   0.000   2.645
   30        0.883   1.696   0.000   2.579
   31        0.857   1.748   0.000   2.605
   32        0.869   1.628   0.000   2.496
   33        0.865   1.790   0.000   2.654
   34        0.870   1.793   0.000   2.663
   35        0.864   1.790   0.000   2.654
   36        0.868   1.791   0.000   2.659
   37        0.865   1.790   0.000   2.655
   38        0.864   1.788   0.000   2.652
   39        0.867   1.793   0.000   2.659
   40        0.867   1.793   0.000   2.660
   41        0.869   1.777   0.000   2.645
   42        0.870   1.773   0.000   2.643
   43        0.874   1.791   0.000   2.666
   44        0.876   1.784   0.000   2.659
   45        0.866   1.799   0.000   2.665
   46        0.869   1.798   0.000   2.667
   47        0.864   1.800   0.000   2.665
   48        0.853   1.754   0.000   2.607
   49        0.867   1.796   0.000   2.663
   50        0.863   1.783   0.000   2.646
   51        0.869   1.794   0.000   2.663
   52        0.866   1.784   0.000   2.650
   53        0.880   1.707   0.000   2.588
   54        0.865   1.769   0.000   2.633
   55        0.871   1.657   0.000   2.528
   56        0.857   1.741   0.000   2.599
   57        0.868   1.804   0.000   2.672
   58        0.855   1.754   0.000   2.609
   59        1.210   2.700   0.000   3.909
   60        0.853   1.752   0.000   2.605
   61        0.862   1.792   0.000   2.654
   62        0.866   1.789   0.000   2.655
   63        0.864   1.785   0.000   2.650
   64        0.865   1.787   0.000   2.652
   65        0.864   1.775   0.000   2.639
   66        0.864   1.780   0.000   2.645
   67        0.863   1.768   0.000   2.632
   68        0.863   1.771   0.000   2.634
   69        0.860   1.772   0.000   2.632
   70        0.865   1.780   0.000   2.644
   71        0.411   6.455   4.326  11.191
   72        0.982   1.541   0.000   2.523
   73        1.626   3.528   0.000   5.154
--------------------------------------------------
tot         63.915 136.717   4.326 204.958
 


 magnetization (x)
 
# of ion       s       p       d       tot
------------------------------------------
    1        0.000   0.005   0.000   0.005
    2       -0.000  -0.004   0.000  -0.004
    3        0.000   0.005   0.000   0.006
    4       -0.000  -0.007   0.000  -0.007
    5        0.000   0.003   0.000   0.004
    6       -0.000  -0.007   0.000  -0.008
    7        0.000   0.004   0.000   0.004
    8       -0.000  -0.004   0.000  -0.004
    9        0.001   0.008   0.000   0.009
   10       -0.000  -0.006   0.000  -0.006
   11        0.000   0.002   0.000   0.003
   12       -0.000  -0.005   0.000  -0.005
   13        0.000   0.006   0.000   0.006
   14       -0.001  -0.007   0.000  -0.007
   15        0.000   0.003   0.000   0.003
   16       -0.001  -0.007   0.000  -0.008
   17        0.001   0.007   0.000   0.007
   18       -0.001  -0.015   0.000  -0.016
   19        0.000   0.006   0.000   0.006
   20       -0.001  -0.007   0.000  -0.008
   21        0.000   0.004   0.000   0.004
   22       -0.000  -0.006   0.000  -0.006
   23        0.001   0.008   0.000   0.008
   24       -0.000  -0.003   0.000  -0.004
   25        0.000   0.004   0.000   0.004
   26       -0.000  -0.005   0.000  -0.005
   27        0.001   0.012   0.000   0.013
   28       -0.001  -0.006   0.000  -0.007
   29        0.002   0.019   0.000   0.021
   30       -0.008  -0.048   0.000  -0.056
   31        0.001   0.010   0.000   0.011
   32       -0.007  -0.038   0.000  -0.045
   33        0.000   0.006   0.000   0.007
   34       -0.000  -0.004   0.000  -0.005
   35        0.000   0.005   0.000   0.005
   36       -0.000  -0.005   0.000  -0.006
   37        0.000   0.004   0.000   0.005
   38       -0.000  -0.004   0.000  -0.004
   39        0.000   0.004   0.000   0.004
   40       -0.000  -0.007   0.000  -0.008
   41        0.002   0.014   0.000   0.016
   42        0.000  -0.008   0.000  -0.008
   43        0.002   0.011   0.000   0.012
   44        0.000  -0.007   0.000  -0.006
   45        0.000   0.002   0.000   0.002
   46       -0.000  -0.007   0.000  -0.007
   47        0.000   0.005   0.000   0.006
   48       -0.001  -0.010   0.000  -0.011
   49        0.000   0.003   0.000   0.004
   50       -0.000  -0.006   0.000  -0.007
   51        0.001   0.005   0.000   0.006
   52       -0.000  -0.003   0.000  -0.003
   53       -0.003  -0.000   0.000  -0.003
   54        0.000  -0.001   0.000  -0.001
   55       -0.005  -0.017   0.000  -0.023
   56       -0.000   0.002   0.000   0.002
   57        0.000   0.002   0.000   0.003
   58        0.000   0.002   0.000   0.003
   59        0.000   0.000   0.000   0.000
   60       -0.000  -0.005   0.000  -0.006
   61        0.000   0.005   0.000   0.005
   62       -0.000  -0.007   0.000  -0.008
   63        0.000   0.005   0.000   0.005
   64       -0.000  -0.004   0.000  -0.005
   65        0.000   0.004   0.000   0.004
   66       -0.000  -0.004   0.000  -0.004
   67        0.001   0.008   0.000   0.009
   68       -0.000  -0.002   0.000  -0.002
   69       -0.000   0.001   0.000   0.001
   70       -0.000  -0.006   0.000  -0.006
   71        0.010   0.015   0.941   0.966
   72       -0.003   0.015   0.000   0.012
   73        0.001   0.041   0.000   0.041
--------------------------------------------------
tot         -0.009  -0.016   0.941   0.916
 
 BZINTS: Fermi energy: -2.287067;303.000000 electrons
         Band energy:***********;  BLOECHL correction:  0.000000

 total amount of memory used by VASP MPI-rank0   116147. kBytes
=======================================================================

   base      :      30000. kBytes
   nonl-proj :      27330. kBytes
   fftplans  :       4700. kBytes
   grid      :      15193. kBytes
   one-center:        217. kBytes
   wavefun   :      38707. kBytes
 
  
  
 General timing and accounting informations for this job:
 ========================================================
  
                  Total CPU time used (sec):      280.236
                            User time (sec):      271.528
                          System time (sec):        8.708
                         Elapsed time (sec):      291.757
  
                   Maximum memory used (kb):      472780.
                   Average memory used (kb):           0.
  
                          Minor page faults:      1502180
                          Major page faults:            0
                 Voluntary context switches:         8976
