  71  71   0   0
  0.4011563E+02  0.1487831E-08  0.1477209E-08  0.1500000E-08  0.3000000E-15
  1.000000000000000E-004
  CAR 
 unknown system                          
      5.27807704    -48.62236067  301     -2.11718379      1.00000000
    -48.622  0.0000E+00  0.0000E+00  0.0000E+00  0.0000E+00
    -48.443  0.0000E+00  0.0000E+00  0.0000E+00  0.0000E+00
    -48.263  0.0000E+00  0.0000E+00  0.0000E+00  0.0000E+00
    -48.083  0.0000E+00  0.0000E+00  0.0000E+00  0.0000E+00
    -47.904  0.0000E+00  0.0000E+00  0.0000E+00  0.0000E+00
    -47.724  0.0000E+00  0.0000E+00  0.0000E+00  0.0000E+00
    -47.544  0.0000E+00  0.0000E+00  0.0000E+00  0.0000E+00
    -47.365  0.0000E+00  0.0000E+00  0.0000E+00  0.0000E+00
    -47.185  0.0000E+00  0.0000E+00  0.0000E+00  0.0000E+00
    -47.005  0.0000E+00  0.0000E+00  0.0000E+00  0.0000E+00
    -46.826  0.0000E+00  0.0000E+00  0.0000E+00  0.0000E+00
    -46.646  0.1463E-12  0.0000E+00  0.2628E-13  0.0000E+00
    -46.466  0.2235E-06  0.0000E+00  0.4016E-07  0.0000E+00
    -46.287  0.7366E-03  0.0000E+00  0.1324E-03  0.0000E+00
    -46.107  0.1132E-01  0.0000E+00  0.2166E-02  0.0000E+00
    -45.927  0.2068E-01  0.0000E+00  0.5880E-02  0.0000E+00
    -45.748  0.8968E-02  0.0000E+00  0.7492E-02  0.0000E+00
    -45.568  0.4678E-04  0.0000E+00  0.7500E-02  0.0000E+00
    -45.388  0.7995E-09  0.0000E+00  0.7500E-02  0.0000E+00
    -45.209  0.2781E-16  0.0000E+00  0.7500E-02  0.0000E+00
    -45.029  0.0000E+00  0.0000E+00  0.7500E-02  0.0000E+00
    -44.849  0.0000E+00  0.0000E+00  0.7500E-02  0.0000E+00
    -44.670  0.0000E+00  0.1931E-16  0.7500E-02  0.3469E-17
    -44.490  0.0000E+00  0.5736E-09  0.7500E-02  0.1031E-09
    -44.310  0.0000E+00  0.3333E-04  0.7500E-02  0.5988E-05
    -44.131  0.0000E+00  0.5397E-02  0.7500E-02  0.9757E-03
    -43.951  0.0000E+00  0.1158E-01  0.7500E-02  0.3056E-02
    -43.771  0.0000E+00  0.1722E-01  0.7500E-02  0.6150E-02
    -43.592  0.0000E+00  0.7434E-02  0.7500E-02  0.7486E-02
    -43.412  0.0000E+00  0.7918E-04  0.7500E-02  0.7500E-02
    -43.232  0.0000E+00  0.2737E-08  0.7500E-02  0.7500E-02
    -43.053  0.0000E+00  0.1854E-15  0.7500E-02  0.7500E-02
    -42.873  0.0000E+00  0.0000E+00  0.7500E-02  0.7500E-02
    -42.693  0.0000E+00  0.0000E+00  0.7500E-02  0.7500E-02
    -42.514  0.0000E+00  0.0000E+00  0.7500E-02  0.7500E-02
    -42.334  0.0000E+00  0.0000E+00  0.7500E-02  0.7500E-02
    -42.154  0.0000E+00  0.0000E+00  0.7500E-02  0.7500E-02
    -41.975  0.0000E+00  0.0000E+00  0.7500E-02  0.7500E-02
    -41.795  0.0000E+00  0.0000E+00  0.7500E-02  0.7500E-02
    -41.615  0.0000E+00  0.0000E+00  0.7500E-02  0.7500E-02
    -41.436  0.0000E+00  0.0000E+00  0.7500E-02  0.7500E-02
    -41.256  0.0000E+00  0.0000E+00  0.7500E-02  0.7500E-02
    -41.076  0.0000E+00  0.0000E+00  0.7500E-02  0.7500E-02
    -40.897  0.0000E+00  0.0000E+00  0.7500E-02  0.7500E-02
    -40.717  0.0000E+00  0.0000E+00  0.7500E-02  0.7500E-02
    -40.537  0.0000E+00  0.0000E+00  0.7500E-02  0.7500E-02
    -40.358  0.0000E+00  0.0000E+00  0.7500E-02  0.7500E-02
    -40.178  0.0000E+00  0.0000E+00  0.7500E-02  0.7500E-02
    -39.998  0.0000E+00  0.0000E+00  0.7500E-02  0.7500E-02
    -39.819  0.0000E+00  0.0000E+00  0.7500E-02  0.7500E-02
    -39.639  0.0000E+00  0.0000E+00  0.7500E-02  0.7500E-02
    -39.459  0.0000E+00  0.0000E+00  0.7500E-02  0.7500E-02
    -39.280  0.0000E+00  0.0000E+00  0.7500E-02  0.7500E-02
    -39.100  0.0000E+00  0.0000E+00  0.7500E-02  0.7500E-02
    -38.920  0.0000E+00  0.0000E+00  0.7500E-02  0.7500E-02
    -38.741  0.0000E+00  0.0000E+00  0.7500E-02  0.7500E-02
    -38.561  0.0000E+00  0.0000E+00  0.7500E-02  0.7500E-02
    -38.381  0.0000E+00  0.0000E+00  0.7500E-02  0.7500E-02
    -38.202  0.0000E+00  0.0000E+00  0.7500E-02  0.7500E-02
    -38.022  0.0000E+00  0.0000E+00  0.7500E-02  0.7500E-02
    -37.842  0.0000E+00  0.0000E+00  0.7500E-02  0.7500E-02
    -37.663  0.0000E+00  0.0000E+00  0.7500E-02  0.7500E-02
    -37.483  0.0000E+00  0.0000E+00  0.7500E-02  0.7500E-02
    -37.303  0.0000E+00  0.0000E+00  0.7500E-02  0.7500E-02
    -37.124  0.0000E+00  0.0000E+00  0.7500E-02  0.7500E-02
    -36.944  0.0000E+00  0.0000E+00  0.7500E-02  0.7500E-02
    -36.764  0.0000E+00  0.0000E+00  0.7500E-02  0.7500E-02
    -36.585  0.0000E+00  0.0000E+00  0.7500E-02  0.7500E-02
    -36.405  0.0000E+00  0.0000E+00  0.7500E-02  0.7500E-02
    -36.225  0.0000E+00  0.0000E+00  0.7500E-02  0.7500E-02
    -36.046  0.0000E+00  0.0000E+00  0.7500E-02  0.7500E-02
    -35.866  0.0000E+00  0.0000E+00  0.7500E-02  0.7500E-02
    -35.686  0.0000E+00  0.0000E+00  0.7500E-02  0.7500E-02
    -35.507  0.0000E+00  0.0000E+00  0.7500E-02  0.7500E-02
    -35.327  0.0000E+00  0.0000E+00  0.7500E-02  0.7500E-02
    -35.147  0.0000E+00  0.0000E+00  0.7500E-02  0.7500E-02
    -34.968  0.0000E+00  0.0000E+00  0.7500E-02  0.7500E-02
    -34.788  0.0000E+00  0.0000E+00  0.7500E-02  0.7500E-02
    -34.608  0.0000E+00  0.0000E+00  0.7500E-02  0.7500E-02
    -34.429  0.0000E+00  0.0000E+00  0.7500E-02  0.7500E-02
    -34.249  0.0000E+00  0.0000E+00  0.7500E-02  0.7500E-02
    -34.069  0.0000E+00  0.0000E+00  0.7500E-02  0.7500E-02
    -33.890  0.0000E+00  0.0000E+00  0.7500E-02  0.7500E-02
    -33.710  0.0000E+00  0.0000E+00  0.7500E-02  0.7500E-02
    -33.530  0.0000E+00  0.0000E+00  0.7500E-02  0.7500E-02
    -33.351  0.0000E+00  0.0000E+00  0.7500E-02  0.7500E-02
    -33.171  0.0000E+00  0.0000E+00  0.7500E-02  0.7500E-02
    -32.991  0.0000E+00  0.0000E+00  0.7500E-02  0.7500E-02
    -32.812  0.0000E+00  0.0000E+00  0.7500E-02  0.7500E-02
    -32.632  0.0000E+00  0.0000E+00  0.7500E-02  0.7500E-02
    -32.452  0.0000E+00  0.0000E+00  0.7500E-02  0.7500E-02
    -32.273  0.0000E+00  0.0000E+00  0.7500E-02  0.7500E-02
    -32.093  0.0000E+00  0.0000E+00  0.7500E-02  0.7500E-02
    -31.913  0.0000E+00  0.0000E+00  0.7500E-02  0.7500E-02
    -31.734  0.0000E+00  0.0000E+00  0.7500E-02  0.7500E-02
    -31.554  0.0000E+00  0.0000E+00  0.7500E-02  0.7500E-02
    -31.374  0.0000E+00  0.0000E+00  0.7500E-02  0.7500E-02
    -31.195  0.0000E+00  0.0000E+00  0.7500E-02  0.7500E-02
    -31.015  0.0000E+00  0.0000E+00  0.7500E-02  0.7500E-02
    -30.835  0.0000E+00  0.0000E+00  0.7500E-02  0.7500E-02
    -30.656  0.0000E+00  0.0000E+00  0.7500E-02  0.7500E-02
    -30.476  0.0000E+00  0.0000E+00  0.7500E-02  0.7500E-02
    -30.296  0.0000E+00  0.0000E+00  0.7500E-02  0.7500E-02
    -30.117  0.0000E+00  0.0000E+00  0.7500E-02  0.7500E-02
    -29.937  0.0000E+00  0.0000E+00  0.7500E-02  0.7500E-02
    -29.757  0.0000E+00  0.0000E+00  0.7500E-02  0.7500E-02
    -29.578  0.0000E+00  0.0000E+00  0.7500E-02  0.7500E-02
    -29.398  0.0000E+00  0.0000E+00  0.7500E-02  0.7500E-02
    -29.218  0.0000E+00  0.0000E+00  0.7500E-02  0.7500E-02
    -29.039  0.0000E+00  0.0000E+00  0.7500E-02  0.7500E-02
    -28.859  0.0000E+00  0.0000E+00  0.7500E-02  0.7500E-02
    -28.679  0.0000E+00  0.0000E+00  0.7500E-02  0.7500E-02
    -28.500  0.0000E+00  0.0000E+00  0.7500E-02  0.7500E-02
    -28.320  0.0000E+00  0.0000E+00  0.7500E-02  0.7500E-02
    -28.140  0.0000E+00  0.0000E+00  0.7500E-02  0.7500E-02
    -27.961  0.0000E+00  0.0000E+00  0.7500E-02  0.7500E-02
    -27.781  0.0000E+00  0.0000E+00  0.7500E-02  0.7500E-02
    -27.601  0.0000E+00  0.0000E+00  0.7500E-02  0.7500E-02
    -27.422  0.0000E+00  0.0000E+00  0.7500E-02  0.7500E-02
    -27.242  0.0000E+00  0.0000E+00  0.7500E-02  0.7500E-02
    -27.062  0.0000E+00  0.0000E+00  0.7500E-02  0.7500E-02
    -26.883  0.0000E+00  0.0000E+00  0.7500E-02  0.7500E-02
    -26.703  0.0000E+00  0.0000E+00  0.7500E-02  0.7500E-02
    -26.523  0.0000E+00  0.0000E+00  0.7500E-02  0.7500E-02
    -26.344  0.0000E+00  0.0000E+00  0.7500E-02  0.7500E-02
    -26.164  0.0000E+00  0.0000E+00  0.7500E-02  0.7500E-02
    -25.984  0.0000E+00  0.0000E+00  0.7500E-02  0.7500E-02
    -25.805  0.0000E+00  0.0000E+00  0.7500E-02  0.7500E-02
    -25.625  0.0000E+00  0.0000E+00  0.7500E-02  0.7500E-02
    -25.445  0.0000E+00  0.0000E+00  0.7500E-02  0.7500E-02
    -25.266  0.0000E+00  0.0000E+00  0.7500E-02  0.7500E-02
    -25.086  0.0000E+00  0.0000E+00  0.7500E-02  0.7500E-02
    -24.906  0.0000E+00  0.0000E+00  0.7500E-02  0.7500E-02
    -24.726  0.0000E+00  0.0000E+00  0.7500E-02  0.7500E-02
    -24.547  0.0000E+00  0.0000E+00  0.7500E-02  0.7500E-02
    -24.367  0.0000E+00  0.0000E+00  0.7500E-02  0.7500E-02
    -24.187  0.3012E-16  0.1050E-15  0.7500E-02  0.7500E-02
    -24.008  0.7925E-09  0.1852E-08  0.7500E-02  0.7500E-02
    -23.828  0.3995E-04  0.6392E-04  0.7507E-02  0.7511E-02
    -23.648  0.5699E-02  0.6538E-02  0.8531E-02  0.8686E-02
    -23.469  0.8034E-02  0.7221E-02  0.9975E-02  0.9983E-02
    -23.289  0.1416E-03  0.9223E-04  0.1000E-01  0.1000E-01
    -23.109  0.8144E-08  0.3639E-08  0.1000E-01  0.1000E-01
    -22.930  0.9369E-15  0.2839E-15  0.1000E-01  0.1000E-01
    -22.750  0.0000E+00  0.0000E+00  0.1000E-01  0.1000E-01
    -22.570  0.0000E+00  0.0000E+00  0.1000E-01  0.1000E-01
    -22.391  0.0000E+00  0.0000E+00  0.1000E-01  0.1000E-01
    -22.211  0.0000E+00  0.0000E+00  0.1000E-01  0.1000E-01
    -22.031  0.3108E-13  0.4344E-13  0.1000E-01  0.1000E-01
    -21.852  0.5506E-07  0.6848E-07  0.1000E-01  0.1000E-01
    -21.672  0.2556E-03  0.2857E-03  0.1005E-01  0.1005E-01
    -21.492  0.8109E-02  0.8361E-02  0.1150E-01  0.1155E-01
    -21.313  0.1290E-01  0.1279E-01  0.1382E-01  0.1385E-01
    -21.133  0.9391E-02  0.9602E-02  0.1551E-01  0.1558E-01
    -20.953  0.1751E-01  0.1763E-01  0.1865E-01  0.1875E-01
    -20.774  0.1030E-01  0.1003E-01  0.2050E-01  0.2055E-01
    -20.594  0.8906E-02  0.9214E-02  0.2210E-01  0.2220E-01
    -20.414  0.1857E-01  0.1855E-01  0.2544E-01  0.2554E-01
    -20.235  0.1548E-01  0.1553E-01  0.2822E-01  0.2833E-01
    -20.055  0.1062E-01  0.1048E-01  0.3013E-01  0.3021E-01
    -19.875  0.8671E-02  0.8821E-02  0.3169E-01  0.3179E-01
    -19.696  0.1436E-01  0.1435E-01  0.3427E-01  0.3437E-01
    -19.516  0.1917E-01  0.1940E-01  0.3771E-01  0.3786E-01
    -19.336  0.1417E-01  0.1388E-01  0.4026E-01  0.4035E-01
    -19.157  0.1262E-01  0.1289E-01  0.4253E-01  0.4267E-01
    -18.977  0.1261E-01  0.1251E-01  0.4479E-01  0.4491E-01
    -18.797  0.1017E-01  0.1007E-01  0.4662E-01  0.4672E-01
    -18.618  0.1239E-01  0.1234E-01  0.4885E-01  0.4894E-01
    -18.438  0.1919E-01  0.1932E-01  0.5229E-01  0.5241E-01
    -18.258  0.1877E-01  0.1945E-01  0.5567E-01  0.5591E-01
    -18.079  0.1580E-01  0.1507E-01  0.5851E-01  0.5861E-01
    -17.899  0.1062E-01  0.1057E-01  0.6041E-01  0.6051E-01
    -17.719  0.7017E-02  0.7008E-02  0.6167E-01  0.6177E-01
    -17.540  0.1363E-01  0.1408E-01  0.6412E-01  0.6430E-01
    -17.360  0.1661E-01  0.1653E-01  0.6711E-01  0.6727E-01
    -17.180  0.2255E-01  0.2268E-01  0.7116E-01  0.7134E-01
    -17.001  0.1907E-01  0.1879E-01  0.7459E-01  0.7472E-01
    -16.821  0.1353E-01  0.1351E-01  0.7702E-01  0.7715E-01
    -16.641  0.1613E-01  0.1645E-01  0.7992E-01  0.8010E-01
    -16.462  0.1271E-01  0.1249E-01  0.8220E-01  0.8235E-01
    -16.282  0.8483E-02  0.8112E-02  0.8373E-01  0.8381E-01
    -16.102  0.1333E-01  0.1413E-01  0.8612E-01  0.8634E-01
    -15.923  0.2122E-01  0.2112E-01  0.8993E-01  0.9014E-01
    -15.743  0.1313E-01  0.1287E-01  0.9229E-01  0.9245E-01
    -15.563  0.7103E-02  0.7189E-02  0.9357E-01  0.9374E-01
    -15.384  0.7614E-02  0.7028E-02  0.9494E-01  0.9501E-01
    -15.204  0.8928E-02  0.9228E-02  0.9654E-01  0.9666E-01
    -15.024  0.1411E-01  0.1429E-01  0.9907E-01  0.9923E-01
    -14.845  0.1581E-01  0.1598E-01  0.1019E+00  0.1021E+00
    -14.665  0.2097E-01  0.2113E-01  0.1057E+00  0.1059E+00
    -14.485  0.1818E-01  0.1756E-01  0.1089E+00  0.1091E+00
    -14.306  0.9773E-02  0.9699E-02  0.1107E+00  0.1108E+00
    -14.126  0.1605E-01  0.1657E-01  0.1136E+00  0.1138E+00
    -13.946  0.1954E-01  0.1925E-01  0.1171E+00  0.1172E+00
    -13.767  0.1603E-01  0.1624E-01  0.1200E+00  0.1201E+00
    -13.587  0.1240E-01  0.1221E-01  0.1222E+00  0.1223E+00
    -13.407  0.1922E-01  0.1936E-01  0.1257E+00  0.1258E+00
    -13.228  0.9185E-02  0.8917E-02  0.1273E+00  0.1274E+00
    -13.048  0.1066E-01  0.1075E-01  0.1292E+00  0.1294E+00
    -12.868  0.1420E-01  0.1428E-01  0.1318E+00  0.1319E+00
    -12.689  0.2176E-01  0.2185E-01  0.1357E+00  0.1358E+00
    -12.509  0.1141E-01  0.1119E-01  0.1377E+00  0.1379E+00
    -12.329  0.8970E-02  0.8733E-02  0.1393E+00  0.1394E+00
    -12.150  0.1223E-01  0.1209E-01  0.1415E+00  0.1416E+00
    -11.970  0.1113E-01  0.1140E-01  0.1435E+00  0.1436E+00
    -11.790  0.2324E-01  0.2373E-01  0.1477E+00  0.1479E+00
    -11.611  0.3212E-01  0.3236E-01  0.1535E+00  0.1537E+00
    -11.431  0.1796E-01  0.1690E-01  0.1567E+00  0.1568E+00
    -11.251  0.5232E-02  0.5528E-02  0.1577E+00  0.1578E+00
    -11.072  0.1684E-01  0.1672E-01  0.1607E+00  0.1608E+00
    -10.892  0.1165E-01  0.1172E-01  0.1628E+00  0.1629E+00
    -10.712  0.1675E-01  0.1704E-01  0.1658E+00  0.1659E+00
    -10.533  0.2187E-01  0.2194E-01  0.1697E+00  0.1699E+00
    -10.353  0.1720E-01  0.1682E-01  0.1728E+00  0.1729E+00
    -10.173  0.2127E-01  0.2144E-01  0.1766E+00  0.1767E+00
     -9.994  0.3032E-01  0.3139E-01  0.1821E+00  0.1824E+00
     -9.814  0.2884E-01  0.2782E-01  0.1873E+00  0.1874E+00
     -9.634  0.2102E-01  0.2122E-01  0.1910E+00  0.1912E+00
     -9.455  0.2833E-01  0.2825E-01  0.1961E+00  0.1963E+00
     -9.275  0.2904E-01  0.2923E-01  0.2013E+00  0.2015E+00
     -9.095  0.2998E-01  0.3015E-01  0.2067E+00  0.2069E+00
     -8.916  0.4064E-01  0.4038E-01  0.2140E+00  0.2142E+00
     -8.736  0.3666E-01  0.3704E-01  0.2206E+00  0.2208E+00
     -8.556  0.4513E-01  0.4542E-01  0.2287E+00  0.2290E+00
     -8.377  0.4785E-01  0.4777E-01  0.2373E+00  0.2376E+00
     -8.197  0.3645E-01  0.3590E-01  0.2439E+00  0.2440E+00
     -8.017  0.3544E-01  0.3567E-01  0.2502E+00  0.2504E+00
     -7.838  0.2911E-01  0.2876E-01  0.2555E+00  0.2556E+00
     -7.658  0.1937E-01  0.1903E-01  0.2589E+00  0.2590E+00
     -7.478  0.3198E-01  0.3288E-01  0.2647E+00  0.2649E+00
     -7.299  0.3374E-01  0.3381E-01  0.2708E+00  0.2710E+00
     -7.119  0.4278E-01  0.4150E-01  0.2784E+00  0.2785E+00
     -6.939  0.3214E-01  0.3264E-01  0.2842E+00  0.2843E+00
     -6.760  0.1852E-01  0.1858E-01  0.2875E+00  0.2877E+00
     -6.580  0.1632E-01  0.1558E-01  0.2905E+00  0.2905E+00
     -6.400  0.1992E-01  0.1841E-01  0.2941E+00  0.2938E+00
     -6.221  0.3279E-01  0.3397E-01  0.2999E+00  0.2999E+00
     -6.041  0.3536E-01  0.3641E-01  0.3063E+00  0.3064E+00
     -5.861  0.3170E-01  0.3135E-01  0.3120E+00  0.3121E+00
     -5.682  0.2431E-01  0.2190E-01  0.3164E+00  0.3160E+00
     -5.502  0.1566E-01  0.1749E-01  0.3192E+00  0.3191E+00
     -5.322  0.2221E-01  0.1916E-01  0.3232E+00  0.3226E+00
     -5.143  0.1925E-01  0.1601E-01  0.3266E+00  0.3255E+00
     -4.963  0.2196E-01  0.2485E-01  0.3306E+00  0.3299E+00
     -4.783  0.3020E-01  0.3039E-01  0.3360E+00  0.3354E+00
     -4.604  0.3323E-01  0.3391E-01  0.3420E+00  0.3415E+00
     -4.424  0.1610E-01  0.1790E-01  0.3449E+00  0.3447E+00
     -4.244  0.1013E-01  0.7764E-02  0.3467E+00  0.3461E+00
     -4.065  0.1929E-01  0.9786E-02  0.3501E+00  0.3478E+00
     -3.885  0.1712E-01  0.1568E-01  0.3532E+00  0.3507E+00
     -3.705  0.1143E-01  0.1956E-01  0.3553E+00  0.3542E+00
     -3.526  0.1138E-01  0.1569E-01  0.3573E+00  0.3570E+00
     -3.346  0.1452E-01  0.1000E-01  0.3599E+00  0.3588E+00
     -3.166  0.1888E-01  0.1057E-01  0.3633E+00  0.3607E+00
     -2.987  0.7229E-02  0.4356E-02  0.3646E+00  0.3615E+00
     -2.807  0.8865E-02  0.2196E-02  0.3662E+00  0.3619E+00
     -2.627  0.1139E-02  0.5114E-04  0.3664E+00  0.3619E+00
     -2.448  0.2565E-02  0.1744E-03  0.3669E+00  0.3619E+00
     -2.268  0.3454E-02  0.4476E-02  0.3675E+00  0.3627E+00
     -2.088  0.4769E-02  0.1030E-01  0.3684E+00  0.3646E+00
     -1.909  0.6329E-02  0.5233E-02  0.3695E+00  0.3655E+00
     -1.729  0.1167E-01  0.7325E-03  0.3716E+00  0.3656E+00
     -1.549  0.1242E-01  0.2161E-02  0.3738E+00  0.3660E+00
     -1.370  0.9659E-02  0.4461E-02  0.3756E+00  0.3668E+00
     -1.190  0.5983E-02  0.7297E-02  0.3766E+00  0.3681E+00
     -1.010  0.7467E-02  0.1043E-01  0.3780E+00  0.3700E+00
     -0.831  0.1020E-01  0.2800E-01  0.3798E+00  0.3750E+00
     -0.651  0.2472E-01  0.2926E-01  0.3842E+00  0.3803E+00
     -0.471  0.1182E-01  0.2385E-01  0.3864E+00  0.3846E+00
     -0.292  0.1504E-01  0.1726E-01  0.3891E+00  0.3877E+00
     -0.112  0.1914E-01  0.2109E-01  0.3925E+00  0.3915E+00
      0.068  0.1125E-01  0.1064E-01  0.3945E+00  0.3934E+00
      0.247  0.1837E-01  0.1830E-01  0.3978E+00  0.3967E+00
      0.427  0.2051E-01  0.2765E-01  0.4015E+00  0.4016E+00
      0.607  0.1538E-01  0.1529E-01  0.4043E+00  0.4044E+00
      0.786  0.1606E-01  0.8839E-02  0.4072E+00  0.4060E+00
      0.966  0.1588E-01  0.1519E-01  0.4100E+00  0.4087E+00
      1.146  0.8476E-02  0.1442E-01  0.4115E+00  0.4113E+00
      1.325  0.1841E-01  0.1471E-01  0.4148E+00  0.4139E+00
      1.505  0.1747E-01  0.2047E-01  0.4180E+00  0.4176E+00
      1.685  0.2407E-01  0.2062E-01  0.4223E+00  0.4213E+00
      1.864  0.2591E-01  0.2566E-01  0.4270E+00  0.4259E+00
      2.044  0.3711E-01  0.3288E-01  0.4336E+00  0.4318E+00
      2.224  0.2847E-01  0.2912E-01  0.4387E+00  0.4371E+00
      2.403  0.1871E-01  0.1921E-01  0.4421E+00  0.4405E+00
      2.583  0.3790E-01  0.4009E-01  0.4489E+00  0.4477E+00
      2.763  0.4988E-01  0.5357E-01  0.4579E+00  0.4573E+00
      2.942  0.1157E-01  0.1442E-01  0.4600E+00  0.4599E+00
      3.122  0.2284E-03  0.3280E-03  0.4600E+00  0.4600E+00
      3.302  0.4855E-07  0.6756E-07  0.4600E+00  0.4600E+00
      3.481  0.2774E-13  0.3888E-13  0.4600E+00  0.4600E+00
      3.661  0.0000E+00  0.0000E+00  0.4600E+00  0.4600E+00
      3.841  0.0000E+00  0.0000E+00  0.4600E+00  0.4600E+00
      4.020  0.0000E+00  0.0000E+00  0.4600E+00  0.4600E+00
      4.200  0.0000E+00  0.0000E+00  0.4600E+00  0.4600E+00
      4.380  0.0000E+00  0.0000E+00  0.4600E+00  0.4600E+00
      4.559  0.0000E+00  0.0000E+00  0.4600E+00  0.4600E+00
      4.739  0.0000E+00  0.0000E+00  0.4600E+00  0.4600E+00
      4.919  0.0000E+00  0.0000E+00  0.4600E+00  0.4600E+00
      5.098  0.0000E+00  0.0000E+00  0.4600E+00  0.4600E+00
      5.278  0.0000E+00  0.0000E+00  0.4600E+00  0.4600E+00
