       N       E                     dE             d eps       ncg     rms          rms(c)
DAV:   1     0.274388178583E+04    0.27439E+04   -0.11731E+05  3248   0.127E+03
DAV:   2    -0.171756589369E+03   -0.29156E+04   -0.27865E+04  4312   0.296E+02
DAV:   3    -0.684094793170E+03   -0.51234E+03   -0.50936E+03  3568   0.129E+02
DAV:   4    -0.703539094130E+03   -0.19444E+02   -0.19294E+02  3552   0.311E+01
DAV:   5    -0.704160416821E+03   -0.62132E+00   -0.61935E+00  4040   0.476E+00    0.465E+01
RMM:   6    -0.732144750791E+03   -0.27984E+02   -0.52276E+02  4148   0.396E+01    0.836E+01
RMM:   7    -0.662426143148E+03    0.69719E+02   -0.54445E+01  3020   0.141E+01    0.317E+01
RMM:   8    -0.662358220919E+03    0.67922E-01   -0.22045E+01  3160   0.726E+00    0.284E+01
RMM:   9    -0.647179527632E+03    0.15179E+02   -0.20842E+01  2980   0.858E+00    0.108E+01
RMM:  10    -0.647879222735E+03   -0.69970E+00   -0.29271E+00  3023   0.307E+00    0.142E+01
RMM:  11    -0.646668160214E+03    0.12111E+01   -0.36874E-01  3114   0.985E-01    0.680E+00
RMM:  12    -0.646806526679E+03   -0.13837E+00   -0.16443E-01  2949   0.878E-01    0.667E+00
RMM:  13    -0.646739652781E+03    0.66874E-01   -0.18035E-02  3012   0.362E-01    0.706E+00
RMM:  14    -0.646861137618E+03   -0.12148E+00   -0.91435E-02  3030   0.420E-01    0.554E+00
RMM:  15    -0.646928850739E+03   -0.67713E-01   -0.13601E-01  2962   0.453E-01    0.511E+00
RMM:  16    -0.646848642454E+03    0.80208E-01   -0.23529E-01  2982   0.719E-01    0.282E+00
RMM:  17    -0.646932764366E+03   -0.84122E-01   -0.41176E-02  3124   0.293E-01    0.238E+00
RMM:  18    -0.646981319058E+03   -0.48555E-01   -0.10183E-01  2974   0.484E-01    0.114E+00
RMM:  19    -0.647041849392E+03   -0.60530E-01   -0.33953E-02  2985   0.254E-01    0.104E+00
RMM:  20    -0.647123160246E+03   -0.81311E-01   -0.22388E-02  2964   0.189E-01    0.706E-01
RMM:  21    -0.647159134746E+03   -0.35975E-01   -0.36847E-02  2968   0.210E-01    0.484E-01
RMM:  22    -0.647151545644E+03    0.75891E-02   -0.11171E-02  2998   0.142E-01    0.472E-01
RMM:  23    -0.647155891123E+03   -0.43455E-02   -0.28475E-03  3033   0.628E-02    0.408E-01
RMM:  24    -0.647155818100E+03    0.73023E-04   -0.52496E-04  2444   0.149E-02    0.461E-01
RMM:  25    -0.647158655841E+03   -0.28377E-02   -0.62491E-03  2995   0.106E-01    0.237E-01
RMM:  26    -0.647161531322E+03   -0.28755E-02   -0.14897E-03  2997   0.503E-02    0.203E-01
RMM:  27    -0.647166351585E+03   -0.48203E-02   -0.42756E-04  2669   0.308E-02    0.153E-01
RMM:  28    -0.647174290037E+03   -0.79385E-02   -0.57200E-04  2395   0.304E-02    0.121E-01
RMM:  29    -0.647178649187E+03   -0.43591E-02   -0.39115E-04  2331   0.247E-02    0.962E-02
RMM:  30    -0.647180332525E+03   -0.16833E-02   -0.20483E-04  2258   0.166E-02    0.632E-02
RMM:  31    -0.647180841963E+03   -0.50944E-03   -0.37323E-05  2032   0.791E-03    0.574E-02
RMM:  32    -0.647181442287E+03   -0.60032E-03   -0.53000E-05  2145   0.894E-03    0.396E-02
RMM:  33    -0.647181781581E+03   -0.33929E-03   -0.38267E-05  2071   0.767E-03    0.241E-02
RMM:  34    -0.647181914703E+03   -0.13312E-03   -0.11172E-05  1468   0.425E-03    0.174E-02
RMM:  35    -0.647182046537E+03   -0.13183E-03   -0.10577E-05  1475   0.378E-03    0.115E-02
RMM:  36    -0.647182067792E+03   -0.21255E-04   -0.25948E-06  1208   0.244E-03    0.908E-03
RMM:  37    -0.647182081710E+03   -0.13918E-04   -0.15567E-06  1156   0.212E-03    0.643E-03
RMM:  38    -0.647182083540E+03   -0.18302E-05   -0.12142E-06   968   0.186E-03
   1 F= -.65357634E+03 E0= -.65356008E+03  d E =-.653576E+03  mag=     1.7381
       N       E                     dE             d eps       ncg     rms          rms(c)
DAV:   1    -0.647194395809E+03   -0.12314E-01   -0.74755E+00  3104   0.758E+00    0.886E-01
RMM:   2    -0.647215206706E+03   -0.20811E-01   -0.24761E-01  3087   0.124E+00    0.103E+00
RMM:   3    -0.647206801534E+03    0.84052E-02   -0.34484E-02  3249   0.382E-01    0.701E-01
RMM:   4    -0.647200639829E+03    0.61617E-02   -0.10245E-02  3078   0.204E-01    0.247E-01
RMM:   5    -0.647200225481E+03    0.41435E-03   -0.26625E-03  2972   0.107E-01    0.897E-02
RMM:   6    -0.647201304503E+03   -0.10790E-02   -0.31816E-04  3082   0.367E-02    0.432E-02
RMM:   7    -0.647202146152E+03   -0.84165E-03   -0.97809E-05  2743   0.171E-02    0.186E-02
RMM:   8    -0.647202601515E+03   -0.45536E-03   -0.19645E-05  1910   0.860E-03    0.105E-02
RMM:   9    -0.647202939221E+03   -0.33771E-03   -0.15135E-05  1874   0.665E-03    0.429E-03
RMM:  10    -0.647203018477E+03   -0.79256E-04   -0.38165E-06  1761   0.366E-03    0.237E-03
RMM:  11    -0.647203068692E+03   -0.50215E-04   -0.25506E-06  1356   0.258E-03    0.120E-03
RMM:  12    -0.647203088751E+03   -0.20060E-04   -0.14449E-06  1133   0.206E-03    0.734E-04
RMM:  13    -0.647203095356E+03   -0.66041E-05   -0.58860E-07   832   0.170E-03
   2 F= -.65360280E+03 E0= -.65358682E+03  d E =-.264632E-01  mag=     1.6639
       N       E                     dE             d eps       ncg     rms          rms(c)
DAV:   1    -0.647213871399E+03   -0.10783E-01   -0.87389E-01  3104   0.258E+00    0.299E-01
RMM:   2    -0.647216120788E+03   -0.22494E-02   -0.27431E-02  3064   0.420E-01    0.356E-01
RMM:   3    -0.647214974314E+03    0.11465E-02   -0.38486E-03  3197   0.129E-01    0.229E-01
RMM:   4    -0.647214267025E+03    0.70729E-03   -0.11253E-03  3026   0.677E-02    0.840E-02
RMM:   5    -0.647214165073E+03    0.10195E-03   -0.29942E-04  2955   0.359E-02    0.301E-02
RMM:   6    -0.647214316306E+03   -0.15123E-03   -0.28963E-05  1932   0.120E-02    0.146E-02
RMM:   7    -0.647214455428E+03   -0.13912E-03   -0.13137E-05  1793   0.741E-03    0.625E-03
RMM:   8    -0.647214537876E+03   -0.82448E-04   -0.43322E-06  1775   0.464E-03    0.348E-03
RMM:   9    -0.647214604999E+03   -0.67123E-04   -0.28675E-06  1624   0.290E-03    0.160E-03
RMM:  10    -0.647214631996E+03   -0.26997E-04   -0.12802E-06  1140   0.193E-03    0.830E-04
RMM:  11    -0.647214643130E+03   -0.11134E-04   -0.56231E-07   825   0.162E-03    0.512E-04
RMM:  12    -0.647214648205E+03   -0.50750E-05   -0.46996E-07   791   0.157E-03
   3 F= -.65361263E+03 E0= -.65359649E+03  d E =-.362932E-01  mag=     1.6878
       N       E                     dE             d eps       ncg     rms          rms(c)
DAV:   1    -0.647224825137E+03   -0.10182E-01   -0.31975E+00  3072   0.510E+00    0.447E-01
RMM:   2    -0.647231590804E+03   -0.67657E-02   -0.93236E-02  2990   0.781E-01    0.346E-01
RMM:   3    -0.647230615232E+03    0.97557E-03   -0.72933E-03  3490   0.189E-01    0.338E-01
RMM:   4    -0.647229475805E+03    0.11394E-02   -0.26706E-03  3205   0.978E-02    0.198E-01
RMM:   5    -0.647229187714E+03    0.28809E-03   -0.99397E-04  2990   0.630E-02    0.609E-02
RMM:   6    -0.647229535511E+03   -0.34780E-03   -0.91776E-05  2639   0.212E-02    0.263E-02
RMM:   7    -0.647229870231E+03   -0.33472E-03   -0.34102E-05  2015   0.112E-02    0.120E-02
RMM:   8    -0.647230035248E+03   -0.16502E-03   -0.78199E-06  1789   0.647E-03    0.648E-03
RMM:   9    -0.647230198343E+03   -0.16310E-03   -0.59567E-06  1781   0.443E-03    0.256E-03
RMM:  10    -0.647230243963E+03   -0.45620E-04   -0.19763E-06  1359   0.257E-03    0.146E-03
RMM:  11    -0.647230265879E+03   -0.21916E-04   -0.90342E-07   995   0.190E-03    0.901E-04
RMM:  12    -0.647230283134E+03   -0.17255E-04   -0.90559E-07  1019   0.186E-03    0.502E-04
RMM:  13    -0.647230287297E+03   -0.41626E-05   -0.25093E-07   676   0.157E-03
   4 F= -.65362958E+03 E0= -.65361375E+03  d E =-.169519E-01  mag=     1.6465
       N       E                     dE             d eps       ncg     rms          rms(c)
DAV:   1    -0.647230708525E+03   -0.42539E-03   -0.50620E-02  3224   0.641E-01    0.555E-02
RMM:   2    -0.647230799676E+03   -0.91151E-04   -0.14907E-03  2985   0.986E-02    0.442E-02
RMM:   3    -0.647230780032E+03    0.19643E-04   -0.11145E-04  2588   0.238E-02    0.421E-02
RMM:   4    -0.647230756944E+03    0.23088E-04   -0.41117E-05  1964   0.138E-02    0.251E-02
RMM:   5    -0.647230752211E+03    0.47333E-05   -0.19225E-05  1834   0.105E-02
   5 F= -.65362990E+03 E0= -.65361402E+03  d E =-.172693E-01  mag=     1.6503
       N       E                     dE             d eps       ncg     rms          rms(c)
DAV:   1    -0.647237586291E+03   -0.68293E-02   -0.17865E+00  3128   0.401E+00    0.382E-01
RMM:   2    -0.647245244762E+03   -0.76585E-02   -0.64694E-02  3001   0.576E-01    0.650E-01
RMM:   3    -0.647241152095E+03    0.40927E-02   -0.75661E-03  3404   0.170E-01    0.195E-01
RMM:   4    -0.647240776754E+03    0.37534E-03   -0.97512E-04  3230   0.623E-02    0.108E-01
RMM:   5    -0.647240612683E+03    0.16407E-03   -0.41947E-04  2945   0.414E-02    0.414E-02
RMM:   6    -0.647240642617E+03   -0.29934E-04   -0.40706E-05  1995   0.156E-02    0.151E-02
RMM:   7    -0.647240668872E+03   -0.26255E-04   -0.92857E-06  1787   0.742E-03    0.722E-03
RMM:   8    -0.647240691709E+03   -0.22837E-04   -0.34285E-06  1762   0.451E-03    0.395E-03
RMM:   9    -0.647240711218E+03   -0.19509E-04   -0.16173E-06  1632   0.294E-03    0.187E-03
RMM:  10    -0.647240723060E+03   -0.11842E-04   -0.67771E-07  1082   0.200E-03    0.101E-03
RMM:  11    -0.647240729485E+03   -0.64248E-05   -0.55558E-07   886   0.170E-03
   6 F= -.65363931E+03 E0= -.65362333E+03  d E =-.941503E-02  mag=     1.6501
       N       E                     dE             d eps       ncg     rms          rms(c)
DAV:   1    -0.647240745536E+03   -0.22476E-04   -0.47081E-04  3312   0.650E-02    0.617E-03
RMM:   2    -0.647240747962E+03   -0.24259E-05   -0.14866E-05  1799   0.938E-03
   7 F= -.65363932E+03 E0= -.65362333E+03  d E =-.942312E-02  mag=     1.6501
       N       E                     dE             d eps       ncg     rms          rms(c)
DAV:   1    -0.647241938955E+03   -0.11934E-02   -0.11308E+00  3136   0.337E+00    0.287E-01
RMM:   2    -0.647246008167E+03   -0.40692E-02   -0.47739E-02  3005   0.459E-01    0.218E-01
RMM:   3    -0.647245560086E+03    0.44808E-03   -0.39359E-03  3580   0.124E-01    0.230E-01
RMM:   4    -0.647245001064E+03    0.55902E-03   -0.82725E-04  3141   0.515E-02    0.100E-01
RMM:   5    -0.647244888134E+03    0.11293E-03   -0.22673E-04  2972   0.305E-02    0.406E-02
RMM:   6    -0.647245049819E+03   -0.16168E-03   -0.44058E-05  2021   0.155E-02    0.125E-02
RMM:   7    -0.647245181478E+03   -0.13166E-03   -0.82699E-06  1784   0.724E-03    0.655E-03
RMM:   8    -0.647245283437E+03   -0.10196E-03   -0.41888E-06  1770   0.444E-03    0.342E-03
RMM:   9    -0.647245351214E+03   -0.67777E-04   -0.23003E-06  1455   0.290E-03    0.192E-03
RMM:  10    -0.647245384631E+03   -0.33416E-04   -0.10061E-06  1043   0.208E-03    0.120E-03
RMM:  11    -0.647245412491E+03   -0.27861E-04   -0.11264E-06  1017   0.189E-03    0.512E-04
RMM:  12    -0.647245418478E+03   -0.59866E-05   -0.32000E-07   674   0.156E-03
   8 F= -.65364462E+03 E0= -.65362895E+03  d E =-.529453E-02  mag=     1.6229
       N       E                     dE             d eps       ncg     rms          rms(c)
DAV:   1    -0.647245388929E+03    0.23562E-04   -0.44617E-03  3312   0.211E-01    0.179E-02
RMM:   2    -0.647245402348E+03   -0.13419E-04   -0.18631E-04  2723   0.289E-02    0.137E-02
RMM:   3    -0.647245401234E+03    0.11147E-05   -0.15037E-05  1823   0.863E-03
   9 F= -.65364464E+03 E0= -.65362901E+03  d E =-.531390E-02  mag=     1.6222
       N       E                     dE             d eps       ncg     rms          rms(c)
DAV:   1    -0.647244935812E+03    0.46654E-03   -0.85289E-01  3168   0.292E+00    0.257E-01
RMM:   2    -0.647247977741E+03   -0.30419E-02   -0.38191E-02  3013   0.409E-01    0.165E-01
RMM:   3    -0.647247522702E+03    0.45504E-03   -0.28636E-03  3590   0.108E-01    0.180E-01
RMM:   4    -0.647247206742E+03    0.31596E-03   -0.65140E-04  3131   0.445E-02    0.104E-01
RMM:   5    -0.647247097401E+03    0.10934E-03   -0.18855E-04  2880   0.278E-02    0.388E-02
RMM:   6    -0.647247272132E+03   -0.17473E-03   -0.44374E-05  2042   0.150E-02    0.115E-02
RMM:   7    -0.647247415675E+03   -0.14354E-03   -0.78079E-06  1782   0.698E-03    0.630E-03
RMM:   8    -0.647247537249E+03   -0.12157E-03   -0.43303E-06  1769   0.442E-03    0.293E-03
RMM:   9    -0.647247611631E+03   -0.74382E-04   -0.25024E-06  1387   0.286E-03    0.162E-03
RMM:  10    -0.647247644227E+03   -0.32596E-04   -0.10641E-06  1052   0.209E-03    0.107E-03
RMM:  11    -0.647247669857E+03   -0.25630E-04   -0.10091E-06   991   0.187E-03    0.497E-04
RMM:  12    -0.647247677306E+03   -0.74487E-05   -0.37186E-07   718   0.159E-03
  10 F= -.65364761E+03 E0= -.65363240E+03  d E =-.297164E-02  mag=     1.5937
       N       E                     dE             d eps       ncg     rms          rms(c)
DAV:   1    -0.647247711398E+03   -0.41540E-04   -0.18565E-03  3312   0.136E-01    0.118E-02
RMM:   2    -0.647247715888E+03   -0.44903E-05   -0.78380E-05  2035   0.192E-02
  11 F= -.65364761E+03 E0= -.65363238E+03  d E =-.297892E-02  mag=     1.5941
       N       E                     dE             d eps       ncg     rms          rms(c)
DAV:   1    -0.647247845632E+03   -0.13423E-03   -0.41395E-01  3232   0.203E+00    0.171E-01
RMM:   2    -0.647249606304E+03   -0.17607E-02   -0.18433E-02  3012   0.287E-01    0.200E-01
RMM:   3    -0.647249224964E+03    0.38134E-03   -0.17102E-03  3568   0.813E-02    0.116E-01
RMM:   4    -0.647249105101E+03    0.11986E-03   -0.23654E-04  3024   0.293E-02    0.552E-02
RMM:   5    -0.647249060452E+03    0.44649E-04   -0.73641E-05  2525   0.180E-02    0.239E-02
RMM:   6    -0.647249076008E+03   -0.15556E-04   -0.15681E-05  1816   0.102E-02    0.678E-03
RMM:   7    -0.647249088769E+03   -0.12762E-04   -0.32173E-06  1758   0.493E-03    0.366E-03
RMM:   8    -0.647249101800E+03   -0.13030E-04   -0.11302E-06  1316   0.291E-03    0.168E-03
RMM:   9    -0.647249112523E+03   -0.10723E-04   -0.67105E-07  1165   0.216E-03    0.815E-04
RMM:  10    -0.647249118082E+03   -0.55588E-05   -0.20506E-07   757   0.165E-03
  12 F= -.65364910E+03 E0= -.65363395E+03  d E =-.148649E-02  mag=     1.5897
       N       E                     dE             d eps       ncg     rms          rms(c)
DAV:   1    -0.647249124535E+03   -0.12012E-04   -0.40110E-04  3264   0.633E-02    0.544E-03
RMM:   2    -0.647249127260E+03   -0.27245E-05   -0.16256E-05  1785   0.908E-03
  13 F= -.65364911E+03 E0= -.65363396E+03  d E =-.149331E-02  mag=     1.5897
       N       E                     dE             d eps       ncg     rms          rms(c)
DAV:   1    -0.647249672595E+03   -0.54806E-03   -0.28187E-01  3104   0.162E+00    0.131E-01
RMM:   2    -0.647250699432E+03   -0.10268E-02   -0.10197E-02  3013   0.221E-01    0.180E-01
RMM:   3    -0.647250390665E+03    0.30877E-03   -0.10229E-03  3532   0.637E-02    0.807E-02
RMM:   4    -0.647250341073E+03    0.49592E-04   -0.12138E-04  2761   0.221E-02    0.411E-02
RMM:   5    -0.647250319285E+03    0.21788E-04   -0.48620E-05  2197   0.151E-02    0.160E-02
RMM:   6    -0.647250329576E+03   -0.10291E-04   -0.77750E-06  1780   0.781E-03    0.509E-03
RMM:   7    -0.647250335208E+03   -0.56314E-05   -0.20023E-06  1738   0.399E-03
  14 F= -.65365026E+03 E0= -.65363518E+03  d E =-.115631E-02  mag=     1.5877
       N       E                     dE             d eps       ncg     rms          rms(c)
DAV:   1    -0.647250361552E+03   -0.31976E-04   -0.15564E-02  3224   0.381E-01    0.309E-02
RMM:   2    -0.647250417225E+03   -0.55673E-04   -0.57045E-04  3010   0.522E-02    0.438E-02
RMM:   3    -0.647250401038E+03    0.16187E-04   -0.53684E-05  2021   0.152E-02    0.186E-02
RMM:   4    -0.647250400776E+03    0.26167E-06   -0.82365E-06  1770   0.762E-03
  15 F= -.65365032E+03 E0= -.65363525E+03  d E =-.120817E-02  mag=     1.5871
       N       E                     dE             d eps       ncg     rms          rms(c)
DAV:   1    -0.647250532213E+03   -0.13118E-03   -0.28516E-01  2992   0.153E+00    0.112E-01
RMM:   2    -0.647251034974E+03   -0.50276E-03   -0.65060E-03  2991   0.194E-01    0.731E-02
RMM:   3    -0.647251017084E+03    0.17890E-04   -0.58227E-04  3534   0.513E-02    0.868E-02
RMM:   4    -0.647250965419E+03    0.51665E-04   -0.15829E-04  2428   0.239E-02    0.431E-02
RMM:   5    -0.647250954853E+03    0.10566E-04   -0.39416E-05  2034   0.145E-02    0.127E-02
RMM:   6    -0.647250960454E+03   -0.56008E-05   -0.54530E-06  1765   0.688E-03
  16 F= -.65365112E+03 E0= -.65363613E+03  d E =-.805315E-03  mag=     1.5865
