  71  71   0   0
  0.4011563E+02  0.1487831E-08  0.1477209E-08  0.1500000E-08  0.3000000E-15
  1.000000000000000E-004
  CAR 
 unknown system                          
      5.29436098    -48.61582396  301     -2.06339070      1.00000000
    -48.616  0.0000E+00  0.0000E+00  0.0000E+00  0.0000E+00
    -48.436  0.0000E+00  0.0000E+00  0.0000E+00  0.0000E+00
    -48.256  0.0000E+00  0.0000E+00  0.0000E+00  0.0000E+00
    -48.077  0.0000E+00  0.0000E+00  0.0000E+00  0.0000E+00
    -47.897  0.0000E+00  0.0000E+00  0.0000E+00  0.0000E+00
    -47.717  0.0000E+00  0.0000E+00  0.0000E+00  0.0000E+00
    -47.538  0.0000E+00  0.0000E+00  0.0000E+00  0.0000E+00
    -47.358  0.0000E+00  0.0000E+00  0.0000E+00  0.0000E+00
    -47.178  0.0000E+00  0.0000E+00  0.0000E+00  0.0000E+00
    -46.999  0.0000E+00  0.0000E+00  0.0000E+00  0.0000E+00
    -46.819  0.0000E+00  0.0000E+00  0.0000E+00  0.0000E+00
    -46.639  0.0000E+00  0.1451E-12  0.0000E+00  0.2607E-13
    -46.459  0.0000E+00  0.2228E-06  0.0000E+00  0.4003E-07
    -46.280  0.0000E+00  0.7359E-03  0.0000E+00  0.1323E-03
    -46.100  0.0000E+00  0.1079E-01  0.0000E+00  0.2071E-02
    -45.920  0.0000E+00  0.1174E-01  0.0000E+00  0.4181E-02
    -45.741  0.0000E+00  0.1755E-01  0.0000E+00  0.7334E-02
    -45.561  0.0000E+00  0.9215E-03  0.0000E+00  0.7500E-02
    -45.381  0.0000E+00  0.3078E-06  0.0000E+00  0.7500E-02
    -45.202  0.0000E+00  0.2382E-12  0.0000E+00  0.7500E-02
    -45.022  0.0000E+00  0.0000E+00  0.0000E+00  0.7500E-02
    -44.842  0.0000E+00  0.0000E+00  0.0000E+00  0.7500E-02
    -44.662  0.0000E+00  0.0000E+00  0.0000E+00  0.7500E-02
    -44.483  0.1482E-13  0.0000E+00  0.2664E-14  0.7500E-02
    -44.303  0.5089E-07  0.0000E+00  0.9144E-08  0.7500E-02
    -44.123  0.3618E-03  0.0000E+00  0.6503E-04  0.7500E-02
    -43.944  0.9799E-02  0.0000E+00  0.1826E-02  0.7500E-02
    -43.764  0.1094E-01  0.0000E+00  0.3792E-02  0.7500E-02
    -43.584  0.1684E-01  0.0000E+00  0.6819E-02  0.7500E-02
    -43.405  0.3780E-02  0.0000E+00  0.7498E-02  0.7500E-02
    -43.225  0.1081E-04  0.0000E+00  0.7500E-02  0.7500E-02
    -43.045  0.8049E-10  0.0000E+00  0.7500E-02  0.7500E-02
    -42.865  0.0000E+00  0.0000E+00  0.7500E-02  0.7500E-02
    -42.686  0.0000E+00  0.0000E+00  0.7500E-02  0.7500E-02
    -42.506  0.0000E+00  0.0000E+00  0.7500E-02  0.7500E-02
    -42.326  0.0000E+00  0.0000E+00  0.7500E-02  0.7500E-02
    -42.147  0.0000E+00  0.0000E+00  0.7500E-02  0.7500E-02
    -41.967  0.0000E+00  0.0000E+00  0.7500E-02  0.7500E-02
    -41.787  0.0000E+00  0.0000E+00  0.7500E-02  0.7500E-02
    -41.607  0.0000E+00  0.0000E+00  0.7500E-02  0.7500E-02
    -41.428  0.0000E+00  0.0000E+00  0.7500E-02  0.7500E-02
    -41.248  0.0000E+00  0.0000E+00  0.7500E-02  0.7500E-02
    -41.068  0.0000E+00  0.0000E+00  0.7500E-02  0.7500E-02
    -40.889  0.0000E+00  0.0000E+00  0.7500E-02  0.7500E-02
    -40.709  0.0000E+00  0.0000E+00  0.7500E-02  0.7500E-02
    -40.529  0.0000E+00  0.0000E+00  0.7500E-02  0.7500E-02
    -40.350  0.0000E+00  0.0000E+00  0.7500E-02  0.7500E-02
    -40.170  0.0000E+00  0.0000E+00  0.7500E-02  0.7500E-02
    -39.990  0.0000E+00  0.0000E+00  0.7500E-02  0.7500E-02
    -39.810  0.0000E+00  0.0000E+00  0.7500E-02  0.7500E-02
    -39.631  0.0000E+00  0.0000E+00  0.7500E-02  0.7500E-02
    -39.451  0.0000E+00  0.0000E+00  0.7500E-02  0.7500E-02
    -39.271  0.0000E+00  0.0000E+00  0.7500E-02  0.7500E-02
    -39.092  0.0000E+00  0.0000E+00  0.7500E-02  0.7500E-02
    -38.912  0.0000E+00  0.0000E+00  0.7500E-02  0.7500E-02
    -38.732  0.0000E+00  0.0000E+00  0.7500E-02  0.7500E-02
    -38.553  0.0000E+00  0.0000E+00  0.7500E-02  0.7500E-02
    -38.373  0.0000E+00  0.0000E+00  0.7500E-02  0.7500E-02
    -38.193  0.0000E+00  0.0000E+00  0.7500E-02  0.7500E-02
    -38.013  0.0000E+00  0.0000E+00  0.7500E-02  0.7500E-02
    -37.834  0.0000E+00  0.0000E+00  0.7500E-02  0.7500E-02
    -37.654  0.0000E+00  0.0000E+00  0.7500E-02  0.7500E-02
    -37.474  0.0000E+00  0.0000E+00  0.7500E-02  0.7500E-02
    -37.295  0.0000E+00  0.0000E+00  0.7500E-02  0.7500E-02
    -37.115  0.0000E+00  0.0000E+00  0.7500E-02  0.7500E-02
    -36.935  0.0000E+00  0.0000E+00  0.7500E-02  0.7500E-02
    -36.756  0.0000E+00  0.0000E+00  0.7500E-02  0.7500E-02
    -36.576  0.0000E+00  0.0000E+00  0.7500E-02  0.7500E-02
    -36.396  0.0000E+00  0.0000E+00  0.7500E-02  0.7500E-02
    -36.216  0.0000E+00  0.0000E+00  0.7500E-02  0.7500E-02
    -36.037  0.0000E+00  0.0000E+00  0.7500E-02  0.7500E-02
    -35.857  0.0000E+00  0.0000E+00  0.7500E-02  0.7500E-02
    -35.677  0.0000E+00  0.0000E+00  0.7500E-02  0.7500E-02
    -35.498  0.0000E+00  0.0000E+00  0.7500E-02  0.7500E-02
    -35.318  0.0000E+00  0.0000E+00  0.7500E-02  0.7500E-02
    -35.138  0.0000E+00  0.0000E+00  0.7500E-02  0.7500E-02
    -34.959  0.0000E+00  0.0000E+00  0.7500E-02  0.7500E-02
    -34.779  0.0000E+00  0.0000E+00  0.7500E-02  0.7500E-02
    -34.599  0.0000E+00  0.0000E+00  0.7500E-02  0.7500E-02
    -34.419  0.0000E+00  0.0000E+00  0.7500E-02  0.7500E-02
    -34.240  0.0000E+00  0.0000E+00  0.7500E-02  0.7500E-02
    -34.060  0.0000E+00  0.0000E+00  0.7500E-02  0.7500E-02
    -33.880  0.0000E+00  0.0000E+00  0.7500E-02  0.7500E-02
    -33.701  0.0000E+00  0.0000E+00  0.7500E-02  0.7500E-02
    -33.521  0.0000E+00  0.0000E+00  0.7500E-02  0.7500E-02
    -33.341  0.0000E+00  0.0000E+00  0.7500E-02  0.7500E-02
    -33.162  0.0000E+00  0.0000E+00  0.7500E-02  0.7500E-02
    -32.982  0.0000E+00  0.0000E+00  0.7500E-02  0.7500E-02
    -32.802  0.0000E+00  0.0000E+00  0.7500E-02  0.7500E-02
    -32.622  0.0000E+00  0.0000E+00  0.7500E-02  0.7500E-02
    -32.443  0.0000E+00  0.0000E+00  0.7500E-02  0.7500E-02
    -32.263  0.0000E+00  0.0000E+00  0.7500E-02  0.7500E-02
    -32.083  0.0000E+00  0.0000E+00  0.7500E-02  0.7500E-02
    -31.904  0.0000E+00  0.0000E+00  0.7500E-02  0.7500E-02
    -31.724  0.0000E+00  0.0000E+00  0.7500E-02  0.7500E-02
    -31.544  0.0000E+00  0.0000E+00  0.7500E-02  0.7500E-02
    -31.365  0.0000E+00  0.0000E+00  0.7500E-02  0.7500E-02
    -31.185  0.0000E+00  0.0000E+00  0.7500E-02  0.7500E-02
    -31.005  0.0000E+00  0.0000E+00  0.7500E-02  0.7500E-02
    -30.825  0.0000E+00  0.0000E+00  0.7500E-02  0.7500E-02
    -30.646  0.0000E+00  0.0000E+00  0.7500E-02  0.7500E-02
    -30.466  0.0000E+00  0.0000E+00  0.7500E-02  0.7500E-02
    -30.286  0.0000E+00  0.0000E+00  0.7500E-02  0.7500E-02
    -30.107  0.0000E+00  0.0000E+00  0.7500E-02  0.7500E-02
    -29.927  0.0000E+00  0.0000E+00  0.7500E-02  0.7500E-02
    -29.747  0.0000E+00  0.0000E+00  0.7500E-02  0.7500E-02
    -29.568  0.0000E+00  0.0000E+00  0.7500E-02  0.7500E-02
    -29.388  0.0000E+00  0.0000E+00  0.7500E-02  0.7500E-02
    -29.208  0.0000E+00  0.0000E+00  0.7500E-02  0.7500E-02
    -29.028  0.0000E+00  0.0000E+00  0.7500E-02  0.7500E-02
    -28.849  0.0000E+00  0.0000E+00  0.7500E-02  0.7500E-02
    -28.669  0.0000E+00  0.0000E+00  0.7500E-02  0.7500E-02
    -28.489  0.0000E+00  0.0000E+00  0.7500E-02  0.7500E-02
    -28.310  0.0000E+00  0.0000E+00  0.7500E-02  0.7500E-02
    -28.130  0.0000E+00  0.0000E+00  0.7500E-02  0.7500E-02
    -27.950  0.0000E+00  0.0000E+00  0.7500E-02  0.7500E-02
    -27.771  0.0000E+00  0.0000E+00  0.7500E-02  0.7500E-02
    -27.591  0.0000E+00  0.0000E+00  0.7500E-02  0.7500E-02
    -27.411  0.0000E+00  0.0000E+00  0.7500E-02  0.7500E-02
    -27.231  0.0000E+00  0.0000E+00  0.7500E-02  0.7500E-02
    -27.052  0.0000E+00  0.0000E+00  0.7500E-02  0.7500E-02
    -26.872  0.0000E+00  0.0000E+00  0.7500E-02  0.7500E-02
    -26.692  0.0000E+00  0.0000E+00  0.7500E-02  0.7500E-02
    -26.513  0.0000E+00  0.0000E+00  0.7500E-02  0.7500E-02
    -26.333  0.0000E+00  0.0000E+00  0.7500E-02  0.7500E-02
    -26.153  0.0000E+00  0.0000E+00  0.7500E-02  0.7500E-02
    -25.974  0.0000E+00  0.0000E+00  0.7500E-02  0.7500E-02
    -25.794  0.0000E+00  0.0000E+00  0.7500E-02  0.7500E-02
    -25.614  0.0000E+00  0.0000E+00  0.7500E-02  0.7500E-02
    -25.434  0.0000E+00  0.0000E+00  0.7500E-02  0.7500E-02
    -25.255  0.0000E+00  0.0000E+00  0.7500E-02  0.7500E-02
    -25.075  0.0000E+00  0.0000E+00  0.7500E-02  0.7500E-02
    -24.895  0.0000E+00  0.0000E+00  0.7500E-02  0.7500E-02
    -24.716  0.0000E+00  0.0000E+00  0.7500E-02  0.7500E-02
    -24.536  0.4861E-13  0.2437E-13  0.7500E-02  0.7500E-02
    -24.356  0.1103E-06  0.7042E-07  0.7500E-02  0.7500E-02
    -24.177  0.5276E-03  0.4246E-03  0.7595E-02  0.7576E-02
    -23.997  0.1030E-01  0.9981E-02  0.9446E-02  0.9370E-02
    -23.817  0.3079E-02  0.3497E-02  0.9999E-02  0.9998E-02
    -23.637  0.6547E-05  0.9248E-05  0.1000E-01  0.1000E-01
    -23.458  0.3443E-10  0.6175E-10  0.1000E-01  0.1000E-01
    -23.278  0.0000E+00  0.0000E+00  0.1000E-01  0.1000E-01
    -23.098  0.0000E+00  0.0000E+00  0.1000E-01  0.1000E-01
    -22.919  0.0000E+00  0.0000E+00  0.1000E-01  0.1000E-01
    -22.739  0.0000E+00  0.0000E+00  0.1000E-01  0.1000E-01
    -22.559  0.0000E+00  0.0000E+00  0.1000E-01  0.1000E-01
    -22.380  0.0000E+00  0.0000E+00  0.1000E-01  0.1000E-01
    -22.200  0.0000E+00  0.0000E+00  0.1000E-01  0.1000E-01
    -22.020  0.5703E-14  0.4748E-14  0.1000E-01  0.1000E-01
    -21.840  0.2128E-07  0.1882E-07  0.1000E-01  0.1000E-01
    -21.661  0.1766E-03  0.1655E-03  0.1003E-01  0.1003E-01
    -21.481  0.7473E-02  0.7333E-02  0.1137E-01  0.1135E-01
    -21.301  0.1250E-01  0.1254E-01  0.1362E-01  0.1360E-01
    -21.122  0.1202E-01  0.1186E-01  0.1578E-01  0.1573E-01
    -20.942  0.1557E-01  0.1549E-01  0.1858E-01  0.1852E-01
    -20.762  0.1125E-01  0.1146E-01  0.2060E-01  0.2058E-01
    -20.583  0.1011E-01  0.9864E-02  0.2242E-01  0.2235E-01
    -20.403  0.1937E-01  0.1926E-01  0.2590E-01  0.2581E-01
    -20.223  0.1070E-01  0.1085E-01  0.2782E-01  0.2776E-01
    -20.043  0.1245E-01  0.1233E-01  0.3006E-01  0.2998E-01
    -19.864  0.1422E-01  0.1418E-01  0.3262E-01  0.3252E-01
    -19.684  0.1609E-01  0.1606E-01  0.3551E-01  0.3541E-01
    -19.504  0.1413E-01  0.1431E-01  0.3805E-01  0.3798E-01
    -19.325  0.1078E-01  0.1059E-01  0.3998E-01  0.3989E-01
    -19.145  0.1353E-01  0.1335E-01  0.4241E-01  0.4228E-01
    -18.965  0.1619E-01  0.1627E-01  0.4532E-01  0.4521E-01
    -18.786  0.1386E-01  0.1402E-01  0.4781E-01  0.4773E-01
    -18.606  0.1067E-01  0.1093E-01  0.4973E-01  0.4969E-01
    -18.426  0.1462E-01  0.1452E-01  0.5236E-01  0.5230E-01
    -18.246  0.1688E-01  0.1582E-01  0.5539E-01  0.5514E-01
    -18.067  0.1899E-01  0.1975E-01  0.5881E-01  0.5869E-01
    -17.887  0.9362E-02  0.9615E-02  0.6049E-01  0.6042E-01
    -17.707  0.1094E-01  0.1090E-01  0.6245E-01  0.6238E-01
    -17.528  0.1517E-01  0.1477E-01  0.6518E-01  0.6503E-01
    -17.348  0.1618E-01  0.1652E-01  0.6809E-01  0.6800E-01
    -17.168  0.1753E-01  0.1726E-01  0.7124E-01  0.7110E-01
    -16.989  0.1629E-01  0.1631E-01  0.7417E-01  0.7403E-01
    -16.809  0.1813E-01  0.1811E-01  0.7742E-01  0.7729E-01
    -16.629  0.1740E-01  0.1765E-01  0.8055E-01  0.8046E-01
    -16.449  0.1028E-01  0.1009E-01  0.8240E-01  0.8227E-01
    -16.270  0.1085E-01  0.1110E-01  0.8435E-01  0.8427E-01
    -16.090  0.1477E-01  0.1419E-01  0.8700E-01  0.8681E-01
    -15.910  0.1751E-01  0.1779E-01  0.9015E-01  0.9001E-01
    -15.731  0.1020E-01  0.1052E-01  0.9198E-01  0.9190E-01
    -15.551  0.7802E-02  0.7527E-02  0.9338E-01  0.9325E-01
    -15.371  0.1057E-01  0.1045E-01  0.9528E-01  0.9513E-01
    -15.192  0.1338E-01  0.1336E-01  0.9769E-01  0.9753E-01
    -15.012  0.1248E-01  0.1275E-01  0.9993E-01  0.9982E-01
    -14.832  0.1851E-01  0.1832E-01  0.1033E+00  0.1031E+00
    -14.652  0.1610E-01  0.1634E-01  0.1062E+00  0.1061E+00
    -14.473  0.1559E-01  0.1566E-01  0.1090E+00  0.1089E+00
    -14.293  0.1328E-01  0.1317E-01  0.1113E+00  0.1112E+00
    -14.113  0.1575E-01  0.1580E-01  0.1142E+00  0.1141E+00
    -13.934  0.1551E-01  0.1500E-01  0.1170E+00  0.1168E+00
    -13.754  0.2097E-01  0.2138E-01  0.1207E+00  0.1206E+00
    -13.574  0.1007E-01  0.1008E-01  0.1225E+00  0.1224E+00
    -13.395  0.1495E-01  0.1471E-01  0.1252E+00  0.1251E+00
    -13.215  0.1417E-01  0.1417E-01  0.1278E+00  0.1276E+00
    -13.035  0.1013E-01  0.1068E-01  0.1296E+00  0.1295E+00
    -12.855  0.1396E-01  0.1363E-01  0.1321E+00  0.1320E+00
    -12.676  0.1962E-01  0.1940E-01  0.1356E+00  0.1355E+00
    -12.496  0.1414E-01  0.1424E-01  0.1382E+00  0.1380E+00
    -12.316  0.1036E-01  0.1072E-01  0.1400E+00  0.1400E+00
    -12.137  0.1141E-01  0.1135E-01  0.1421E+00  0.1420E+00
    -11.957  0.1496E-01  0.1492E-01  0.1448E+00  0.1447E+00
    -11.777  0.2504E-01  0.2463E-01  0.1493E+00  0.1491E+00
    -11.597  0.2341E-01  0.2336E-01  0.1535E+00  0.1533E+00
    -11.418  0.1678E-01  0.1718E-01  0.1565E+00  0.1564E+00
    -11.238  0.1046E-01  0.1055E-01  0.1584E+00  0.1583E+00
    -11.058  0.1537E-01  0.1525E-01  0.1611E+00  0.1610E+00
    -10.879  0.1697E-01  0.1698E-01  0.1642E+00  0.1641E+00
    -10.699  0.1593E-01  0.1604E-01  0.1670E+00  0.1670E+00
    -10.519  0.1341E-01  0.1326E-01  0.1694E+00  0.1693E+00
    -10.340  0.2800E-01  0.2748E-01  0.1745E+00  0.1743E+00
    -10.160  0.2759E-01  0.2820E-01  0.1794E+00  0.1793E+00
     -9.980  0.2833E-01  0.2804E-01  0.1845E+00  0.1844E+00
     -9.800  0.1896E-01  0.1944E-01  0.1879E+00  0.1879E+00
     -9.621  0.2076E-01  0.2043E-01  0.1917E+00  0.1915E+00
     -9.441  0.3040E-01  0.3040E-01  0.1971E+00  0.1970E+00
     -9.261  0.3176E-01  0.3195E-01  0.2028E+00  0.2027E+00
     -9.082  0.2612E-01  0.2600E-01  0.2075E+00  0.2074E+00
     -8.902  0.3817E-01  0.3821E-01  0.2144E+00  0.2143E+00
     -8.722  0.3937E-01  0.3907E-01  0.2215E+00  0.2213E+00
     -8.543  0.4504E-01  0.4449E-01  0.2296E+00  0.2293E+00
     -8.363  0.4809E-01  0.4869E-01  0.2382E+00  0.2381E+00
     -8.183  0.3388E-01  0.3412E-01  0.2443E+00  0.2442E+00
     -8.003  0.3003E-01  0.2947E-01  0.2497E+00  0.2495E+00
     -7.824  0.3064E-01  0.3123E-01  0.2552E+00  0.2551E+00
     -7.644  0.2402E-01  0.2398E-01  0.2595E+00  0.2594E+00
     -7.464  0.3569E-01  0.3535E-01  0.2659E+00  0.2658E+00
     -7.285  0.3488E-01  0.3517E-01  0.2722E+00  0.2721E+00
     -7.105  0.3267E-01  0.3354E-01  0.2781E+00  0.2781E+00
     -6.925  0.3257E-01  0.3198E-01  0.2839E+00  0.2838E+00
     -6.746  0.2075E-01  0.2081E-01  0.2876E+00  0.2876E+00
     -6.566  0.2111E-01  0.2130E-01  0.2914E+00  0.2914E+00
     -6.386  0.1770E-01  0.1854E-01  0.2946E+00  0.2947E+00
     -6.206  0.3154E-01  0.3276E-01  0.3003E+00  0.3006E+00
     -6.027  0.3495E-01  0.3296E-01  0.3066E+00  0.3066E+00
     -5.847  0.2908E-01  0.2937E-01  0.3118E+00  0.3118E+00
     -5.667  0.2245E-01  0.2435E-01  0.3158E+00  0.3162E+00
     -5.488  0.1705E-01  0.1535E-01  0.3189E+00  0.3190E+00
     -5.308  0.1774E-01  0.1928E-01  0.3221E+00  0.3224E+00
     -5.128  0.1566E-01  0.1648E-01  0.3249E+00  0.3254E+00
     -4.949  0.2248E-01  0.3146E-01  0.3289E+00  0.3311E+00
     -4.769  0.3489E-01  0.2840E-01  0.3352E+00  0.3362E+00
     -4.589  0.3627E-01  0.3500E-01  0.3417E+00  0.3424E+00
     -4.409  0.1690E-01  0.1361E-01  0.3448E+00  0.3449E+00
     -4.230  0.4507E-02  0.6452E-02  0.3456E+00  0.3461E+00
     -4.050  0.1051E-01  0.1407E-01  0.3475E+00  0.3486E+00
     -3.870  0.1457E-01  0.2524E-01  0.3501E+00  0.3531E+00
     -3.691  0.1561E-01  0.1263E-01  0.3529E+00  0.3554E+00
     -3.511  0.1830E-01  0.8928E-02  0.3562E+00  0.3570E+00
     -3.331  0.1398E-01  0.1629E-01  0.3587E+00  0.3599E+00
     -3.152  0.8547E-02  0.1706E-01  0.3602E+00  0.3630E+00
     -2.972  0.6087E-02  0.4944E-02  0.3613E+00  0.3639E+00
     -2.792  0.2907E-02  0.1064E-01  0.3618E+00  0.3658E+00
     -2.612  0.2621E-03  0.4000E-02  0.3619E+00  0.3665E+00
     -2.433  0.4609E-03  0.2335E-02  0.3620E+00  0.3669E+00
     -2.253  0.3132E-02  0.3045E-02  0.3625E+00  0.3675E+00
     -2.073  0.7837E-02  0.5289E-02  0.3639E+00  0.3684E+00
     -1.894  0.8060E-02  0.2093E-02  0.3654E+00  0.3688E+00
     -1.714  0.1381E-02  0.9380E-02  0.3656E+00  0.3705E+00
     -1.534  0.1850E-02  0.1670E-01  0.3660E+00  0.3735E+00
     -1.355  0.8364E-02  0.1454E-01  0.3675E+00  0.3761E+00
     -1.175  0.3573E-02  0.6755E-02  0.3681E+00  0.3773E+00
     -0.995  0.6933E-02  0.5261E-02  0.3693E+00  0.3783E+00
     -0.815  0.2934E-01  0.1555E-01  0.3746E+00  0.3810E+00
     -0.636  0.2769E-01  0.1968E-01  0.3796E+00  0.3846E+00
     -0.456  0.2472E-01  0.1421E-01  0.3840E+00  0.3871E+00
     -0.276  0.2364E-01  0.1699E-01  0.3883E+00  0.3902E+00
     -0.097  0.1794E-01  0.1343E-01  0.3915E+00  0.3926E+00
      0.083  0.9898E-02  0.9510E-02  0.3933E+00  0.3943E+00
      0.263  0.1917E-01  0.2293E-01  0.3967E+00  0.3984E+00
      0.442  0.2760E-01  0.1874E-01  0.4017E+00  0.4018E+00
      0.622  0.1392E-01  0.1316E-01  0.4042E+00  0.4042E+00
      0.802  0.1059E-01  0.1607E-01  0.4061E+00  0.4071E+00
      0.982  0.1196E-01  0.1645E-01  0.4082E+00  0.4100E+00
      1.161  0.1822E-01  0.1127E-01  0.4115E+00  0.4120E+00
      1.341  0.1448E-01  0.1731E-01  0.4141E+00  0.4151E+00
      1.521  0.1796E-01  0.1685E-01  0.4174E+00  0.4182E+00
      1.700  0.2245E-01  0.2360E-01  0.4214E+00  0.4224E+00
      1.880  0.2846E-01  0.3013E-01  0.4265E+00  0.4278E+00
      2.060  0.3234E-01  0.3349E-01  0.4323E+00  0.4339E+00
      2.239  0.2835E-01  0.2937E-01  0.4374E+00  0.4391E+00
      2.419  0.1674E-01  0.1992E-01  0.4404E+00  0.4427E+00
      2.599  0.3977E-01  0.3921E-01  0.4476E+00  0.4498E+00
      2.779  0.5265E-01  0.4771E-01  0.4570E+00  0.4583E+00
      2.958  0.1622E-01  0.9219E-02  0.4599E+00  0.4600E+00
      3.138  0.3446E-03  0.9265E-04  0.4600E+00  0.4600E+00
      3.318  0.6598E-07  0.5377E-08  0.4600E+00  0.4600E+00
      3.497  0.3783E-13  0.7425E-15  0.4600E+00  0.4600E+00
      3.677  0.0000E+00  0.0000E+00  0.4600E+00  0.4600E+00
      3.857  0.0000E+00  0.0000E+00  0.4600E+00  0.4600E+00
      4.036  0.0000E+00  0.0000E+00  0.4600E+00  0.4600E+00
      4.216  0.0000E+00  0.0000E+00  0.4600E+00  0.4600E+00
      4.396  0.0000E+00  0.0000E+00  0.4600E+00  0.4600E+00
      4.576  0.0000E+00  0.0000E+00  0.4600E+00  0.4600E+00
      4.755  0.0000E+00  0.0000E+00  0.4600E+00  0.4600E+00
      4.935  0.0000E+00  0.0000E+00  0.4600E+00  0.4600E+00
      5.115  0.0000E+00  0.0000E+00  0.4600E+00  0.4600E+00
      5.294  0.0000E+00  0.0000E+00  0.4600E+00  0.4600E+00
