       N       E                     dE             d eps       ncg     rms          rms(c)
DAV:   1     0.250365660792E+04    0.25037E+04   -0.11231E+05  4416   0.106E+03
DAV:   2    -0.246264109065E+03   -0.27499E+04   -0.26261E+04  5456   0.279E+02
DAV:   3    -0.700294464886E+03   -0.45403E+03   -0.44983E+03  4576   0.119E+02
DAV:   4    -0.716676132752E+03   -0.16382E+02   -0.16236E+02  4672   0.279E+01
DAV:   5    -0.717217613924E+03   -0.54148E+00   -0.54005E+00  5336   0.424E+00    0.480E+01
DAV:   6    -0.712038043659E+03    0.51796E+01   -0.68222E+01  4728   0.306E+01    0.724E+01
DAV:   7    -0.675606573072E+03    0.36431E+02   -0.75479E+01  5288   0.595E+01    0.254E+01
DAV:   8    -0.669146664802E+03    0.64599E+01   -0.31991E+01  4872   0.132E+01    0.231E+01
DAV:   9    -0.664693917754E+03    0.44527E+01   -0.21708E+01  4624   0.138E+01    0.147E+01
DAV:  10    -0.663598649168E+03    0.10953E+01   -0.84527E+00  5256   0.106E+01    0.755E+00
DAV:  11    -0.663517208947E+03    0.81440E-01   -0.10285E+00  4808   0.276E+00    0.554E+00
DAV:  12    -0.663359215732E+03    0.15799E+00   -0.44823E-01  4680   0.247E+00    0.297E+00
DAV:  13    -0.663373460908E+03   -0.14245E-01   -0.19094E-01  4784   0.121E+00    0.212E+00
DAV:  14    -0.663378908052E+03   -0.54471E-02   -0.39308E-02  4440   0.489E-01    0.172E+00
DAV:  15    -0.663378245902E+03    0.66215E-03   -0.57525E-03  4840   0.211E-01    0.130E+00
DAV:  16    -0.663377067278E+03    0.11786E-02   -0.47199E-03  4960   0.154E-01    0.902E-01
DAV:  17    -0.663377056684E+03    0.10594E-04   -0.15030E-03  4536   0.839E-02    0.706E-01
DAV:  18    -0.663377007979E+03    0.48705E-04   -0.17504E-04  2992   0.438E-02
   1 F= -.66994574E+03 E0= -.66994574E+03  d E =0.000000E+00  mag=     0.9996
