 vasp.5.4.4.18Apr17-6-g9f103f2a35 (build Jan 14 2022 15:04:31) complex          
  
 executed on             LinuxIFC date 2023.01.23  17:52:24
 running on   48 total cores
 distrk:  each k-point on   48 cores,    1 groups
 distr:  one band on NCORES_PER_BAND=  12 cores,    4 groups


--------------------------------------------------------------------------------------------------------


 INCAR:
 POTCAR:    PAW_PBE C 08Apr2002                   
 POTCAR:    PAW_PBE N 08Apr2002                   
 POTCAR:    PAW_PBE C 08Apr2002                   
 POTCAR:    PAW_PBE Cr_pv 02Aug2007               
 POTCAR:    PAW_PBE C 08Apr2002                   
   SHA256 =  253f7b50bb8d59471dbedb8285d89021f4a42ed1a2c5d38a03a736e69125dd95 C/
   COPYR  = (c) Copyright 08Apr2002 Georg Kresse                                
   COPYR  = This file is part of the software VASP. Any use, copying, and all ot
   COPYR  = If you do not have a valid VASP license, you may not use, copy or di
   VRHFIN =C: s2p2                                                              
   LEXCH  = PE                                                                  
   EATOM  =   147.1560 eV,   10.8157 Ry                                         
                                                                                
   TITEL  = PAW_PBE C 08Apr2002                                                 
   LULTRA =        F    use ultrasoft PP ?                                      
   IUNSCR =        1    unscreen: 0-lin 1-nonlin 2-no                           
   RPACOR =    1.200    partial core radius                                     
   POMASS =   12.011; ZVAL   =    4.000    mass and valenz                      
   RCORE  =    1.500    outmost cutoff radius                                   
   RWIGS  =    1.630; RWIGS  =    0.863    wigner-seitz radius (au A)           
   ENMAX  =  400.000; ENMIN  =  300.000 eV                                      
   ICORE  =        2    local potential                                         
   LCOR   =        T    correct aug charges                                     
   LPAW   =        T    paw PP                                                  
   EAUG   =  644.873                                                            
   DEXC   =    0.000                                                            
   RMAX   =    1.529    core radius for proj-oper                               
   RAUG   =    1.300    factor for augmentation sphere                          
   RDEP   =    1.501    radius for radial grids                                 
   RDEPT  =    1.300    core radius for aug-charge                              
                                                                                
   Atomic configuration                                                         
    4 entries                                                                   
     n  l   j            E        occ.                                          
     1  0  0.50      -273.3789   2.0000                                         
     2  0  0.50       -13.7508   2.0000                                         
     2  1  0.50        -5.2854   2.0000                                         
     3  2  1.50        -5.4423   0.0000                                         
   Description                                                                  
     l       E           TYP  RCUT    TYP  RCUT                                 
     0    -13.7508458     23  1.200                                             
     0     -8.2022199     23  1.200                                             
     1     -5.2854383     23  1.500                                             
     1     34.0145650     23  1.500                                             
     2     -5.4423304      7  1.500                                             
  local pseudopotential read in
  partial core-charges read in
  partial kinetic energy density read in
  atomic valenz-charges read in
  non local Contribution for L=           0  read in
    real space projection operators read in
  non local Contribution for L=           0  read in
    real space projection operators read in
  non local Contribution for L=           1  read in
    real space projection operators read in
  non local Contribution for L=           1  read in
    real space projection operators read in
    PAW grid and wavefunctions read in
 
   number of l-projection  operators is LMAX  =           4
   number of lm-projection operators is LMMAX =           8
 
 POTCAR:    PAW_PBE N 08Apr2002                   
   SHA256 =  e053789ff3a61a86a1b75d8a110fcc91f86041011e7b0817c7c99e4e8a6349d7 N/
   COPYR  = (c) Copyright 08Apr2002 Georg Kresse                                
   COPYR  = This file is part of the software VASP. Any use, copying, and all ot
   COPYR  = If you do not have a valid VASP license, you may not use, copy or di
   VRHFIN =N: s2p3                                                              
   LEXCH  = PE                                                                  
   EATOM  =   264.5486 eV,   19.4438 Ry                                         
                                                                                
   TITEL  = PAW_PBE N 08Apr2002                                                 
   LULTRA =        F    use ultrasoft PP ?                                      
   IUNSCR =        1    unscreen: 0-lin 1-nonlin 2-no                           
   RPACOR =    1.200    partial core radius                                     
   POMASS =   14.001; ZVAL   =    5.000    mass and valenz                      
   RCORE  =    1.500    outmost cutoff radius                                   
   RWIGS  =    1.400; RWIGS  =    0.741    wigner-seitz radius (au A)           
   ENMAX  =  400.000; ENMIN  =  300.000 eV                                      
   ICORE  =        2    local potential                                         
   LCOR   =        T    correct aug charges                                     
   LPAW   =        T    paw PP                                                  
   EAUG   =  627.112                                                            
   DEXC   =    0.000                                                            
   RMAX   =    1.529    core radius for proj-oper                               
   RAUG   =    1.300    factor for augmentation sphere                          
   RDEP   =    1.514    radius for radial grids                                 
   RDEPT  =    1.338    core radius for aug-charge                              
                                                                                
   Atomic configuration                                                         
    4 entries                                                                   
     n  l   j            E        occ.                                          
     1  0  0.50      -384.7179   2.0000                                         
     2  0  0.50       -18.5828   2.0000                                         
     2  1  0.50        -7.0898   3.0000                                         
     3  2  1.50        -6.8029   0.0000                                         
   Description                                                                  
     l       E           TYP  RCUT    TYP  RCUT                                 
     0    -18.5828119     23  1.200                                             
     0    -13.5018863     23  1.200                                             
     1     -7.0897853     23  1.500                                             
     1      9.5240782     23  1.500                                             
     2     -6.8029130      7  1.500                                             
  local pseudopotential read in
  partial core-charges read in
  partial kinetic energy density read in
  atomic valenz-charges read in
  non local Contribution for L=           0  read in
    real space projection operators read in
  non local Contribution for L=           0  read in
    real space projection operators read in
  non local Contribution for L=           1  read in
    real space projection operators read in
  non local Contribution for L=           1  read in
    real space projection operators read in
    PAW grid and wavefunctions read in
 
   number of l-projection  operators is LMAX  =           4
   number of lm-projection operators is LMMAX =           8
 
 POTCAR:    PAW_PBE C 08Apr2002                   
   SHA256 =  253f7b50bb8d59471dbedb8285d89021f4a42ed1a2c5d38a03a736e69125dd95 C/
   COPYR  = (c) Copyright 08Apr2002 Georg Kresse                                
   COPYR  = This file is part of the software VASP. Any use, copying, and all ot
   COPYR  = If you do not have a valid VASP license, you may not use, copy or di
   VRHFIN =C: s2p2                                                              
   LEXCH  = PE                                                                  
   EATOM  =   147.1560 eV,   10.8157 Ry                                         
                                                                                
   TITEL  = PAW_PBE C 08Apr2002                                                 
   LULTRA =        F    use ultrasoft PP ?                                      
   IUNSCR =        1    unscreen: 0-lin 1-nonlin 2-no                           
   RPACOR =    1.200    partial core radius                                     
   POMASS =   12.011; ZVAL   =    4.000    mass and valenz                      
   RCORE  =    1.500    outmost cutoff radius                                   
   RWIGS  =    1.630; RWIGS  =    0.863    wigner-seitz radius (au A)           
   ENMAX  =  400.000; ENMIN  =  300.000 eV                                      
   ICORE  =        2    local potential                                         
   LCOR   =        T    correct aug charges                                     
   LPAW   =        T    paw PP                                                  
   EAUG   =  644.873                                                            
   DEXC   =    0.000                                                            
   RMAX   =    1.529    core radius for proj-oper                               
   RAUG   =    1.300    factor for augmentation sphere                          
   RDEP   =    1.501    radius for radial grids                                 
   RDEPT  =    1.300    core radius for aug-charge                              
                                                                                
   Atomic configuration                                                         
    4 entries                                                                   
     n  l   j            E        occ.                                          
     1  0  0.50      -273.3789   2.0000                                         
     2  0  0.50       -13.7508   2.0000                                         
     2  1  0.50        -5.2854   2.0000                                         
     3  2  1.50        -5.4423   0.0000                                         
   Description                                                                  
     l       E           TYP  RCUT    TYP  RCUT                                 
     0    -13.7508458     23  1.200                                             
     0     -8.2022199     23  1.200                                             
     1     -5.2854383     23  1.500                                             
     1     34.0145650     23  1.500                                             
     2     -5.4423304      7  1.500                                             
  local pseudopotential read in
  partial core-charges read in
  partial kinetic energy density read in
  atomic valenz-charges read in
  non local Contribution for L=           0  read in
    real space projection operators read in
  non local Contribution for L=           0  read in
    real space projection operators read in
  non local Contribution for L=           1  read in
    real space projection operators read in
  non local Contribution for L=           1  read in
    real space projection operators read in
    PAW grid and wavefunctions read in
 
   number of l-projection  operators is LMAX  =           4
   number of lm-projection operators is LMMAX =           8
 
 POTCAR:    PAW_PBE Cr_pv 02Aug2007               
   SHA256 =  c9a7df34d3cdbacf1090e328ef39c0b420964e11c23f63548d1ac9dd218cdba0 Cr
   COPYR  = (c) Copyright 02Aug2007 Georg Kresse                                
   COPYR  = This file is part of the software VASP. Any use, copying, and all ot
   COPYR  = If you do not have a valid VASP license, you may not use, copy or di
   VRHFIN =Cr : p6d5s1                                                          
   LEXCH  = PE                                                                  
   EATOM  =  1647.9177 eV,  121.1185 Ry                                         
                                                                                
   TITEL  = PAW_PBE Cr_pv 02Aug2007                                             
   LULTRA =        F    use ultrasoft PP ?                                      
   IUNSCR =        1    unscreen: 0-lin 1-nonlin 2-no                           
   RPACOR =    2.080    partial core radius                                     
   POMASS =   51.996; ZVAL   =   12.000    mass and valenz                      
   RCORE  =    2.300    outmost cutoff radius                                   
   RWIGS  =    2.500; RWIGS  =    1.323    wigner-seitz radius (au A)           
   ENMAX  =  265.681; ENMIN  =  199.261 eV                                      
   ICORE  =        3    local potential                                         
   LCOR   =        T    correct aug charges                                     
   LPAW   =        T    paw PP                                                  
   EAUG   =  519.424                                                            
   DEXC   =    0.000                                                            
   RMAX   =    2.356    core radius for proj-oper                               
   RAUG   =    1.300    factor for augmentation sphere                          
   RDEP   =    2.447    radius for radial grids                                 
   RDEPT  =    1.882    core radius for aug-charge                              
                                                                                
   Atomic configuration                                                         
    8 entries                                                                   
     n  l   j            E        occ.                                          
     1  0  0.50     -5880.4963   2.0000                                         
     2  0  0.50      -667.0865   2.0000                                         
     2  1  1.50      -560.6250   6.0000                                         
     3  0  0.50       -73.9860   2.0000                                         
     3  1  1.50       -45.4378   6.0000                                         
     3  2  2.50        -2.9137   5.0000                                         
     4  0  0.50        -4.0071   1.0000                                         
     4  3  2.50        -1.3606   0.0000                                         
   Description                                                                  
     l       E           TYP  RCUT    TYP  RCUT                                 
     1    -45.4377911     23  2.000                                             
     1      1.3605826     23  2.000                                             
     2     -2.9136672     23  2.300                                             
     2     -4.2742498     23  2.300                                             
     0     -4.0071320     23  2.300                                             
     0      9.4498803     23  2.300                                             
     3      2.7211652     23  2.300                                             
  local pseudopotential read in
  partial core-charges read in
  partial kinetic energy density read in
  atomic valenz-charges read in
  non local Contribution for L=           1  read in
    real space projection operators read in
  non local Contribution for L=           1  read in
    real space projection operators read in
  non local Contribution for L=           2  read in
    real space projection operators read in
  non local Contribution for L=           2  read in
    real space projection operators read in
  non local Contribution for L=           0  read in
    real space projection operators read in
  non local Contribution for L=           0  read in
    real space projection operators read in
    PAW grid and wavefunctions read in
 
   number of l-projection  operators is LMAX  =           6
   number of lm-projection operators is LMMAX =          18
 
 Optimization of the real space projectors (new method)

 maximal supplied QI-value         = 25.13
 optimisation between [QCUT,QGAM] = [ 10.56, 21.36] = [ 31.20,127.80] Ry 
 Optimized for a Real-space Cutoff    1.32 Angstroem

   l    n(q)    QCUT    max X(q) W(low)/X(q) W(high)/X(q)  e(spline) 
   0      8    10.556   115.676    0.17E-03    0.39E-03    0.26E-06
   0      8    10.556    87.132    0.17E-03    0.39E-03    0.26E-06
   1      8    10.556     4.429    0.24E-03    0.31E-03    0.16E-06
   1      8    10.556     2.733    0.17E-03    0.22E-03    0.19E-06
 Optimization of the real space projectors (new method)

 maximal supplied QI-value         = 25.13
 optimisation between [QCUT,QGAM] = [ 10.56, 21.36] = [ 31.20,127.80] Ry 
 Optimized for a Real-space Cutoff    1.40 Angstroem

   l    n(q)    QCUT    max X(q) W(low)/X(q) W(high)/X(q)  e(spline) 
   0      9    10.556    79.467    0.20E-03    0.22E-03    0.30E-06
   0      9    10.556    66.151    0.20E-03    0.22E-03    0.30E-06
   1      8    10.556    12.181    0.10E-03    0.78E-03    0.19E-05
   1      8    10.556     8.434    0.11E-03    0.81E-03    0.19E-05
 Optimization of the real space projectors (new method)

 maximal supplied QI-value         = 25.13
 optimisation between [QCUT,QGAM] = [ 10.56, 21.36] = [ 31.20,127.80] Ry 
 Optimized for a Real-space Cutoff    1.32 Angstroem

   l    n(q)    QCUT    max X(q) W(low)/X(q) W(high)/X(q)  e(spline) 
   0      8    10.556   115.676    0.17E-03    0.39E-03    0.26E-06
   0      8    10.556    87.132    0.17E-03    0.39E-03    0.26E-06
   1      8    10.556     4.429    0.24E-03    0.31E-03    0.16E-06
   1      8    10.556     2.733    0.17E-03    0.22E-03    0.19E-06
 Optimization of the real space projectors (new method)

 maximal supplied QI-value         = 16.25
 optimisation between [QCUT,QGAM] = [ 10.73, 21.45] = [ 32.22,128.87] Ry 
 Optimized for a Real-space Cutoff    1.53 Angstroem

   l    n(q)    QCUT    max X(q) W(low)/X(q) W(high)/X(q)  e(spline) 
   1      9    10.726     3.262    0.64E-04    0.35E-04    0.11E-06
   1      9    10.726     5.741    0.13E-03    0.48E-04    0.19E-06
   2      9    10.726    60.438    0.12E-03    0.29E-04    0.13E-06
   2      9    10.726    55.380    0.12E-03    0.29E-04    0.13E-06
   0     10    10.726    80.273    0.43E-04    0.74E-05    0.81E-07
   0     10    10.726    36.654    0.34E-04    0.61E-05    0.73E-07
  PAW_PBE C 08Apr2002                   :
 energy of atom  1       EATOM= -147.1560
 kinetic energy error for atom=    0.0132 (will be added to EATOM!!)
  PAW_PBE N 08Apr2002                   :
 energy of atom  2       EATOM= -264.5486
 kinetic energy error for atom=    0.0298 (will be added to EATOM!!)
  PAW_PBE C 08Apr2002                   :
 energy of atom  3       EATOM= -147.1560
 kinetic energy error for atom=    0.0132 (will be added to EATOM!!)
  PAW_PBE Cr_pv 02Aug2007               :
 energy of atom  4       EATOM=-1647.9177
 kinetic energy error for atom=    0.0134 (will be added to EATOM!!)
 
 
 POSCAR: POSCAR-clean                            
  positions in direct lattice
  velocities in cartesian coordinates
 exchange correlation table for  LEXCH =        8
   RHO(1)=    0.500       N(1)  =     2000
   RHO(2)=  100.500       N(2)  =     4000

 VTST: version 3.2, (02/03/18)

 CHAIN: initializing optimizer
 
 OPT: Using VASP Conjugate-Gradient optimizer
 CHAIN: Read ICHAIN            0
 
 POSCAR: POSCAR-clean                            
  positions in direct lattice
  velocities in cartesian coordinates
 


--------------------------------------------------------------------------------------------------------


 ion  position               nearest neighbor table
   1  1.000  1.000  0.498-   2 1.42  60 1.43  70 1.44
   2  0.056  0.111  0.498-   1 1.42  13 1.42  15 1.44
   3  0.168  0.002  0.498-   4 1.42  62 1.43  60 1.43
   4  0.224  0.113  0.498-   3 1.42  15 1.42  17 1.43
   5  0.335  0.002  0.498-   6 1.42  62 1.43  64 1.43
   6  0.390  0.113  0.498-   5 1.42  19 1.43  17 1.43
   7  0.501  0.000  0.498-   8 1.42  64 1.43  66 1.43
   8  0.556  0.111  0.498-   7 1.42  21 1.42  19 1.43
   9  0.666  0.998  0.498-  10 1.41  66 1.41  68 1.42
  10  0.721  0.108  0.498-   9 1.41  23 1.42  21 1.42
  11  0.832  0.998  0.498-  12 1.42  70 1.43  68 1.43
  12  0.888  0.109  0.498-  11 1.42  23 1.42  13 1.42
  13  0.999  0.165  0.498-  14 1.42   2 1.42  12 1.42
  14  0.054  0.277  0.498-  13 1.42  25 1.42  27 1.43
  15  0.167  0.168  0.498-  16 1.42   4 1.42   2 1.44
  16  0.223  0.280  0.500-  15 1.42  27 1.43  29 1.44
  17  0.335  0.170  0.499-  18 1.42   4 1.43   6 1.43
  18  0.391  0.281  0.503-  17 1.42  29 1.44  31 1.44
  19  0.501  0.168  0.498-   6 1.43   8 1.43  20 1.43
  20  0.557  0.280  0.500-  33 1.42  19 1.43  31 1.44
  21  0.666  0.165  0.498-  22 1.42   8 1.42  10 1.42
  22  0.723  0.276  0.498-  35 1.42  21 1.42  33 1.43
  23  0.832  0.164  0.498-  10 1.42  12 1.42  24 1.43
  24  0.888  0.276  0.498-  35 1.42  23 1.43  25 1.43
  25  0.999  0.332  0.498-  14 1.42  26 1.42  24 1.43
  26  0.054  0.444  0.499-  39 1.42  37 1.42  25 1.42
  27  0.165  0.333  0.500-  28 1.42  16 1.43  14 1.43
  28  0.219  0.444  0.502-  41 1.41  27 1.42  39 1.42
  29  0.335  0.338  0.503-  30 1.42  18 1.44  16 1.44
  30  0.388  0.449  0.509-  41 1.41  29 1.42  71 2.00
  31  0.503  0.338  0.504-  32 1.42  18 1.44  20 1.44
  32  0.561  0.449  0.510-  43 1.41  31 1.42  71 2.00
  33  0.668  0.333  0.500-  34 1.42  20 1.42  22 1.43
  34  0.725  0.444  0.501-  43 1.41  33 1.42  45 1.42
  35  0.833  0.332  0.498-  24 1.42  22 1.42  36 1.43
  36  0.890  0.444  0.498-  45 1.41  37 1.42  35 1.43
  37  1.000  0.500  0.498-  36 1.42  26 1.42  38 1.42
  38  0.056  0.611  0.498-  47 1.42  49 1.42  37 1.42
  39  0.165  0.500  0.500-  26 1.42  28 1.42  40 1.42
  40  0.221  0.612  0.500-  49 1.41  51 1.42  39 1.42
  41  0.329  0.500  0.505-  30 1.41  28 1.41  42 1.43
  42  0.385  0.612  0.505-  51 1.41  53 1.41  41 1.43
  43  0.671  0.499  0.505-  32 1.41  34 1.41  44 1.44
  44  0.727  0.612  0.505-  57 1.41  55 1.41  43 1.44
  45  0.836  0.500  0.500-  36 1.41  46 1.42  34 1.42
  46  0.891  0.611  0.500-  47 1.41  45 1.42  57 1.42
  47  0.001  0.667  0.498-  46 1.41  38 1.42  48 1.42
  48  0.057  0.779  0.498-  59 1.42  61 1.42  47 1.42
  49  0.166  0.667  0.499-  40 1.41  38 1.42  50 1.42
  50  0.223  0.779  0.498-  49 1.42  61 1.42  63 1.43
  51  0.331  0.668  0.502-  42 1.41  52 1.42  40 1.42
  52  0.389  0.779  0.500-  63 1.42  51 1.42  65 1.43
  53  0.495  0.663  0.510-  54 1.41  42 1.41  71 2.00
  54  0.553  0.773  0.504-  53 1.41  67 1.44  65 1.44
  55  0.668  0.663  0.510-  44 1.41  56 1.42  71 2.00
  56  0.721  0.774  0.504-  55 1.42  69 1.44  67 1.44
  57  0.836  0.667  0.501-  44 1.41  58 1.42  46 1.42
  58  0.890  0.778  0.500-  57 1.42  69 1.42  59 1.43
  59  0.001  0.834  0.498-  60 1.42  48 1.42  58 1.43
  60  0.057  0.946  0.498-  59 1.42   1 1.43   3 1.43
  61  0.168  0.835  0.498-  62 1.42  50 1.42  48 1.42
  62  0.223  0.946  0.498-  61 1.42   3 1.43   5 1.43
  63  0.334  0.835  0.498-  64 1.42  52 1.42  50 1.43
  64  0.390  0.946  0.498-  63 1.42   7 1.43   5 1.43
  65  0.500  0.832  0.500-  66 1.42  52 1.43  54 1.44
  66  0.556  0.943  0.498-   9 1.41  65 1.42   7 1.43
  67  0.665  0.831  0.503-  68 1.41  54 1.44  56 1.44
  68  0.720  0.941  0.499-  67 1.41   9 1.42  11 1.43
  69  0.833  0.832  0.500-  70 1.42  58 1.42  56 1.44
  70  0.888  0.943  0.498-  69 1.42  11 1.43   1 1.44
  71  0.528  0.556  0.555-  32 2.00  30 2.00  53 2.00  55 2.00
 

IMPORTANT INFORMATION: All symmetrisations will be switched off!
NOSYMM: (Re-)initialisation of all symmetry stuff for point group C_1.

 
 
 KPOINTS: K-Points                                

Automatic generation of k-mesh.
Space group operators:
 irot       det(A)        alpha          n_x          n_y          n_z        tau_x        tau_y        tau_z
    1     1.000000     0.000000     1.000000     0.000000     0.000000     0.000000     0.000000     0.000000
 
 Subroutine IBZKPT returns following result:
 ===========================================
 
 Found      4 irreducible k-points:
 
 Following reciprocal coordinates:
            Coordinates               Weight
  0.000000  0.000000  0.000000      1.000000
  0.500000  0.000000  0.000000      1.000000
 -0.000000  0.500000  0.000000      1.000000
  0.500000  0.500000  0.000000      1.000000
 
 Following cartesian coordinates:
            Coordinates               Weight
  0.000000  0.000000  0.000000      1.000000
  0.033644  0.019603  0.000000      1.000000
 -0.000020  0.039206  0.000000      1.000000
  0.033624  0.058809  0.000000      1.000000
 


--------------------------------------------------------------------------------------------------------




 Dimension of arrays:
   k-points           NKPTS =      4   k-points in BZ     NKDIM =      4   number of bands    NBANDS=    184
   number of dos      NEDOS =    301   number of ions     NIONS =     71
   non local maximal  LDIM  =      6   non local SUM 2l+1 LMDIM =     18
   total plane-waves  NPLWV = ******
   max r-space proj   IRMAX =   6646   max aug-charges    IRDMAX=  15620
   dimension x,y,z NGX =   108 NGY =  108 NGZ =  108
   dimension x,y,z NGXF=   216 NGYF=  216 NGZF=  216
   support grid    NGXF=   216 NGYF=  216 NGZF=  216
   ions per type =               8   1  61   1
   NGX,Y,Z   is equivalent  to a cutoff of  12.08, 12.17, 11.97 a.u.
   NGXF,Y,Z  is equivalent  to a cutoff of  24.17, 24.34, 23.94 a.u.

 SYSTEM =  unknown system                          
 POSCAR =  POSCAR-clean                            

 Startparameter for this run:
   NWRITE =      2    write-flag & timer
   PREC   = accura    normal or accurate (medium, high low for compatibility)
   ISTART =      0    job   : 0-new  1-cont  2-samecut
   ICHARG =      2    charge: 1-file 2-atom 10-const
   ISPIN  =      2    spin polarized calculation?
   LNONCOLLINEAR =      F non collinear calculations
   LSORBIT =      F    spin-orbit coupling
   INIWAV =      1    electr: 0-lowe 1-rand  2-diag
   LASPH  =      F    aspherical Exc in radial PAW
   METAGGA=      F    non-selfconsistent MetaGGA calc.

 Electronic Relaxation 1
   ENCUT  =  440.0 eV  32.34 Ry    5.69 a.u.  25.41 25.24 25.66*2*pi/ulx,y,z
   ENINI  =  440.0     initial cutoff
   ENAUG  =  644.9 eV  augmentation charge cutoff
   NELM   =     50;   NELMIN=  2; NELMDL= -5     # of ELM steps 
   EDIFF  = 0.1E-04   stopping-criterion for ELM
   LREAL  =      T    real-space projection
   NLSPLINE    = F    spline interpolate recip. space projectors
   LCOMPAT=      F    compatible to vasp.4.4
   GGA_COMPAT  = T    GGA compatible to vasp.4.4-vasp.4.6
   LMAXPAW     = -100 max onsite density
   LMAXMIX     =    2 max onsite mixed and CHGCAR
   VOSKOWN=      0    Vosko Wilk Nusair interpolation
   ROPT   =   -0.00025  -0.00025  -0.00025  -0.00025
 Ionic relaxation
   EDIFFG = -.5E-01   stopping-criterion for IOM
   NSW    =    400    number of steps for IOM
   NBLOCK =      1;   KBLOCK =    400    inner block; outer block 
   IBRION =      2    ionic relax: 0-MD 1-quasi-New 2-CG
   NFREE  =      1    steps in history (QN), initial steepest desc. (CG)
   ISIF   =      2    stress and relaxation
   IWAVPR =     11    prediction:  0-non 1-charg 2-wave 3-comb
   ISYM   =      0    0-nonsym 1-usesym 2-fastsym
   LCORR  =      T    Harris-Foulkes like correction to forces

   POTIM  = 0.3000    time-step for ionic-motion
   TEIN   =    0.0    initial temperature
   TEBEG  =    0.0;   TEEND  =   0.0 temperature during run
   SMASS  =  -3.00    Nose mass-parameter (am)
   estimated Nose-frequenzy (Omega)   =  0.10E-29 period in steps =****** mass=  -0.504E-26a.u.
   SCALEE = 1.0000    scale energy and forces
   NPACO  =    256;   APACO  = 16.0  distance and # of slots for P.C.
   PSTRESS=    0.0 pullay stress

  Mass of Ions in am
   POMASS =  12.01 14.00 12.01 52.00
  Ionic Valenz
   ZVAL   =   4.00  5.00  4.00 12.00
  Atomic Wigner-Seitz radii
   RWIGS  =  -1.00 -1.00 -1.00 -1.00
  virtual crystal weights 
   VCA    =   1.00  1.00  1.00  1.00
   NELECT =     293.0000    total number of electrons
   NUPDOWN=      -1.0000    fix difference up-down

 DOS related values:
   EMIN   =  10.00;   EMAX   =-10.00  energy-range for DOS
   EFERMI =   0.00
   ISMEAR =     0;   SIGMA  =   0.10  broadening in eV -4-tet -1-fermi 0-gaus

 Electronic relaxation 2 (details)
   IALGO  =     68    algorithm
   LDIAG  =      T    sub-space diagonalisation (order eigenvalues)
   LSUBROT=      F    optimize rotation matrix (better conditioning)
   TURBO    =      0    0=normal 1=particle mesh
   IRESTART =      0    0=no restart 2=restart with 2 vectors
   NREBOOT  =      0    no. of reboots
   NMIN     =      0    reboot dimension
   EREF     =   0.00    reference energy to select bands
   IMIX   =      4    mixing-type and parameters
     AMIX     =   0.40;   BMIX     =  1.00
     AMIX_MAG =   1.60;   BMIX_MAG =  1.00
     AMIN     =   0.10
     WC   =   100.;   INIMIX=   1;  MIXPRE=   1;  MAXMIX= -45

 Intra band minimization:
   WEIMIN = 0.0010     energy-eigenvalue tresh-hold
   EBREAK =  0.14E-07  absolut break condition
   DEPER  =   0.30     relativ break condition  

   TIME   =   0.40     timestep for ELM

  volume/ion in A,a.u.               =      40.03       270.14
  Fermi-wavevector in a.u.,A,eV,Ry     =   0.767624  1.450598  8.017178  0.589246
  Thomas-Fermi vector in A             =   1.868220
 
 Write flags
   LWAVE        =      F    write WAVECAR
   LDOWNSAMPLE  =      F    k-point downsampling of WAVECAR
   LCHARG       =      F    write CHGCAR
   LVTOT        =      F    write LOCPOT, total local potential
   LVHAR        =      F    write LOCPOT, Hartree potential only
   LELF         =      F    write electronic localiz. function (ELF)
   LORBIT       =      0    0 simple, 1 ext, 2 COOP (PROOUT), +10 PAW based schemes


 Dipole corrections
   LMONO  =      F    monopole corrections only (constant potential shift)
   LDIPOL =      F    correct potential (dipole corrections)
   IDIPOL =      0    1-x, 2-y, 3-z, 4-all directions 
   EPSILON=  1.0000000 bulk dielectric constant

 Exchange correlation treatment:
   GGA     =    --    GGA type
   LEXCH   =     8    internal setting for exchange type
   VOSKOWN=      0    Vosko Wilk Nusair interpolation
   LHFCALC =     F    Hartree Fock is set to
   LHFONE  =     F    Hartree Fock one center treatment
   AEXX    =    0.0000 exact exchange contribution

 Linear response parameters
   LEPSILON=     F    determine dielectric tensor
   LRPA    =     F    only Hartree local field effects (RPA)
   LNABLA  =     F    use nabla operator in PAW spheres
   LVEL    =     F    velocity operator in full k-point grid
   LINTERFAST=   F  fast interpolation
   KINTER  =     0    interpolate to denser k-point grid
   CSHIFT  =0.1000    complex shift for real part using Kramers Kronig
   OMEGAMAX=  -1.0    maximum frequency
   DEG_THRESHOLD= 0.2000000E-02 threshold for treating states as degnerate
   RTIME   =   -0.100 relaxation time in fs
  (WPLASMAI=    0.000 imaginary part of plasma frequency in eV, 0.658/RTIME)
   DFIELD  = 0.0000000 0.0000000 0.0000000 field for delta impulse in time
 
 Orbital magnetization related:
   ORBITALMAG=     F  switch on orbital magnetization
   LCHIMAG   =     F  perturbation theory with respect to B field
   DQ        =  0.001000  dq finite difference perturbation B field
   LLRAUG    =     F  two centre corrections for induced B field



--------------------------------------------------------------------------------------------------------


 conjugate gradient relaxation of ions
 charge density and potential will be updated during run
 spin polarized calculation
 RMM-DIIS sequential band-by-band and
  variant of blocked Davidson during initial phase
 perform sub-space diagonalisation
    before iterative eigenvector-optimisation
 modified Broyden-mixing scheme, WC =      100.0
 initial mixing is a Kerker type mixing with AMIX =  0.4000 and BMIX =      1.0000
 Hartree-type preconditioning will be used
 using additional bands           37
 real space projection scheme for non local part
 use partial core corrections
 calculate Harris-corrections to forces 
   (improved forces if not selfconsistent)
 use gradient corrections 
 use of overlap-Matrix (Vanderbilt PP)
 Gauss-broadening in eV      SIGMA  =   0.10


--------------------------------------------------------------------------------------------------------


  energy-cutoff  :      440.00
  volume of cell :     2842.15
      direct lattice vectors                 reciprocal lattice vectors
    14.857142946  0.007480851  0.000000000     0.067287951  0.039205712  0.000000000
    -7.428571473 12.749503263  0.000000000    -0.000039482  0.078411424  0.000000000
     0.000000000  0.000000000 15.000000000     0.000000000  0.000000000  0.066666667

  length of vectors
    14.857144830 14.755795728 15.000000000     0.077876545  0.078411434  0.066666667


 
 k-points in units of 2pi/SCALE and weight: K-Points                                
   0.00000000  0.00000000  0.00000000       0.250
   0.03364398  0.01960286  0.00000000       0.250
  -0.00001974  0.03920571  0.00000000       0.250
   0.03362423  0.05880857  0.00000000       0.250
 
 k-points in reciprocal lattice and weights: K-Points                                
   0.00000000  0.00000000  0.00000000       0.250
   0.50000000  0.00000000  0.00000000       0.250
  -0.00000000  0.50000000  0.00000000       0.250
   0.50000000  0.50000000  0.00000000       0.250
 
 position of ions in fractional coordinates (direct lattice) 
   0.99965571  0.99983464  0.49763922
   0.05559686  0.11121485  0.49772253
   0.16796978  0.00193219  0.49752789
   0.22355395  0.11333045  0.49823630
   0.33470343  0.00201555  0.49772145
   0.39005227  0.11318596  0.49837176
   0.50098837  0.00003849  0.49770881
   0.55565112  0.11138377  0.49765897
   0.66581778  0.99778799  0.49829827
   0.72108981  0.10818080  0.49763268
   0.83163691  0.99811005  0.49832479
   0.88795541  0.10916327  0.49771906
   0.99892222  0.16540090  0.49780903
   0.05428529  0.27678917  0.49848396
   0.16737124  0.16806729  0.49836306
   0.22304627  0.27969463  0.50007948
   0.33520575  0.17008575  0.49940083
   0.39080666  0.28138167  0.50253367
   0.50107395  0.16791953  0.49839463
   0.55708227  0.27974705  0.50005885
   0.66646921  0.16453330  0.49756284
   0.72266870  0.27610471  0.49802146
   0.83171937  0.16386850  0.49763847
   0.88751577  0.27577173  0.49774912
   0.99874062  0.33192349  0.49830276
   0.05429971  0.44362183  0.49875375
   0.16531041  0.33296125  0.50001692
   0.21917558  0.44401847  0.50172113
   0.33548788  0.33790533  0.50337948
   0.38798556  0.44896175  0.50934785
   0.50292182  0.33793035  0.50361390
   0.56122743  0.44867471  0.50977885
   0.66772810  0.33253618  0.49964608
   0.72484732  0.44376714  0.50125160
   0.83324415  0.33194662  0.49790082
   0.88953415  0.44378261  0.49824396
   0.99993872  0.49978373  0.49826871
   0.05571607  0.61131322  0.49826347
   0.16462298  0.49986110  0.50028580
   0.22052445  0.61152889  0.50026830
   0.32919955  0.49964446  0.50523306
   0.38523526  0.61193557  0.50519781
   0.67062237  0.49939156  0.50522561
   0.72676247  0.61208561  0.50513919
   0.83550883  0.49983297  0.49954759
   0.89114888  0.61126823  0.49954878
   0.00131120  0.66730986  0.49824827
   0.05672088  0.77896792  0.49789892
   0.16641264  0.66746997  0.49875204
   0.22255113  0.77893783  0.49830768
   0.33129455  0.66767223  0.50165728
   0.38865096  0.77900613  0.49995596
   0.49495268  0.66271979  0.50950251
   0.55287282  0.77288710  0.50355015
   0.66801843  0.66301789  0.50961517
   0.72057538  0.77398599  0.50352422
   0.83646773  0.66735574  0.50118653
   0.89030786  0.77836503  0.49961902
   0.00135768  0.83448997  0.49801887
   0.05652970  0.94563949  0.49753005
   0.16761368  0.83485340  0.49773689
   0.22338854  0.94625875  0.49760167
   0.33357723  0.83452760  0.49846816
   0.38985304  0.94557707  0.49780449
   0.50007324  0.83226280  0.50002180
   0.55592663  0.94342151  0.49835217
   0.66478809  0.83062157  0.50258881
   0.71994801  0.94137761  0.49947000
   0.83264860  0.83159689  0.50002206
   0.88773114  0.94301109  0.49839457
   0.52802790  0.55566938  0.55524010
 
 position of ions in cartesian coordinates  (Angst):
   7.42468473 12.75487333  7.46458836
  -0.00015692  1.41835002  7.46583801
   2.48119772  0.02589097  7.46291840
   2.47948967  1.44657926  7.47354457
   4.95776404  0.02820108  7.46582180
   4.95425238  1.44598266  7.47557636
   7.44296993  0.00423855  7.46563211
   7.42796589  1.42424446  7.46488458
   2.48001052 12.72628213  7.47447412
   9.90970552  1.38464581  7.46449015
   4.94121655 12.73162868  7.47487186
  12.38155328  1.39842014  7.46578586
  13.61243782  2.11625211  7.46713550
  -1.24962382  3.52933049  7.47725937
   1.23815852  2.14402657  7.47544595
   1.23609880  3.56763616  7.50119214
   3.71670568  2.17101640  7.49101240
   3.71600658  3.59040010  7.53800504
   6.19712511  2.14463905  7.47591952
   6.19852993  3.57080339  7.50088278
   8.67958095  2.10270363  7.46344256
   8.68572859  3.52560410  7.47032194
  11.13966481  2.09546388  7.46457698
  11.13735861  3.52259192  7.46623683
  12.37271479  4.23933109  7.47454138
  -2.48873785  5.65636419  7.48130620
  -0.01738609  4.24632718  7.50025377
  -0.04209997  5.66265450  7.52581690
   2.47423751  4.31063485  7.55069218
   2.42921249  5.72694182  7.64021768
   4.96164162  4.31220636  7.55420850
   5.00522391  5.72457820  7.64668280
   7.45026307  4.24466627  7.49469124
   7.47260432  5.66323301  7.51877406
   9.91373818  4.23838794  7.46851233
   9.91926514  5.66466231  7.47365939
  11.14355343  6.37947465  7.47403061
  -3.71340225  7.79435668  7.47395204
  -1.26742685  6.37421231  7.50428700
  -1.26642274  7.79833930  7.50402453
   1.17932017  6.37268134  7.57849597
   1.17768818  7.80475639  7.57796708
   6.25376643  6.37201118  7.57838416
   6.25069217  7.80922434  7.57708787
   8.70022916  6.37887235  7.49321387
   8.69907654  7.80003290  7.49323175
  -4.93767826  8.50787901  7.47372408
  -4.94390870  9.93187842  7.46848384
  -2.48593205  8.51115547  7.48128061
  -2.47992136  9.93273522  7.47461520
  -0.03776034  8.51496760  7.52485916
  -0.01265982  9.93484861  7.49933939
   2.43052145  8.45305080  7.64253767
   2.47266349  9.85806261  7.55325226
   4.99956953  8.45814606  7.64422756
   4.95608115  9.87332743  7.55286333
   7.47002092  8.51471164  7.51779799
   7.44529089  9.93042770  7.49428527
  -6.17889710 10.63934273  7.47028300
  -6.18488073 12.05685667  7.46295080
  -3.71150774 10.64522008  7.46605331
  -3.71043537 12.06600022  7.46402512
  -1.24334338 10.64230780  7.47702240
  -1.23218449 12.05855440  7.46706737
   1.24713593 10.61467828  7.50032704
   1.25120724 12.03231448  7.47528260
   3.70652005 10.59498557  7.53883217
   3.70327964 12.00748268  7.49205007
   6.19320230 10.60867619  7.50033091
   6.18392314 12.02956395  7.47591859
   3.71715630  7.08845863  8.32860149
 


--------------------------------------------------------------------------------------------------------


 k-point  1 :   0.0000 0.0000 0.0000  plane waves:   59569
 k-point  2 :   0.5000 0.0000 0.0000  plane waves:   59550
 k-point  3 :  -0.0000 0.5000 0.0000  plane waves:   59618
 k-point  4 :   0.5000 0.5000 0.0000  plane waves:   59526

 maximum and minimum number of plane-waves per node :      4992     4933

 maximum number of plane-waves:     59618
 maximum index in each direction: 
   IXMAX=   25   IYMAX=   25   IZMAX=   25
   IXMIN=  -25   IYMIN=  -25   IZMIN=  -25


 real space projection operators:
  total allocation   :      18903.58 KBytes
  max/ min on nodes  :       1624.41       1540.56


 parallel 3D FFT for wavefunctions:
    minimum data exchange during FFTs selected (reduces bandwidth)
 parallel 3D FFT for charge:
    minimum data exchange during FFTs selected (reduces bandwidth)


 total amount of memory used by VASP MPI-rank0   111476. kBytes
=======================================================================

   base      :      30000. kBytes
   nonlr-proj:       9908. kBytes
   fftplans  :      10852. kBytes
   grid      :      30996. kBytes
   one-center:        186. kBytes
   wavefun   :      29534. kBytes
 
     INWAV:  cpu time    0.0000: real time    0.0000
 Broyden mixing: mesh for mixing (old mesh)
   NGX = 51   NGY = 51   NGZ = 51
  (NGX  =216   NGY  =216   NGZ  =216)
  gives a total of 132651 points

 initial charge density was supplied:
 charge density of overlapping atoms calculated
 number of electron     293.0000000 magnetization       1.0000000
 keeping initial charge density in first step


--------------------------------------------------------------------------------------------------------


 Maximum index for non-local projection operator          551
 Maximum index for augmentation-charges          330 (set IRDMAX)


--------------------------------------------------------------------------------------------------------


 First call to EWALD:  gamma=   0.125
 Maximum number of real-space cells 3x 3x 3
 Maximum number of reciprocal cells 3x 3x 3

    FEWALD:  cpu time    0.0043: real time    0.0045


--------------------------------------- Iteration      1(   1)  ---------------------------------------


    POTLOK:  cpu time    0.3819: real time    0.4170
    SETDIJ:  cpu time    0.0126: real time    0.0127
     EDDAV:  cpu time   11.6490: real time   11.7906
       DOS:  cpu time    0.0012: real time    0.0012
    --------------------------------------------
      LOOP:  cpu time   12.0447: real time   12.2214

 eigenvalue-minimisations  :  3408
 total energy-change (2. order) : 0.2433694E+04  (-0.1083601E+05)
 number of electron     293.0000000 magnetization       1.0000000
 augmentation part      293.0000000 magnetization       1.0000000

 Free energy of the ion-electron system (eV)
  ---------------------------------------------------
  alpha Z        PSCENC =       157.28496059
  Ewald energy   TEWEN  =     30452.18557587
  -Hartree energ DENC   =    -39614.36101655
  -exchange      EXHF   =         0.00000000
  -V(xc)+E(xc)   XCENC  =       982.95575587
  PAW double counting   =      9000.30529238    -9089.18527416
  entropy T*S    EENTRO =        -0.10723357
  eigenvalues    EBANDS =     -1520.66123872
  atomic energy  EATOM  =     12065.27733323
  Solvation  Ediel_sol  =         0.00000000
  ---------------------------------------------------
  free energy    TOTEN  =      2433.69415495 eV

  energy without entropy =     2433.80138852  energy(sigma->0) =     2433.74777173


--------------------------------------------------------------------------------------------------------




--------------------------------------- Iteration      1(   2)  ---------------------------------------


     EDDAV:  cpu time   14.7017: real time   14.9936
       DOS:  cpu time    0.0010: real time    0.0010
    --------------------------------------------
      LOOP:  cpu time   14.7027: real time   14.9946

 eigenvalue-minimisations  :  4216
 total energy-change (2. order) :-0.2668370E+04  (-0.2551205E+04)
 number of electron     293.0000000 magnetization       1.0000000
 augmentation part      293.0000000 magnetization       1.0000000

 Free energy of the ion-electron system (eV)
  ---------------------------------------------------
  alpha Z        PSCENC =       157.28496059
  Ewald energy   TEWEN  =     30452.18557587
  -Hartree energ DENC   =    -39614.36101655
  -exchange      EXHF   =         0.00000000
  -V(xc)+E(xc)   XCENC  =       982.95575587
  PAW double counting   =      9000.30529238    -9089.18527416
  entropy T*S    EENTRO =        -0.02147389
  eigenvalues    EBANDS =     -4189.11699478
  atomic energy  EATOM  =     12065.27733323
  Solvation  Ediel_sol  =         0.00000000
  ---------------------------------------------------
  free energy    TOTEN  =      -234.67584144 eV

  energy without entropy =     -234.65436754  energy(sigma->0) =     -234.66510449


--------------------------------------------------------------------------------------------------------




--------------------------------------- Iteration      1(   3)  ---------------------------------------


     EDDAV:  cpu time   12.5064: real time   12.6516
       DOS:  cpu time    0.0009: real time    0.0009
    --------------------------------------------
      LOOP:  cpu time   12.5073: real time   12.6525

 eigenvalue-minimisations  :  3552
 total energy-change (2. order) :-0.4527927E+03  (-0.4500467E+03)
 number of electron     293.0000000 magnetization       1.0000000
 augmentation part      293.0000000 magnetization       1.0000000

 Free energy of the ion-electron system (eV)
  ---------------------------------------------------
  alpha Z        PSCENC =       157.28496059
  Ewald energy   TEWEN  =     30452.18557587
  -Hartree energ DENC   =    -39614.36101655
  -exchange      EXHF   =         0.00000000
  -V(xc)+E(xc)   XCENC  =       982.95575587
  PAW double counting   =      9000.30529238    -9089.18527416
  entropy T*S    EENTRO =        -0.03278681
  eigenvalues    EBANDS =     -4641.89837218
  atomic energy  EATOM  =     12065.27733323
  Solvation  Ediel_sol  =         0.00000000
  ---------------------------------------------------
  free energy    TOTEN  =      -687.46853176 eV

  energy without entropy =     -687.43574495  energy(sigma->0) =     -687.45213836


--------------------------------------------------------------------------------------------------------




--------------------------------------- Iteration      1(   4)  ---------------------------------------


     EDDAV:  cpu time   12.9931: real time   13.2461
       DOS:  cpu time    0.0009: real time    0.0009
    --------------------------------------------
      LOOP:  cpu time   12.9940: real time   13.2470

 eigenvalue-minimisations  :  3560
 total energy-change (2. order) :-0.1661351E+02  (-0.1646258E+02)
 number of electron     293.0000000 magnetization       1.0000000
 augmentation part      293.0000000 magnetization       1.0000000

 Free energy of the ion-electron system (eV)
  ---------------------------------------------------
  alpha Z        PSCENC =       157.28496059
  Ewald energy   TEWEN  =     30452.18557587
  -Hartree energ DENC   =    -39614.36101655
  -exchange      EXHF   =         0.00000000
  -V(xc)+E(xc)   XCENC  =       982.95575587
  PAW double counting   =      9000.30529238    -9089.18527416
  entropy T*S    EENTRO =        -0.03322003
  eigenvalues    EBANDS =     -4658.51145298
  atomic energy  EATOM  =     12065.27733323
  Solvation  Ediel_sol  =         0.00000000
  ---------------------------------------------------
  free energy    TOTEN  =      -704.08204578 eV

  energy without entropy =     -704.04882574  energy(sigma->0) =     -704.06543576


--------------------------------------------------------------------------------------------------------




--------------------------------------- Iteration      1(   5)  ---------------------------------------


     EDDAV:  cpu time   13.9727: real time   14.2147
       DOS:  cpu time    0.0010: real time    0.0010
    CHARGE:  cpu time    0.5038: real time    0.5120
    MIXING:  cpu time    0.0072: real time    0.0086
    --------------------------------------------
      LOOP:  cpu time   14.4847: real time   14.7363

 eigenvalue-minimisations  :  4040
 total energy-change (2. order) :-0.5421937E+00  (-0.5402592E+00)
 number of electron     292.9999987 magnetization       0.7754951
 augmentation part       11.6665635 magnetization       0.7588290

 Broyden mixing:
  rms(total) = 0.46866E+01    rms(broyden)= 0.46861E+01
  rms(prec ) = 0.54440E+01
  weight for this iteration     100.00

 Free energy of the ion-electron system (eV)
  ---------------------------------------------------
  alpha Z        PSCENC =       157.28496059
  Ewald energy   TEWEN  =     30452.18557587
  -Hartree energ DENC   =    -39614.36101655
  -exchange      EXHF   =         0.00000000
  -V(xc)+E(xc)   XCENC  =       982.95575587
  PAW double counting   =      9000.30529238    -9089.18527416
  entropy T*S    EENTRO =        -0.03336023
  eigenvalues    EBANDS =     -4659.05350643
  atomic energy  EATOM  =     12065.27733323
  Solvation  Ediel_sol  =         0.00000000
  ---------------------------------------------------
  free energy    TOTEN  =      -704.62423943 eV

  energy without entropy =     -704.59087919  energy(sigma->0) =     -704.60755931


--------------------------------------------------------------------------------------------------------




--------------------------------------- Iteration      1(   6)  ---------------------------------------


    POTLOK:  cpu time    0.4123: real time    0.4233
    SETDIJ:  cpu time    0.0125: real time    0.0132
    EDDIAG:  cpu time    2.1545: real time    2.1900
  RMM-DIIS:  cpu time   11.5947: real time   11.6897
    ORTHCH:  cpu time    0.1691: real time    0.1701
       DOS:  cpu time    0.0009: real time    0.0009
    CHARGE:  cpu time    0.5018: real time    0.5124
    MIXING:  cpu time    0.0072: real time    0.0105
    --------------------------------------------
      LOOP:  cpu time   14.8530: real time   15.0102

 eigenvalue-minimisations  :  4097
 total energy-change (2. order) :-0.2768991E+02  (-0.5310180E+02)
 number of electron     292.9999991 magnetization       0.7189102
 augmentation part       17.3742241 magnetization       0.9237244

 Broyden mixing:
  rms(total) = 0.84350E+01    rms(broyden)= 0.84347E+01
  rms(prec ) = 0.93199E+01
  weight for this iteration     100.00

 eigenvalues of (default mixing * dielectric matrix)
  average eigenvalue GAMMA=   0.2145
  0.2145

 Free energy of the ion-electron system (eV)
  ---------------------------------------------------
  alpha Z        PSCENC =       157.28496059
  Ewald energy   TEWEN  =     30452.18557587
  -Hartree energ DENC   =    -39908.08531614
  -exchange      EXHF   =         0.00000000
  -V(xc)+E(xc)   XCENC  =       996.78273450
  PAW double counting   =     15333.91898563   -15422.55925097
  entropy T*S    EENTRO =        -0.05356224
  eigenvalues    EBANDS =     -4407.06561111
  atomic energy  EATOM  =     12065.27733323
  Solvation  Ediel_sol  =         0.00000000
  ---------------------------------------------------
  free energy    TOTEN  =      -732.31415063 eV

  energy without entropy =     -732.26058840  energy(sigma->0) =     -732.28736952


--------------------------------------------------------------------------------------------------------




--------------------------------------- Iteration      1(   7)  ---------------------------------------


    POTLOK:  cpu time    0.3978: real time    0.4015
    SETDIJ:  cpu time    0.0124: real time    0.0125
    EDDIAG:  cpu time    2.0253: real time    2.0424
  RMM-DIIS:  cpu time    8.7064: real time    8.7820
    ORTHCH:  cpu time    0.6813: real time    0.6826
       DOS:  cpu time    0.0009: real time    0.0009
    CHARGE:  cpu time    0.5233: real time    0.5304
    MIXING:  cpu time    0.0089: real time    0.0101
    --------------------------------------------
      LOOP:  cpu time   12.3563: real time   12.4623

 eigenvalue-minimisations  :  3044
 total energy-change (2. order) : 0.7009115E+02  (-0.5406637E+01)
 number of electron     292.9999989 magnetization       0.6153281
 augmentation part       15.2119873 magnetization       0.6134121

 Broyden mixing:
  rms(total) = 0.31755E+01    rms(broyden)= 0.31751E+01
  rms(prec ) = 0.38012E+01
  weight for this iteration     100.00

 eigenvalues of (default mixing * dielectric matrix)
  average eigenvalue GAMMA=   0.4693
  0.5361  0.4025

 Free energy of the ion-electron system (eV)
  ---------------------------------------------------
  alpha Z        PSCENC =       157.28496059
  Ewald energy   TEWEN  =     30452.18557587
  -Hartree energ DENC   =    -40029.72386848
  -exchange      EXHF   =         0.00000000
  -V(xc)+E(xc)   XCENC  =      1001.36920191
  PAW double counting   =     16952.95539844   -17048.38538127
  entropy T*S    EENTRO =        -0.00001150
  eigenvalues    EBANDS =     -4213.18620983
  atomic energy  EATOM  =     12065.27733323
  Solvation  Ediel_sol  =         0.00000000
  ---------------------------------------------------
  free energy    TOTEN  =      -662.22300104 eV

  energy without entropy =     -662.22298954  energy(sigma->0) =     -662.22299529


--------------------------------------------------------------------------------------------------------




--------------------------------------- Iteration      1(   8)  ---------------------------------------


    POTLOK:  cpu time    0.4042: real time    0.4080
    SETDIJ:  cpu time    0.0124: real time    0.0125
    EDDIAG:  cpu time    2.0541: real time    2.0708
  RMM-DIIS:  cpu time    8.9433: real time    9.0082
    ORTHCH:  cpu time    0.5141: real time    0.5156
       DOS:  cpu time    0.0011: real time    0.0010
    CHARGE:  cpu time    0.5101: real time    0.5165
    MIXING:  cpu time    0.0091: real time    0.0098
    --------------------------------------------
      LOOP:  cpu time   12.4485: real time   12.5425

 eigenvalue-minimisations  :  3133
 total energy-change (2. order) :-0.7633980E-01  (-0.2165684E+01)
 number of electron     292.9999986 magnetization       0.3434580
 augmentation part       11.2384515 magnetization       0.3075226

 Broyden mixing:
  rms(total) = 0.28334E+01    rms(broyden)= 0.28325E+01
  rms(prec ) = 0.34702E+01
  weight for this iteration     100.00

 eigenvalues of (default mixing * dielectric matrix)
  average eigenvalue GAMMA=   0.8613
  1.9045  0.3397  0.3397

 Free energy of the ion-electron system (eV)
  ---------------------------------------------------
  alpha Z        PSCENC =       157.28496059
  Ewald energy   TEWEN  =     30452.18557587
  -Hartree energ DENC   =    -40212.94764708
  -exchange      EXHF   =         0.00000000
  -V(xc)+E(xc)   XCENC  =      1008.18022452
  PAW double counting   =     20008.05007034   -20107.47493172
  entropy T*S    EENTRO =        -0.02601106
  eigenvalues    EBANDS =     -4032.82891554
  atomic energy  EATOM  =     12065.27733323
  Solvation  Ediel_sol  =         0.00000000
  ---------------------------------------------------
  free energy    TOTEN  =      -662.29934084 eV

  energy without entropy =     -662.27332978  energy(sigma->0) =     -662.28633531


--------------------------------------------------------------------------------------------------------




--------------------------------------- Iteration      1(   9)  ---------------------------------------


    POTLOK:  cpu time    0.3755: real time    0.3792
    SETDIJ:  cpu time    0.0166: real time    0.0168
    EDDIAG:  cpu time    2.0563: real time    2.0741
  RMM-DIIS:  cpu time    8.6186: real time    8.6781
    ORTHCH:  cpu time    0.3631: real time    0.3862
       DOS:  cpu time    0.0009: real time    0.0009
    CHARGE:  cpu time    0.4720: real time    0.4779
    MIXING:  cpu time    0.0084: real time    0.0085
    --------------------------------------------
      LOOP:  cpu time   11.9115: real time   12.0215

 eigenvalue-minimisations  :  2973
 total energy-change (2. order) : 0.1502651E+02  (-0.2035560E+01)
 number of electron     292.9999989 magnetization       0.2618126
 augmentation part       12.2465824 magnetization       0.2653199

 Broyden mixing:
  rms(total) = 0.11128E+01    rms(broyden)= 0.11122E+01
  rms(prec ) = 0.12408E+01
  weight for this iteration     100.00

 eigenvalues of (default mixing * dielectric matrix)
  average eigenvalue GAMMA=   0.9232
  2.2330  0.7610  0.3494  0.3494

 Free energy of the ion-electron system (eV)
  ---------------------------------------------------
  alpha Z        PSCENC =       157.28496059
  Ewald energy   TEWEN  =     30452.18557587
  -Hartree energ DENC   =    -40520.73708529
  -exchange      EXHF   =         0.00000000
  -V(xc)+E(xc)   XCENC  =      1021.08267865
  PAW double counting   =     28523.51699563   -28625.68392511
  entropy T*S    EENTRO =        -0.01305789
  eigenvalues    EBANDS =     -3720.18630346
  atomic energy  EATOM  =     12065.27733323
  Solvation  Ediel_sol  =         0.00000000
  ---------------------------------------------------
  free energy    TOTEN  =      -647.27282776 eV

  energy without entropy =     -647.25976987  energy(sigma->0) =     -647.26629881


--------------------------------------------------------------------------------------------------------




--------------------------------------- Iteration      1(  10)  ---------------------------------------


    POTLOK:  cpu time    0.3829: real time    0.3880
    SETDIJ:  cpu time    0.0122: real time    0.0122
    EDDIAG:  cpu time    2.0508: real time    2.0671
  RMM-DIIS:  cpu time    8.5968: real time    8.6692
    ORTHCH:  cpu time    0.3651: real time    0.3661
       DOS:  cpu time    0.0009: real time    0.0009
    CHARGE:  cpu time    0.5024: real time    0.5096
    MIXING:  cpu time    0.0088: real time    0.0089
    --------------------------------------------
      LOOP:  cpu time   11.9200: real time   12.0220

 eigenvalue-minimisations  :  3005
 total energy-change (2. order) :-0.4971963E+00  (-0.2779846E+00)
 number of electron     292.9999988 magnetization       0.2083891
 augmentation part       13.7488196 magnetization       0.2298653

 Broyden mixing:
  rms(total) = 0.14244E+01    rms(broyden)= 0.14224E+01
  rms(prec ) = 0.17684E+01
  weight for this iteration     100.00

 eigenvalues of (default mixing * dielectric matrix)
  average eigenvalue GAMMA=   0.9244
  2.3544  1.0779  0.3472  0.3472  0.4952

 Free energy of the ion-electron system (eV)
  ---------------------------------------------------
  alpha Z        PSCENC =       157.28496059
  Ewald energy   TEWEN  =     30452.18557587
  -Hartree energ DENC   =    -40563.42957662
  -exchange      EXHF   =         0.00000000
  -V(xc)+E(xc)   XCENC  =      1021.94996879
  PAW double counting   =     30040.04358065   -30141.04111150
  entropy T*S    EENTRO =        -0.00358381
  eigenvalues    EBANDS =     -3680.03717127
  atomic energy  EATOM  =     12065.27733323
  Solvation  Ediel_sol  =         0.00000000
  ---------------------------------------------------
  free energy    TOTEN  =      -647.77002406 eV

  energy without entropy =     -647.76644026  energy(sigma->0) =     -647.76823216


--------------------------------------------------------------------------------------------------------




--------------------------------------- Iteration      1(  11)  ---------------------------------------


    POTLOK:  cpu time    0.4012: real time    0.4049
    SETDIJ:  cpu time    0.0127: real time    0.0128
    EDDIAG:  cpu time    2.0811: real time    2.0983
  RMM-DIIS:  cpu time    8.8481: real time    8.9173
    ORTHCH:  cpu time    0.2114: real time    0.2120
       DOS:  cpu time    0.0010: real time    0.0010
    CHARGE:  cpu time    0.5060: real time    0.5118
    MIXING:  cpu time    0.0091: real time    0.0094
    --------------------------------------------
      LOOP:  cpu time   12.0705: real time   12.1675

 eigenvalue-minimisations  :  3106
 total energy-change (2. order) : 0.1011658E+01  (-0.4205539E-01)
 number of electron     292.9999989 magnetization       0.1470906
 augmentation part       12.5083274 magnetization       0.1148570

 Broyden mixing:
  rms(total) = 0.77129E+00    rms(broyden)= 0.76864E+00
  rms(prec ) = 0.82737E+00
  weight for this iteration     100.00

 eigenvalues of (default mixing * dielectric matrix)
  average eigenvalue GAMMA=   0.9882
  2.1044  2.1044  0.6660  0.3448  0.3448  0.3651

 Free energy of the ion-electron system (eV)
  ---------------------------------------------------
  alpha Z        PSCENC =       157.28496059
  Ewald energy   TEWEN  =     30452.18557587
  -Hartree energ DENC   =    -40596.63034955
  -exchange      EXHF   =         0.00000000
  -V(xc)+E(xc)   XCENC  =      1022.38614149
  PAW double counting   =     30709.70808381   -30810.04379349
  entropy T*S    EENTRO =        -0.03062770
  eigenvalues    EBANDS =     -3646.89569071
  atomic energy  EATOM  =     12065.27733323
  Solvation  Ediel_sol  =         0.00000000
  ---------------------------------------------------
  free energy    TOTEN  =      -646.75836645 eV

  energy without entropy =     -646.72773875  energy(sigma->0) =     -646.74305260


--------------------------------------------------------------------------------------------------------




--------------------------------------- Iteration      1(  12)  ---------------------------------------


    POTLOK:  cpu time    0.4046: real time    0.4080
    SETDIJ:  cpu time    0.0126: real time    0.0127
    EDDIAG:  cpu time    2.0482: real time    2.0648
  RMM-DIIS:  cpu time    8.3884: real time    8.4542
    ORTHCH:  cpu time    0.2281: real time    0.2289
       DOS:  cpu time    0.0011: real time    0.0011
    CHARGE:  cpu time    0.4881: real time    0.4939
    MIXING:  cpu time    0.0087: real time    0.0090
    --------------------------------------------
      LOOP:  cpu time   11.5797: real time   11.6725

 eigenvalue-minimisations  :  2944
 total energy-change (2. order) : 0.1015651E+00  (-0.1750347E-01)
 number of electron     292.9999988 magnetization       0.1598025
 augmentation part       12.9371292 magnetization      -0.2307159

 Broyden mixing:
  rms(total) = 0.67599E+00    rms(broyden)= 0.67465E+00
  rms(prec ) = 0.70370E+00
  weight for this iteration     100.00

 eigenvalues of (default mixing * dielectric matrix)
  average eigenvalue GAMMA=   0.8648
  2.1356  2.1356  0.6018  0.3455  0.3455  0.3677  0.1218

 Free energy of the ion-electron system (eV)
  ---------------------------------------------------
  alpha Z        PSCENC =       157.28496059
  Ewald energy   TEWEN  =     30452.18557587
  -Hartree energ DENC   =    -40623.02280115
  -exchange      EXHF   =         0.00000000
  -V(xc)+E(xc)   XCENC  =      1021.93326039
  PAW double counting   =     31162.07502930   -31260.86927965
  entropy T*S    EENTRO =        -0.04600474
  eigenvalues    EBANDS =     -3621.47487515
  atomic energy  EATOM  =     12065.27733323
  Solvation  Ediel_sol  =         0.00000000
  ---------------------------------------------------
  free energy    TOTEN  =      -646.65680130 eV

  energy without entropy =     -646.61079656  energy(sigma->0) =     -646.63379893


--------------------------------------------------------------------------------------------------------




--------------------------------------- Iteration      1(  13)  ---------------------------------------


    POTLOK:  cpu time    0.3834: real time    0.3876
    SETDIJ:  cpu time    0.0122: real time    0.0122
    EDDIAG:  cpu time    2.0470: real time    2.0641
  RMM-DIIS:  cpu time    8.4295: real time    8.4938
    ORTHCH:  cpu time    0.3135: real time    0.3412
       DOS:  cpu time    0.0010: real time    0.0010
    CHARGE:  cpu time    0.4753: real time    0.4810
    MIXING:  cpu time    0.0080: real time    0.0080
    --------------------------------------------
      LOOP:  cpu time   11.6699: real time   11.7890

 eigenvalue-minimisations  :  2984
 total energy-change (2. order) :-0.5489911E-01  (-0.2361379E-02)
 number of electron     292.9999988 magnetization       0.0776928
 augmentation part       12.9464360 magnetization      -0.3998378

 Broyden mixing:
  rms(total) = 0.72643E+00    rms(broyden)= 0.72625E+00
  rms(prec ) = 0.75351E+00
  weight for this iteration     100.00

 eigenvalues of (default mixing * dielectric matrix)
  average eigenvalue GAMMA=   0.8645
  2.2062  2.2062  0.7045  0.3454  0.3454  0.4815  0.3244  0.3024

 Free energy of the ion-electron system (eV)
  ---------------------------------------------------
  alpha Z        PSCENC =       157.28496059
  Ewald energy   TEWEN  =     30452.18557587
  -Hartree energ DENC   =    -40624.30953488
  -exchange      EXHF   =         0.00000000
  -V(xc)+E(xc)   XCENC  =      1021.95414170
  PAW double counting   =     31163.21125748   -31261.93816230
  entropy T*S    EENTRO =        -0.02856883
  eigenvalues    EBANDS =     -3620.34870328
  atomic energy  EATOM  =     12065.27733323
  Solvation  Ediel_sol  =         0.00000000
  ---------------------------------------------------
  free energy    TOTEN  =      -646.71170041 eV

  energy without entropy =     -646.68313158  energy(sigma->0) =     -646.69741600


--------------------------------------------------------------------------------------------------------




--------------------------------------- Iteration      1(  14)  ---------------------------------------


    POTLOK:  cpu time    0.4053: real time    0.4094
    SETDIJ:  cpu time    0.0193: real time    0.0194
    EDDIAG:  cpu time    2.0065: real time    2.0247
  RMM-DIIS:  cpu time    8.4414: real time    8.5038
    ORTHCH:  cpu time    0.2654: real time    0.2663
       DOS:  cpu time    0.0010: real time    0.0010
    CHARGE:  cpu time    0.4700: real time    0.4774
    MIXING:  cpu time    0.0093: real time    0.0095
    --------------------------------------------
      LOOP:  cpu time   11.6182: real time   11.7113

 eigenvalue-minimisations  :  2962
 total energy-change (2. order) : 0.1942700E+00  (-0.2150223E-02)
 number of electron     292.9999988 magnetization       0.0760430
 augmentation part       12.9577478 magnetization      -0.3202556

 Broyden mixing:
  rms(total) = 0.71106E+00    rms(broyden)= 0.71104E+00
  rms(prec ) = 0.74015E+00
  weight for this iteration     100.00

 eigenvalues of (default mixing * dielectric matrix)
  average eigenvalue GAMMA=   0.8218
  2.2356  2.2356  0.7048  0.3450  0.3450  0.4867  0.3297  0.3566  0.3566

 Free energy of the ion-electron system (eV)
  ---------------------------------------------------
  alpha Z        PSCENC =       157.28496059
  Ewald energy   TEWEN  =     30452.18557587
  -Hartree energ DENC   =    -40629.28155296
  -exchange      EXHF   =         0.00000000
  -V(xc)+E(xc)   XCENC  =      1022.00928257
  PAW double counting   =     31251.06317584   -31349.65967763
  entropy T*S    EENTRO =        -0.04670580
  eigenvalues    EBANDS =     -3615.34982214
  atomic energy  EATOM  =     12065.27733323
  Solvation  Ediel_sol  =         0.00000000
  ---------------------------------------------------
  free energy    TOTEN  =      -646.51743044 eV

  energy without entropy =     -646.47072464  energy(sigma->0) =     -646.49407754


--------------------------------------------------------------------------------------------------------




--------------------------------------- Iteration      1(  15)  ---------------------------------------


    POTLOK:  cpu time    0.3993: real time    0.4031
    SETDIJ:  cpu time    0.0124: real time    0.0124
    EDDIAG:  cpu time    2.0046: real time    2.0217
  RMM-DIIS:  cpu time    9.1735: real time    9.2480
    ORTHCH:  cpu time    0.1977: real time    0.1986
       DOS:  cpu time    0.0010: real time    0.0010
    CHARGE:  cpu time    0.4753: real time    0.4810
    MIXING:  cpu time    0.0093: real time    0.0093
    --------------------------------------------
      LOOP:  cpu time   12.2730: real time   12.3751

 eigenvalue-minimisations  :  3276
 total energy-change (2. order) :-0.1848870E-01  (-0.2423670E-03)
 number of electron     292.9999988 magnetization       0.1197477
 augmentation part       12.9569824 magnetization      -0.2362510

 Broyden mixing:
  rms(total) = 0.67783E+00    rms(broyden)= 0.67781E+00
  rms(prec ) = 0.70807E+00
  weight for this iteration     100.00

 eigenvalues of (default mixing * dielectric matrix)
  average eigenvalue GAMMA=   0.7480
  2.2313  2.2313  0.7132  0.3450  0.3450  0.4909  0.3324  0.3510  0.3510  0.0891

 Free energy of the ion-electron system (eV)
  ---------------------------------------------------
  alpha Z        PSCENC =       157.28496059
  Ewald energy   TEWEN  =     30452.18557587
  -Hartree energ DENC   =    -40629.34548296
  -exchange      EXHF   =         0.00000000
  -V(xc)+E(xc)   XCENC  =      1021.99914364
  PAW double counting   =     31251.14823222   -31349.75617170
  entropy T*S    EENTRO =        -0.05253162
  eigenvalues    EBANDS =     -3615.27697840
  atomic energy  EATOM  =     12065.27733323
  Solvation  Ediel_sol  =         0.00000000
  ---------------------------------------------------
  free energy    TOTEN  =      -646.53591913 eV

  energy without entropy =     -646.48338751  energy(sigma->0) =     -646.50965332


--------------------------------------------------------------------------------------------------------




--------------------------------------- Iteration      1(  16)  ---------------------------------------


    POTLOK:  cpu time    0.3935: real time    0.3977
    SETDIJ:  cpu time    0.0111: real time    0.0130
    EDDIAG:  cpu time    2.0428: real time    2.0742
  RMM-DIIS:  cpu time    8.3460: real time    8.4065
    ORTHCH:  cpu time    0.2505: real time    0.2513
       DOS:  cpu time    0.0010: real time    0.0010
    CHARGE:  cpu time    0.4698: real time    0.4769
    MIXING:  cpu time    0.0083: real time    0.0088
    --------------------------------------------
      LOOP:  cpu time   11.5229: real time   11.6294

 eigenvalue-minimisations  :  2961
 total energy-change (2. order) :-0.9796868E-01  (-0.7604214E-03)
 number of electron     292.9999988 magnetization       0.1906311
 augmentation part       12.9893060 magnetization      -0.2257167

 Broyden mixing:
  rms(total) = 0.72453E+00    rms(broyden)= 0.72449E+00
  rms(prec ) = 0.76246E+00
  weight for this iteration     100.00

 eigenvalues of (default mixing * dielectric matrix)
  average eigenvalue GAMMA=   0.7144
  2.2281  2.2281  0.7133  0.4504  0.4504  0.3450  0.3450  0.4797  0.3289  0.1746
  0.1144

 Free energy of the ion-electron system (eV)
  ---------------------------------------------------
  alpha Z        PSCENC =       157.28496059
  Ewald energy   TEWEN  =     30452.18557587
  -Hartree energ DENC   =    -40634.46415229
  -exchange      EXHF   =         0.00000000
  -V(xc)+E(xc)   XCENC  =      1022.10044260
  PAW double counting   =     31212.76864208   -31311.43216233
  entropy T*S    EENTRO =        -0.03005576
  eigenvalues    EBANDS =     -3610.32447182
  atomic energy  EATOM  =     12065.27733323
  Solvation  Ediel_sol  =         0.00000000
  ---------------------------------------------------
  free energy    TOTEN  =      -646.63388781 eV

  energy without entropy =     -646.60383206  energy(sigma->0) =     -646.61885994


--------------------------------------------------------------------------------------------------------




--------------------------------------- Iteration      1(  17)  ---------------------------------------


    POTLOK:  cpu time    0.3864: real time    0.3898
    SETDIJ:  cpu time    0.0120: real time    0.0121
    EDDIAG:  cpu time    2.0473: real time    2.0645
  RMM-DIIS:  cpu time    8.3050: real time    8.3662
    ORTHCH:  cpu time    0.1544: real time    0.1551
       DOS:  cpu time    0.0023: real time    0.0027
    CHARGE:  cpu time    0.4707: real time    0.4769
    MIXING:  cpu time    0.0085: real time    0.0086
    --------------------------------------------
      LOOP:  cpu time   11.3866: real time   11.4758

 eigenvalue-minimisations  :  2951
 total energy-change (2. order) :-0.7857137E-01  (-0.2860470E-02)
 number of electron     292.9999988 magnetization       0.3063269
 augmentation part       12.9217532 magnetization      -0.0650170

 Broyden mixing:
  rms(total) = 0.57925E+00    rms(broyden)= 0.57924E+00
  rms(prec ) = 0.60606E+00
  weight for this iteration     100.00

 eigenvalues of (default mixing * dielectric matrix)
  average eigenvalue GAMMA=   0.8173
  2.2198  2.2198  1.0069  1.0069  0.7846  0.6278  0.3543  0.3482  0.3482  0.3313
  0.3313  0.2286

 Free energy of the ion-electron system (eV)
  ---------------------------------------------------
  alpha Z        PSCENC =       157.28496059
  Ewald energy   TEWEN  =     30452.18557587
  -Hartree energ DENC   =    -40646.83123737
  -exchange      EXHF   =         0.00000000
  -V(xc)+E(xc)   XCENC  =      1022.29758664
  PAW double counting   =     31150.34065181   -31249.01114469
  entropy T*S    EENTRO =        -0.02848484
  eigenvalues    EBANDS =     -3598.22770043
  atomic energy  EATOM  =     12065.27733323
  Solvation  Ediel_sol  =         0.00000000
  ---------------------------------------------------
  free energy    TOTEN  =      -646.71245919 eV

  energy without entropy =     -646.68397435  energy(sigma->0) =     -646.69821677


--------------------------------------------------------------------------------------------------------




--------------------------------------- Iteration      1(  18)  ---------------------------------------


    POTLOK:  cpu time    0.4277: real time    0.4331
    SETDIJ:  cpu time    0.0124: real time    0.0125
    EDDIAG:  cpu time    2.0495: real time    2.0704
  RMM-DIIS:  cpu time    8.3138: real time    8.3782
    ORTHCH:  cpu time    0.2710: real time    0.2718
       DOS:  cpu time    0.0010: real time    0.0010
    CHARGE:  cpu time    0.4744: real time    0.4818
    MIXING:  cpu time    0.0103: real time    0.0103
    --------------------------------------------
      LOOP:  cpu time   11.5600: real time   11.6590

 eigenvalue-minimisations  :  2952
 total energy-change (2. order) :-0.1391557E+00  (-0.8348013E-02)
 number of electron     292.9999988 magnetization       0.2770648
 augmentation part       12.9736147 magnetization      -0.0383689

 Broyden mixing:
  rms(total) = 0.42775E+00    rms(broyden)= 0.42773E+00
  rms(prec ) = 0.48533E+00
  weight for this iteration     100.00

 eigenvalues of (default mixing * dielectric matrix)
  average eigenvalue GAMMA=   0.8041
  2.2585  2.2585  0.8647  0.8647  0.9332  0.8063  0.4849  0.3642  0.3534  0.3534
  0.3406  0.3406  0.2298

 Free energy of the ion-electron system (eV)
  ---------------------------------------------------
  alpha Z        PSCENC =       157.28496059
  Ewald energy   TEWEN  =     30452.18557587
  -Hartree energ DENC   =    -40680.40114476
  -exchange      EXHF   =         0.00000000
  -V(xc)+E(xc)   XCENC  =      1022.76612930
  PAW double counting   =     31075.62490133   -31174.18200761
  entropy T*S    EENTRO =        -0.02477725
  eigenvalues    EBANDS =     -3565.38258564
  atomic energy  EATOM  =     12065.27733323
  Solvation  Ediel_sol  =         0.00000000
  ---------------------------------------------------
  free energy    TOTEN  =      -646.85161494 eV

  energy without entropy =     -646.82683768  energy(sigma->0) =     -646.83922631


--------------------------------------------------------------------------------------------------------




--------------------------------------- Iteration      1(  19)  ---------------------------------------


    POTLOK:  cpu time    0.4022: real time    0.4058
    SETDIJ:  cpu time    0.0122: real time    0.0123
    EDDIAG:  cpu time    1.9905: real time    2.0072
  RMM-DIIS:  cpu time    8.7291: real time    8.7949
    ORTHCH:  cpu time    0.3107: real time    0.3122
       DOS:  cpu time    0.0010: real time    0.0010
    CHARGE:  cpu time    0.4743: real time    0.4819
    MIXING:  cpu time    0.0100: real time    0.0101
    --------------------------------------------
      LOOP:  cpu time   11.9301: real time   12.0253

 eigenvalue-minimisations  :  3120
 total energy-change (2. order) : 0.7093304E-01  (-0.3193505E-02)
 number of electron     292.9999988 magnetization       0.2770294
 augmentation part       12.8300762 magnetization      -0.0391100

 Broyden mixing:
  rms(total) = 0.32302E+00    rms(broyden)= 0.32297E+00
  rms(prec ) = 0.33709E+00
  weight for this iteration     100.00

 eigenvalues of (default mixing * dielectric matrix)
  average eigenvalue GAMMA=   0.8207
  2.3209  2.3209  1.2595  0.7826  0.7826  0.8124  0.8124  0.2299  0.4604  0.3493
  0.3493  0.3292  0.3292  0.3510

 Free energy of the ion-electron system (eV)
  ---------------------------------------------------
  alpha Z        PSCENC =       157.28496059
  Ewald energy   TEWEN  =     30452.18557587
  -Hartree energ DENC   =    -40696.07864278
  -exchange      EXHF   =         0.00000000
  -V(xc)+E(xc)   XCENC  =      1022.90036025
  PAW double counting   =     31077.94493198   -31176.41309874
  entropy T*S    EENTRO =        -0.02446871
  eigenvalues    EBANDS =     -3549.85763360
  atomic energy  EATOM  =     12065.27733323
  Solvation  Ediel_sol  =         0.00000000
  ---------------------------------------------------
  free energy    TOTEN  =      -646.78068190 eV

  energy without entropy =     -646.75621319  energy(sigma->0) =     -646.76844754


--------------------------------------------------------------------------------------------------------




--------------------------------------- Iteration      1(  20)  ---------------------------------------


    POTLOK:  cpu time    0.3859: real time    0.3905
    SETDIJ:  cpu time    0.0122: real time    0.0123
    EDDIAG:  cpu time    2.0039: real time    2.0204
  RMM-DIIS:  cpu time    8.5916: real time    8.6771
    ORTHCH:  cpu time    0.2049: real time    0.2056
       DOS:  cpu time    0.0009: real time    0.0009
    CHARGE:  cpu time    0.4775: real time    0.4859
    MIXING:  cpu time    0.0104: real time    0.0105
    --------------------------------------------
      LOOP:  cpu time   11.6874: real time   11.8032

 eigenvalue-minimisations  :  3022
 total energy-change (2. order) : 0.2053775E-01  (-0.1261508E-02)
 number of electron     292.9999988 magnetization       0.3272421
 augmentation part       12.8174582 magnetization       0.0062562

 Broyden mixing:
  rms(total) = 0.28592E+00    rms(broyden)= 0.28590E+00
  rms(prec ) = 0.29703E+00
  weight for this iteration     100.00

 eigenvalues of (default mixing * dielectric matrix)
  average eigenvalue GAMMA=   0.9038
  2.5275  2.5275  1.3435  1.3435  0.8566  0.8566  1.0107  0.2300  0.6918  0.3504
  0.3504  0.3330  0.3330  0.4463  0.3565

 Free energy of the ion-electron system (eV)
  ---------------------------------------------------
  alpha Z        PSCENC =       157.28496059
  Ewald energy   TEWEN  =     30452.18557587
  -Hartree energ DENC   =    -40714.10605898
  -exchange      EXHF   =         0.00000000
  -V(xc)+E(xc)   XCENC  =      1023.04503955
  PAW double counting   =     31049.43092731   -31147.75783941
  entropy T*S    EENTRO =        -0.02133679
  eigenvalues    EBANDS =     -3532.09874553
[...]
  Hartree 40008.75038 39987.76348-39219.37392    -3.06933    -6.36902     1.14979
  E(xc)   -1111.06812 -1110.71382 -1150.18268    -0.01599    -0.00154    -0.00084
  Local  -83754.79926-83762.70409 86095.16838     9.77677    14.39145    -2.36192
  n-local  -289.32231  -286.73731  -270.12268     0.16366     0.01051     0.02856
  augment    66.66410    64.80263    65.47790     0.02872     0.02829    -0.02009
  Kinetic  4383.74109  4369.86526  4985.23410     0.49711     0.43038    -0.11783
  Fock        0.00000     0.00000     0.00000     0.00000     0.00000     0.00000
  vdW        -1.50226    -1.65185    -0.04118    -0.00377     0.00000    -0.00075
  -------------------------------------------------------------------------------------
  Total      -1.77177    -1.70702    -3.50087    -0.06776    -0.00129     0.01250
  in kB      -0.99878    -0.96228    -1.97351    -0.03820    -0.00073     0.00705
  external pressure =       -1.31 kB  Pullay stress =        0.00 kB


 VOLUME and BASIS-vectors are now :
 -----------------------------------------------------------------------------
  energy-cutoff  :      440.00
  volume of cell :     2842.15
      direct lattice vectors                 reciprocal lattice vectors
    14.857142946  0.007480851  0.000000000     0.067287951  0.039205712  0.000000000
    -7.428571473 12.749503263  0.000000000    -0.000039482  0.078411424  0.000000000
     0.000000000  0.000000000 15.000000000     0.000000000  0.000000000  0.066666667

  length of vectors
    14.857144830 14.755795728 15.000000000     0.077876545  0.078411434  0.066666667


 FORCES acting on ions
    electron-ion (+dipol)            ewald-force                    non-local-force                 convergence-correction
 -----------------------------------------------------------------------------------------------
   -.151E+00 0.103E+01 0.789E+01   0.299E+00 -.106E+01 -.792E+01   -.139E+00 0.282E-01 0.267E-01   -.289E-05 -.447E-05 -.154E-04
   -.437E+01 -.115E+01 0.763E+01   0.462E+01 0.119E+01 -.766E+01   -.249E+00 -.443E-01 0.208E-01   0.101E-04 0.114E-04 -.147E-04
   0.490E+00 0.770E+00 0.740E+01   -.484E+00 -.656E+00 -.742E+01   -.813E-02 -.126E+00 0.256E-01   0.134E-04 0.581E-05 -.198E-05
   -.183E+01 0.349E+00 0.767E+01   0.188E+01 -.267E+00 -.768E+01   -.620E-01 -.894E-01 0.107E-01   0.207E-04 0.283E-04 -.331E-04
   0.193E+01 0.182E+01 0.666E+01   -.214E+01 -.168E+01 -.668E+01   0.216E+00 -.155E+00 0.199E-01   -.955E-06 0.890E-05 -.179E-05
   0.393E+01 -.801E+00 0.699E+01   -.416E+01 0.911E+00 -.700E+01   0.237E+00 -.116E+00 0.356E-02   -.138E-04 0.228E-04 -.326E-04
   0.848E+01 0.124E+01 0.782E+01   -.973E+01 -.859E+00 -.785E+01   0.126E+01 -.381E+00 0.238E-01   -.772E-07 -.565E-05 -.139E-04
   0.803E+01 -.418E+01 0.787E+01   -.882E+01 0.463E+01 -.791E+01   0.811E+00 -.456E+00 0.371E-01   -.127E-04 0.403E-05 -.132E-04
   -.175E+01 -.140E+01 0.930E+01   0.202E+01 0.104E+01 -.940E+01   -.275E+00 0.371E+00 0.109E+00   0.183E-04 -.472E-04 -.399E-04
   0.328E+00 -.267E+02 0.712E+01   -.316E+00 0.328E+02 -.715E+01   -.195E-01 -.608E+01 0.343E-01   0.243E-05 -.194E-04 -.143E-05
   -.817E+01 0.121E+01 0.740E+01   0.946E+01 -.901E+00 -.743E+01   -.129E+01 -.309E+00 0.339E-01   -.194E-04 -.226E-04 -.356E-04
   -.731E+01 -.519E+01 0.674E+01   0.802E+01 0.548E+01 -.676E+01   -.712E+00 -.277E+00 0.182E-01   -.758E-05 -.176E-04 -.341E-05
   -.152E+01 0.160E+01 0.685E+01   0.192E+01 -.140E+01 -.686E+01   -.395E+00 -.195E+00 0.207E-02   0.209E-04 -.218E-05 -.744E-05
   -.305E+00 0.203E+01 0.643E+01   0.453E+00 -.190E+01 -.645E+01   -.151E+00 -.125E+00 0.197E-01   0.396E-04 0.144E-04 -.206E-04
   0.169E+01 0.439E+01 0.873E+01   -.152E+01 -.423E+01 -.876E+01   -.175E+00 -.174E+00 0.297E-01   0.822E-05 0.347E-04 -.433E-04
   -.221E+01 0.625E+01 0.997E+01   0.274E+01 -.597E+01 -.101E+02   -.543E+00 -.270E+00 0.991E-01   0.463E-04 0.169E-04 -.984E-04
   0.479E+00 0.569E+01 0.733E+01   -.572E+00 -.527E+01 -.735E+01   0.100E+00 -.441E+00 0.283E-01   0.472E-05 0.263E-04 -.657E-04
   -.139E+00 0.674E+01 0.586E+01   0.986E-01 -.606E+01 -.550E+01   0.460E-01 -.695E+00 -.365E+00   -.459E-05 0.884E-04 -.138E-03
   0.202E+01 0.209E+01 0.846E+01   -.249E+01 -.172E+01 -.848E+01   0.465E+00 -.374E+00 0.240E-01   -.975E-05 0.217E-04 -.421E-04
   0.372E+01 0.603E+01 0.981E+01   -.432E+01 -.561E+01 -.989E+01   0.592E+00 -.412E+00 0.824E-01   -.417E-04 0.883E-05 -.963E-04
   0.327E+01 -.579E+01 0.770E+01   -.428E+01 0.669E+01 -.770E+01   0.100E+01 -.895E+00 0.414E-02   -.190E-04 0.356E-05 -.487E-05
   0.102E+01 -.101E+00 0.806E+01   -.111E+01 0.708E+00 -.808E+01   0.758E-01 -.593E+00 0.277E-01   -.329E-04 0.935E-05 -.184E-04
   -.494E+01 -.817E+01 0.598E+01   0.596E+01 0.906E+01 -.597E+01   -.101E+01 -.877E+00 -.124E-01   -.442E-05 -.896E-05 0.784E-05
   -.323E+01 -.364E+00 0.607E+01   0.326E+01 0.969E+00 -.610E+01   -.756E-02 -.599E+00 0.215E-01   -.862E-05 0.146E-04 0.105E-04
   0.179E+01 0.149E+01 0.525E+01   -.159E+01 -.134E+01 -.523E+01   -.195E+00 -.148E+00 -.236E-01   -.826E-05 0.221E-04 -.308E-05
   0.249E+01 0.341E+01 0.556E+01   -.241E+01 -.331E+01 -.560E+01   -.778E-01 -.899E-01 0.282E-01   0.341E-05 0.236E-05 -.155E-04
   0.311E+01 0.961E+01 0.686E+01   -.282E+01 -.956E+01 -.683E+01   -.281E+00 -.400E-01 -.274E-01   0.194E-04 0.165E-04 -.745E-04
   0.103E+02 0.686E+01 0.575E+01   -.100E+02 -.673E+01 -.586E+01   -.238E+00 -.134E+00 0.110E+00   0.379E-04 0.434E-04 -.102E-03
   -.390E+00 0.172E+02 0.123E+02   0.681E+00 -.162E+02 -.125E+02   -.292E+00 -.984E+00 0.219E+00   0.724E-04 0.114E-04 -.168E-03
   -.746E+01 0.357E+02 0.270E+02   0.137E+02 -.321E+02 -.262E+02   -.624E+01 -.358E+01 -.831E+00   0.142E-03 0.798E-04 -.201E-03
   0.200E+01 0.179E+02 0.110E+02   -.234E+01 -.168E+02 -.112E+02   0.340E+00 -.104E+01 0.213E+00   -.770E-04 0.188E-04 -.165E-03
   0.753E+01 0.346E+02 0.240E+02   -.137E+02 -.311E+02 -.231E+02   0.621E+01 -.359E+01 -.906E+00   -.151E-03 0.796E-04 -.195E-03
   -.433E+01 0.775E+01 0.796E+01   0.396E+01 -.759E+01 -.792E+01   0.366E+00 -.141E+00 -.361E-01   -.102E-04 0.474E-05 -.729E-04
   -.112E+02 0.610E+01 0.730E+01   0.109E+02 -.590E+01 -.742E+01   0.289E+00 -.203E+00 0.122E+00   -.353E-04 0.490E-04 -.103E-03
   -.113E+01 -.176E+01 0.667E+01   0.108E+01 0.203E+01 -.665E+01   0.412E-01 -.272E+00 -.191E-01   0.425E-05 0.151E-04 -.224E-05
   -.326E+01 0.362E+01 0.748E+01   0.321E+01 -.344E+01 -.752E+01   0.410E-01 -.176E+00 0.390E-01   -.219E-05 0.114E-05 -.148E-04
   -.461E+00 -.654E+00 0.628E+01   0.483E+00 0.738E+00 -.630E+01   -.104E-01 -.706E-01 0.102E-01   -.286E-05 0.145E-05 -.628E-05
   -.701E+00 -.345E+00 0.631E+01   0.670E+00 0.354E+00 -.633E+01   0.420E-01 -.128E-01 0.145E-01   0.156E-05 0.388E-05 -.607E-05
   0.613E+01 0.888E-01 0.410E+01   -.602E+01 -.910E-01 -.407E+01   -.104E+00 0.480E-02 -.377E-01   0.461E-04 0.202E-04 -.558E-04
   0.503E+01 0.512E+00 0.414E+01   -.502E+01 -.582E+00 -.411E+01   0.766E-03 0.721E-01 -.348E-01   0.305E-04 -.199E-04 -.561E-04
   0.252E+02 0.106E+02 0.138E+02   -.243E+02 -.112E+02 -.143E+02   -.877E+00 0.525E+00 0.567E+00   0.132E-04 0.876E-04 -.177E-03
   0.247E+02 -.723E+01 0.140E+02   -.238E+02 0.753E+01 -.145E+02   -.835E+00 -.291E+00 0.544E+00   0.251E-04 -.915E-04 -.176E-03
   -.250E+02 0.831E+01 0.132E+02   0.241E+02 -.874E+01 -.138E+02   0.851E+00 0.441E+00 0.555E+00   -.147E-04 0.826E-04 -.178E-03
   -.245E+02 -.786E+01 0.137E+02   0.237E+02 0.828E+01 -.142E+02   0.802E+00 -.413E+00 0.537E+00   -.174E-04 -.888E-04 -.183E-03
   -.442E+01 -.232E-02 0.672E+01   0.431E+01 0.662E-01 -.669E+01   0.885E-01 -.601E-01 -.265E-01   -.427E-04 0.258E-04 -.553E-04
   -.480E+01 -.103E+01 0.664E+01   0.473E+01 0.105E+01 -.661E+01   0.477E-01 -.233E-01 -.261E-01   -.385E-04 -.317E-04 -.554E-04
   -.291E+01 -.449E+01 0.740E+01   0.287E+01 0.450E+01 -.744E+01   0.401E-01 -.147E-01 0.379E-01   0.396E-05 -.744E-05 -.149E-04
   -.157E+01 -.303E+01 0.661E+01   0.151E+01 0.304E+01 -.659E+01   0.484E-01 -.349E-03 -.173E-01   0.486E-05 -.108E-04 -.256E-05
   0.458E+01 -.318E+01 0.555E+01   -.457E+01 0.313E+01 -.559E+01   -.223E-01 0.245E-01 0.278E-01   0.481E-05 0.392E-05 -.158E-04
   0.236E+01 -.311E+01 0.515E+01   -.246E+01 0.305E+01 -.514E+01   0.109E+00 0.613E-01 -.232E-01   0.758E-05 -.127E-04 -.311E-05
   0.133E+02 -.559E+01 0.620E+01   -.131E+02 0.527E+01 -.632E+01   -.177E+00 0.321E+00 0.111E+00   0.344E-04 -.288E-04 -.102E-03
   0.467E+01 -.623E+01 0.711E+01   -.499E+01 0.593E+01 -.707E+01   0.325E+00 0.273E+00 -.317E-01   0.148E-04 -.327E-05 -.746E-04
   -.690E+01 -.296E+02 0.258E+02   0.132E+02 0.255E+02 -.249E+02   -.631E+01 0.408E+01 -.865E+00   0.137E-03 -.672E-04 -.201E-03
   -.114E+01 -.104E+02 0.114E+02   0.140E+01 0.850E+01 -.116E+02   -.265E+00 0.191E+01 0.200E+00   0.612E-04 -.261E-04 -.164E-03
   0.603E+01 -.329E+02 0.249E+02   -.122E+02 0.290E+02 -.240E+02   0.623E+01 0.382E+01 -.871E+00   -.146E-03 -.681E-04 -.213E-03
   -.313E+00 -.145E+02 0.112E+02   0.569E+00 0.132E+02 -.114E+02   -.265E+00 0.134E+01 0.243E+00   -.694E-04 -.291E-04 -.169E-03
   -.125E+02 -.579E+01 0.760E+01   0.123E+02 0.563E+01 -.772E+01   0.239E+00 0.142E+00 0.125E+00   -.347E-04 -.387E-04 -.104E-03
   -.552E+01 -.932E+01 0.799E+01   0.543E+01 0.928E+01 -.796E+01   0.812E-01 0.432E-01 -.302E-01   -.189E-04 -.213E-05 -.773E-04
   -.233E+01 -.250E+01 0.796E+01   0.235E+01 0.252E+01 -.799E+01   -.909E-04 -.272E-01 0.324E-01   -.353E-04 -.841E-05 -.208E-04
   -.246E+01 -.471E+01 0.769E+01   0.258E+01 0.472E+01 -.770E+01   -.125E+00 -.106E-01 0.450E-02   -.851E-05 -.726E-05 -.674E-05
   0.836E+00 -.199E+01 0.607E+01   -.907E+00 0.202E+01 -.609E+01   0.627E-01 -.274E-01 0.241E-01   0.776E-05 -.303E-05 0.106E-04
   0.231E+00 -.268E+01 0.602E+01   -.338E+00 0.271E+01 -.601E+01   0.112E+00 -.239E-01 -.163E-01   0.365E-05 0.858E-05 0.801E-05
   0.611E+01 -.125E+01 0.647E+01   -.631E+01 0.114E+01 -.650E+01   0.205E+00 0.112E+00 0.227E-01   0.264E-04 -.927E-05 -.208E-04
   0.561E+01 -.447E+01 0.688E+01   -.619E+01 0.423E+01 -.689E+01   0.567E+00 0.245E+00 0.545E-02   0.892E-05 -.576E-05 -.686E-05
   0.527E+01 0.259E+01 0.105E+02   -.499E+01 -.422E+01 -.105E+02   -.283E+00 0.162E+01 0.609E-01   0.356E-04 -.174E-04 -.980E-04
   0.253E+02 0.765E+01 0.889E+01   -.306E+02 -.109E+02 -.893E+01   0.526E+01 0.326E+01 0.389E-01   0.197E-04 -.305E-04 -.439E-04
   -.640E+01 0.237E+01 0.521E+01   0.668E+01 -.444E+01 -.479E+01   -.277E+00 0.207E+01 -.421E+00   -.464E-05 -.787E-04 -.137E-03
   -.234E+02 0.644E+01 0.668E+01   0.287E+02 -.998E+01 -.663E+01   -.528E+01 0.356E+01 -.534E-01   -.160E-04 -.297E-04 -.666E-04
   -.175E+01 -.502E+01 0.988E+01   0.150E+01 0.461E+01 -.997E+01   0.260E+00 0.418E+00 0.805E-01   -.291E-04 -.196E-04 -.103E-03
   -.589E+01 -.513E+01 0.842E+01   0.639E+01 0.468E+01 -.844E+01   -.483E+00 0.462E+00 0.179E-01   -.930E-05 -.367E-04 -.474E-04
   -.109E+01 0.439E+01 -.634E+03   0.107E+01 -.445E+01 0.615E+03   0.380E-01 0.628E-01 0.183E+02   0.629E-05 -.582E-05 -.496E-03
 -----------------------------------------------------------------------------------------------
   0.169E+00 -.206E+00 -.183E+02   -.782E-13 -.108E-12 -.114E-12   -.168E+00 0.212E+00 0.183E+02   0.837E-05 -.846E-05 -.496E-02
 
 
 POSITION                                       TOTAL-FORCE (eV/Angst)
 -----------------------------------------------------------------------------------
      7.42468     12.75488      7.46460         0.009941      0.003705      0.001345
     -0.00013      1.41832      7.46585         0.000619     -0.003499      0.000427
      2.48119      0.02590      7.46292        -0.001837     -0.009265     -0.001096
      2.47953      1.44655      7.47356        -0.010922     -0.006664      0.001882
      4.95778      0.02821      7.46582        -0.001978     -0.014792     -0.004373
      4.95420      1.44595      7.47558         0.000889     -0.004105     -0.000520
      7.44301      0.00425      7.46565         0.014345      0.000344     -0.000964
      7.42793      1.42420      7.46490         0.019871     -0.011238      0.000800
      2.48003     12.72632      7.47449        -0.000109      0.009631      0.006464
      9.90969      1.38471      7.46450        -0.007345      0.018026      0.002243
      4.94119     12.73168      7.47488        -0.008469     -0.001287      0.000927
     12.38156      1.39840      7.46579        -0.010308      0.007953     -0.004631
     13.61239      2.11630      7.46714         0.004810      0.003658     -0.004152
     -1.24955      3.52933      7.47726        -0.003522      0.000754     -0.001665
      1.23815      2.14405      7.47547        -0.000594     -0.017025      0.003505
      1.23619      3.56759      7.50119        -0.009723      0.010745     -0.001368
      3.71670      2.17090      7.49103         0.007691     -0.010165      0.000284
      3.71599      3.59048      7.53802         0.005741     -0.004671     -0.006506
      6.19717      2.14468      7.47594        -0.004892     -0.002507      0.000385
      6.19844      3.57076      7.50089        -0.003136      0.001812     -0.001651
      8.67966      2.10272      7.46346        -0.003192     -0.005453      0.002918
      8.68563      3.52563      7.47034        -0.014310      0.013718      0.004076
     11.13961      2.09542      7.46459         0.002767      0.002025     -0.000415
     11.13737      3.52263      7.46624         0.017930      0.006109     -0.003814
     12.37272      4.23939      7.47454         0.007005     -0.000704     -0.004501
     -2.48874      5.65632      7.48131        -0.002588      0.009564     -0.006133
     -0.01750      4.24629      7.50026         0.007894      0.000537      0.003419
     -0.04205      5.66270      7.52587         0.011718     -0.003695      0.003669
      2.47420      4.31059      7.55072         0.012824      0.027687      0.000574
      2.42990      5.72745      7.63990        -0.012226     -0.013421      0.008189
      4.96171      4.31213      7.55423        -0.013415      0.003914     -0.001625
      5.00457      5.72501      7.64640         0.018043     -0.019388      0.002152
      7.45034      4.24462      7.49470        -0.001873      0.008667      0.006453
      7.47251      5.66330      7.51883        -0.003749     -0.001318      0.008001
      9.91376      4.23843      7.46852        -0.007856     -0.000397     -0.000543
      9.91927      5.66462      7.47367        -0.002783      0.001283     -0.000351
     11.14356      6.37947      7.47403         0.012592      0.011564     -0.006181
     -3.71341      7.79436      7.47395         0.010953     -0.001956     -0.003978
     -1.26747      6.37429      7.50428        -0.000809      0.001051     -0.001962
     -1.26643      7.79829      7.50402         0.011141      0.003497     -0.003596
      1.17915      6.37289      7.57855         0.027061     -0.016744      0.001725
      1.17749      7.80458      7.57805         0.029228      0.019486      0.004010
      6.25398      6.37222      7.57843        -0.036384     -0.004725      0.001129
      6.25089      7.80904      7.57715        -0.041429      0.012463     -0.002803
      8.70025      6.37896      7.49323        -0.020039      0.001772      0.007268
      8.69907      7.79998      7.49324        -0.021562      0.006853      0.006234
     -4.93767      8.50792      7.47373         0.002435     -0.009422      0.001106
     -4.94389      9.93187      7.46849        -0.011215      0.009615     -0.000868
     -2.48592      8.51116      7.48128        -0.012552     -0.026158     -0.006841
     -2.47991      9.93272      7.47461         0.009460      0.008763     -0.006229
     -0.03770      8.51490      7.52491         0.006640     -0.000240      0.000064
     -0.01273      9.93481      7.49934         0.008654     -0.021756     -0.000188
      2.43109      8.45264      7.64224        -0.002315     -0.012136      0.017847
      2.47261      9.85810      7.55328         0.014499      0.011377      0.004613
      4.99898      8.45772      7.64381         0.012069      0.003557     -0.006301
      4.95611      9.87333      7.55289        -0.021743     -0.025004     -0.002790
      7.46995      8.51460      7.51786         0.000935     -0.012642      0.004255
      7.44534      9.93046      7.49429        -0.009304      0.001021      0.000977
     -6.17889     10.63934      7.47029         0.012942     -0.006662      0.001647
     -6.18487     12.05684      7.46296        -0.008104      0.004371     -0.001122
     -3.71155     10.64518      7.46606        -0.008359      0.000033     -0.003255
     -3.71044     12.06601      7.46403         0.004071      0.004964     -0.003771
     -1.24331     10.64232      7.47702         0.005606      0.002378     -0.004018
     -1.23223     12.05853      7.46707        -0.019015      0.003581     -0.005523
      1.24721     10.61477      7.50032        -0.001861     -0.006703      0.000038
      1.25115     12.03225      7.47530        -0.017655      0.003666      0.002420
      3.70654     10.59497      7.53886         0.002397      0.003137      0.000461
      3.70330     12.00749      7.49207         0.011515      0.008679      0.003801
      6.19312     10.60876      7.50032        -0.000274      0.003501     -0.007094
      6.18399     12.02954      7.47592         0.018224      0.012450     -0.003053
      3.71715      7.08834      8.32891         0.014935      0.005830     -0.001425
 -----------------------------------------------------------------------------------
    total drift:                                0.000945      0.005143      0.000219


--------------------------------------------------------------------------------------------------------



  FREE ENERGIE OF THE ION-ELECTRON SYSTEM (eV)
  ---------------------------------------------------
  free  energy   TOTEN  =      -653.58423659 eV

  energy  without entropy=     -653.55104625  energy(sigma->0) =     -653.56764142
 
 d Force = 0.3390779E-03[ 0.145E-03, 0.533E-03]  d Energy = 0.3594478E-03-0.204E-04
 d Force =-0.3716478E+00[-0.372E+00,-0.371E+00]  d Ewald  =-0.3716478E+00 0.138E-07


--------------------------------------------------------------------------------------------------------


    POTLOK:  cpu time    0.4144: real time    0.4162


--------------------------------------------------------------------------------------------------------


 stress matrix after NEB project (eV)
     -1.77177     -0.06776      0.01250
     -0.06776     -1.70702     -0.00129
      0.01250     -0.00129     -3.50087
  FORCES: max atom, RMS     0.043354    0.017074
  FORCE total and by dimension    0.143869    0.041429
  Stress total and by dimension    4.280029    3.500865


--------------------------------------------------------------------------------------------------------


  
 reached required accuracy - stopping structural energy minimisation
     LOOP+:  cpu time  109.3152: real time  110.1616
    4ORBIT:  cpu time    0.0000: real time    0.0000

 total amount of memory used by VASP MPI-rank0   111476. kBytes
=======================================================================

   base      :      30000. kBytes
   nonlr-proj:       9908. kBytes
   fftplans  :      10852. kBytes
   grid      :      30996. kBytes
   one-center:        186. kBytes
   wavefun   :      29534. kBytes
 
  
  
 General timing and accounting informations for this job:
 ========================================================
  
                  Total CPU time used (sec):     1427.129
                            User time (sec):     1417.250
                          System time (sec):        9.878
                         Elapsed time (sec):     1444.363
  
                   Maximum memory used (kb):      486724.
                   Average memory used (kb):           0.
  
                          Minor page faults:      1692505
                          Major page faults:            0
                 Voluntary context switches:        11639
