 running on   48 total cores
 distrk:  each k-point on   48 cores,    1 groups
 distr:  one band on   12 cores,    4 groups
 using from now: INCAR     
 vasp.5.4.4.18Apr17-6-g9f103f2a35 (build Jan 14 2022 15:04:31) complex          
  
 POSCAR found type information on POSCAR  C  N  C  Cr
 POSCAR found :  4 types and      71 ions
 scaLAPACK will be used
 LDA part: xc-table for Pade appr. of Perdew
 POSCAR found type information on POSCAR  C  N  C  Cr
 POSCAR found :  4 types and      71 ions
 POSCAR, INCAR and KPOINTS ok, starting setup
 FFT: planning ...
 WAVECAR not read
 entering main loop
       N       E                     dE             d eps       ncg     rms          rms(c)
DAV:   1     0.243369415495E+04    0.24337E+04   -0.10836E+05  3408   0.107E+03
DAV:   2    -0.234675841436E+03   -0.26684E+04   -0.25512E+04  4216   0.279E+02
DAV:   3    -0.687468531763E+03   -0.45279E+03   -0.45005E+03  3552   0.121E+02
DAV:   4    -0.704082045775E+03   -0.16614E+02   -0.16463E+02  3560   0.283E+01
DAV:   5    -0.704624239429E+03   -0.54219E+00   -0.54026E+00  4040   0.434E+00    0.469E+01
RMM:   6    -0.732314150634E+03   -0.27690E+02   -0.53102E+02  4097   0.391E+01    0.843E+01
RMM:   7    -0.662223001041E+03    0.70091E+02   -0.54066E+01  3044   0.135E+01    0.318E+01
RMM:   8    -0.662299340839E+03   -0.76340E-01   -0.21657E+01  3133   0.700E+00    0.283E+01
RMM:   9    -0.647272827761E+03    0.15027E+02   -0.20356E+01  2973   0.845E+00    0.111E+01
RMM:  10    -0.647770024060E+03   -0.49720E+00   -0.27798E+00  3005   0.297E+00    0.142E+01
RMM:  11    -0.646758366453E+03    0.10117E+01   -0.42055E-01  3106   0.106E+00    0.771E+00
RMM:  12    -0.646656801304E+03    0.10157E+00   -0.17503E-01  2944   0.987E-01    0.676E+00
RMM:  13    -0.646711700410E+03   -0.54899E-01   -0.23614E-02  2984   0.375E-01    0.726E+00
RMM:  14    -0.646517430440E+03    0.19427E+00   -0.21502E-02  2962   0.377E-01    0.711E+00
RMM:  15    -0.646535919135E+03   -0.18489E-01   -0.24237E-03  3276   0.695E-02    0.678E+00
RMM:  16    -0.646633887815E+03   -0.97969E-01   -0.76042E-03  2961   0.166E-01    0.725E+00
RMM:  17    -0.646712459190E+03   -0.78571E-01   -0.28605E-02  2951   0.274E-01    0.579E+00
RMM:  18    -0.646851614936E+03   -0.13916E+00   -0.83480E-02  2952   0.485E-01    0.428E+00
RMM:  19    -0.646780681898E+03    0.70933E-01   -0.31935E-02  3120   0.241E-01    0.323E+00
RMM:  20    -0.646760144152E+03    0.20538E-01   -0.12615E-02  3022   0.159E-01    0.286E+00
RMM:  21    -0.646768304837E+03   -0.81607E-02   -0.19072E-02  2957   0.219E-01    0.224E+00
RMM:  22    -0.646749077020E+03    0.19228E-01   -0.17897E-02  2969   0.186E-01    0.237E+00
RMM:  23    -0.646739823480E+03    0.92535E-02   -0.78133E-03  3089   0.997E-02    0.229E+00
RMM:  24    -0.646744226271E+03   -0.44028E-02   -0.16574E-03  3012   0.439E-02    0.228E+00
RMM:  25    -0.646749482734E+03   -0.52565E-02   -0.28696E-04  2345   0.258E-02    0.229E+00
RMM:  26    -0.646748473161E+03    0.10096E-02   -0.25070E-04  2247   0.214E-02    0.227E+00
RMM:  27    -0.646727032783E+03    0.21440E-01   -0.63660E-03  2948   0.129E-01    0.222E+00
RMM:  28    -0.646714531162E+03    0.12502E-01   -0.34943E-03  3007   0.815E-02    0.234E+00
RMM:  29    -0.646717444557E+03   -0.29134E-02   -0.97954E-04  2856   0.390E-02    0.237E+00
RMM:  30    -0.646724748054E+03   -0.73035E-02   -0.14349E-04  2086   0.232E-02    0.235E+00
RMM:  31    -0.646692696530E+03    0.32052E-01   -0.34289E-03  2963   0.950E-02    0.248E+00
RMM:  32    -0.646686512372E+03    0.61842E-02   -0.12788E-03  2971   0.448E-02    0.255E+00
RMM:  33    -0.646691647172E+03   -0.51348E-02   -0.22482E-04  2232   0.213E-02    0.255E+00
RMM:  34    -0.646694019917E+03   -0.23727E-02   -0.35827E-05  1856   0.945E-03    0.254E+00
RMM:  35    -0.646683137248E+03    0.10883E-01   -0.30366E-04  2527   0.275E-02    0.259E+00
RMM:  36    -0.646712909881E+03   -0.29773E-01   -0.15960E-03  2931   0.695E-02    0.246E+00
RMM:  37    -0.646749642994E+03   -0.36733E-01   -0.57524E-03  2991   0.117E-01    0.221E+00
RMM:  38    -0.646765660219E+03   -0.16017E-01   -0.33090E-03  3049   0.769E-02    0.207E+00
RMM:  39    -0.646758787555E+03    0.68727E-02   -0.45632E-04  2455   0.356E-02    0.209E+00
RMM:  40    -0.646726248077E+03    0.32539E-01   -0.29042E-03  2951   0.867E-02    0.227E+00
RMM:  41    -0.646703810461E+03    0.22438E-01   -0.33257E-03  3006   0.798E-02    0.244E+00
RMM:  42    -0.646717415964E+03   -0.13606E-01   -0.25617E-04  2316   0.300E-02    0.240E+00
RMM:  43    -0.646725144831E+03   -0.77289E-02   -0.13803E-04  2205   0.193E-02    0.235E+00
RMM:  44    -0.646799640160E+03   -0.74495E-01   -0.22190E-02  3002   0.231E-01    0.178E+00
RMM:  45    -0.646845104396E+03   -0.45464E-01   -0.24906E-02  3046   0.227E-01    0.160E+00
RMM:  46    -0.646835231457E+03    0.98729E-02   -0.26750E-03  3063   0.914E-02    0.162E+00
RMM:  47    -0.646830945747E+03    0.42857E-02   -0.36248E-04  2395   0.304E-02    0.164E+00
RMM:  48    -0.646849970919E+03   -0.19025E-01   -0.28136E-03  2992   0.870E-02    0.165E+00
RMM:  49    -0.646860243659E+03   -0.10273E-01   -0.23337E-03  3039   0.676E-02    0.178E+00
RMM:  50    -0.646851009308E+03    0.92344E-02   -0.42652E-04  2583   0.451E-02
   1 F= -.65325154E+03 E0= -.65323926E+03  d E =-.653252E+03  mag=     0.6901
 curvature:   0.00 expect dE= 0.000E+00 dE for cont linesearch  0.000E+00
 trial: gam= 0.00000 g(F)=  0.304E-01 g(S)=  0.000E+00 ort = 0.000E+00 (trialstep = 0.100E+01)
 search vector abs. value=  0.304E-01
 bond charge predicted
       N       E                     dE             d eps       ncg     rms          rms(c)
DAV:   1    -0.646864177876E+03   -0.39342E-02   -0.22914E+00  3192   0.413E+00    0.163E+00
RMM:   2    -0.646994475154E+03   -0.13030E+00   -0.27898E-01  3054   0.838E-01    0.397E+00
RMM:   3    -0.646900862018E+03    0.93613E-01   -0.86004E-02  3109   0.463E-01    0.196E+00
RMM:   4    -0.646871529360E+03    0.29333E-01   -0.14454E-02  3136   0.195E-01    0.178E+00
RMM:   5    -0.646689433918E+03    0.18210E+00   -0.98302E-02  2962   0.475E-01    0.166E+00
RMM:   6    -0.646582393774E+03    0.10704E+00   -0.11159E-01  2996   0.442E-01    0.197E+00
RMM:   7    -0.646744665494E+03   -0.16227E+00   -0.73522E-02  3014   0.356E-01    0.159E+00
RMM:   8    -0.646941361036E+03   -0.19670E+00   -0.28691E-01  2981   0.732E-01    0.220E+00
RMM:   9    -0.647101326260E+03   -0.15997E+00   -0.19540E-01  3061   0.548E-01    0.227E+00
RMM:  10    -0.647117057307E+03   -0.15731E-01   -0.32363E-02  3375   0.214E-01    0.236E+00
RMM:  11    -0.647130432704E+03   -0.13375E-01   -0.10087E-02  3382   0.111E-01    0.233E+00
RMM:  12    -0.647076331481E+03    0.54101E-01   -0.66492E-03  2997   0.105E-01    0.222E+00
RMM:  13    -0.647012582754E+03    0.63749E-01   -0.74906E-03  3037   0.115E-01    0.219E+00
RMM:  14    -0.646958089536E+03    0.54493E-01   -0.10423E-02  2985   0.149E-01    0.241E+00
RMM:  15    -0.646969777273E+03   -0.11688E-01   -0.28618E-02  2994   0.254E-01    0.160E+00
RMM:  16    -0.646885795613E+03    0.83982E-01   -0.68561E-02  3037   0.380E-01    0.210E+00
RMM:  17    -0.647035373679E+03   -0.14958E+00   -0.46061E-02  2998   0.319E-01    0.192E+00
RMM:  18    -0.647079138663E+03   -0.43765E-01   -0.12715E-02  3082   0.128E-01    0.193E+00
RMM:  19    -0.647108894510E+03   -0.29756E-01   -0.45375E-03  3122   0.680E-02    0.191E+00
RMM:  20    -0.647123860215E+03   -0.14966E-01   -0.21748E-03  3017   0.579E-02    0.187E+00
RMM:  21    -0.647133809632E+03   -0.99494E-02   -0.97718E-04  2770   0.346E-02    0.172E+00
RMM:  22    -0.647146399644E+03   -0.12590E-01   -0.11562E-03  3004   0.451E-02    0.165E+00
RMM:  23    -0.647150312271E+03   -0.39126E-02   -0.53242E-04  2793   0.285E-02    0.157E+00
RMM:  24    -0.647153732682E+03   -0.34204E-02   -0.29847E-04  2740   0.260E-02    0.144E+00
RMM:  25    -0.647157119523E+03   -0.33868E-02   -0.39579E-04  3008   0.316E-02    0.125E+00
RMM:  26    -0.647158839659E+03   -0.17201E-02   -0.26272E-04  2836   0.253E-02    0.116E+00
RMM:  27    -0.647162593044E+03   -0.37534E-02   -0.63849E-04  2978   0.415E-02    0.985E-01
RMM:  28    -0.647164986991E+03   -0.23939E-02   -0.95166E-04  3019   0.501E-02    0.694E-01
RMM:  29    -0.647166790374E+03   -0.18034E-02   -0.12627E-03  3037   0.580E-02    0.408E-01
RMM:  30    -0.647167493714E+03   -0.70334E-03   -0.88592E-04  3176   0.465E-02    0.190E-01
RMM:  31    -0.647167665294E+03   -0.17158E-03   -0.22231E-04  2928   0.225E-02    0.107E-01
RMM:  32    -0.647167673391E+03   -0.80975E-05   -0.35638E-05  1986   0.104E-02
   2 F= -.65356900E+03 E0= -.65355277E+03  d E =-.317461E+00  mag=     1.4640
 trial-energy change:   -0.317461  1 .order    0.000087   -0.030432    0.030606
 step:   0.9842(harm=  0.4986)  dis= 0.01064  next Energy=  -653.569243 (dE=-0.318E+00)
 bond charge predicted
       N       E                     dE             d eps       ncg     rms          rms(c)
DAV:   1    -0.647168157170E+03   -0.49188E-03   -0.57926E-04  3240   0.658E-02    0.937E-02
RMM:   2    -0.647168309382E+03   -0.15221E-03   -0.18196E-04  2302   0.236E-02    0.829E-02
RMM:   3    -0.647168331606E+03   -0.22224E-04   -0.17394E-04  2110   0.217E-02    0.619E-02
RMM:   4    -0.647168341896E+03   -0.10290E-04   -0.56884E-05  1953   0.137E-02    0.322E-02
RMM:   5    -0.647168383347E+03   -0.41451E-04   -0.15965E-05  1837   0.830E-03    0.682E-03
RMM:   6    -0.647168390785E+03   -0.74385E-05   -0.27468E-06  1684   0.403E-03
   3 F= -.65356971E+03 E0= -.65355346E+03  d E =-.318167E+00  mag=     1.4604
 curvature:  -0.02 expect dE=-0.791E-03 dE for cont linesearch -0.460E-03
 ZBRENT: interpolating
 opt :   0.4949  next Energy=  -653.577067 (dE=-0.326E+00)
 bond charge predicted
       N       E                     dE             d eps       ncg     rms          rms(c)
DAV:   1    -0.647178755473E+03   -0.10372E-01   -0.55115E-01  3176   0.202E+00    0.264E-01
RMM:   2    -0.647180822029E+03   -0.20666E-02   -0.26049E-02  3015   0.351E-01    0.477E-01
RMM:   3    -0.647178579775E+03    0.22423E-02   -0.28996E-03  3311   0.101E-01    0.129E-01
RMM:   4    -0.647177535093E+03    0.10447E-02   -0.56473E-04  3037   0.431E-02    0.920E-02
RMM:   5    -0.647177134380E+03    0.40071E-03   -0.32408E-04  2893   0.342E-02    0.350E-02
RMM:   6    -0.647177862898E+03   -0.72852E-03   -0.54626E-05  2053   0.141E-02    0.162E-02
RMM:   7    -0.647178833378E+03   -0.97048E-03   -0.41113E-05  2022   0.848E-03    0.853E-03
RMM:   8    -0.647179371146E+03   -0.53777E-03   -0.27414E-05  1904   0.566E-03    0.448E-03
RMM:   9    -0.647179637885E+03   -0.26674E-03   -0.13828E-05  1408   0.362E-03    0.305E-03
RMM:  10    -0.647179752478E+03   -0.11459E-03   -0.68385E-06  1332   0.306E-03    0.147E-03
RMM:  11    -0.647179769753E+03   -0.17275E-04   -0.21969E-06  1152   0.225E-03    0.861E-04
RMM:  12    -0.647179771713E+03   -0.19596E-05   -0.87212E-07   959   0.180E-03
   4 F= -.65358071E+03 E0= -.65356396E+03  d E =-.329172E+00  mag=     1.5470
 curvature:  -0.25 expect dE=-0.321E-02 dE for cont linesearch -0.179E-02
 ZBRENT: interpolating
 opt :   0.1743  next Energy=  -653.583875 (dE=-0.332E+00)
 bond charge predicted
       N       E                     dE             d eps       ncg     rms          rms(c)
DAV:   1    -0.647182756162E+03   -0.29864E-02   -0.23696E-01  3168   0.133E+00    0.171E-01
RMM:   2    -0.647183472936E+03   -0.71677E-03   -0.10923E-02  3017   0.229E-01    0.301E-01
RMM:   3    -0.647182565002E+03    0.90793E-03   -0.11853E-03  3290   0.651E-02    0.842E-02
RMM:   4    -0.647182052750E+03    0.51225E-03   -0.24311E-04  2962   0.282E-02    0.607E-02
RMM:   5    -0.647181825130E+03    0.22762E-03   -0.14149E-04  2694   0.227E-02    0.229E-02
RMM:   6    -0.647182200896E+03   -0.37577E-03   -0.23158E-05  1889   0.974E-03    0.106E-02
RMM:   7    -0.647182710242E+03   -0.50935E-03   -0.18159E-05  1885   0.608E-03    0.552E-03
RMM:   8    -0.647182983606E+03   -0.27336E-03   -0.11886E-05  1575   0.406E-03    0.286E-03
RMM:   9    -0.647183137663E+03   -0.15406E-03   -0.73003E-06  1381   0.298E-03    0.190E-03
RMM:  10    -0.647183191266E+03   -0.53603E-04   -0.30739E-06  1205   0.228E-03    0.100E-03
RMM:  11    -0.647183197978E+03   -0.67121E-05   -0.15241E-06  1094   0.195E-03
   5 F= -.65358388E+03 E0= -.65356719E+03  d E =-.332336E+00  mag=     1.6051
 curvature:  -0.44 expect dE=-0.802E-03 dE for cont linesearch -0.331E-03
 ZBRENT: interpolating
 opt :   0.0633  next Energy=  -653.584218 (dE=-0.333E+00)
 bond charge predicted
       N       E                     dE             d eps       ncg     rms          rms(c)
DAV:   1    -0.647183586527E+03   -0.39526E-03   -0.28376E-02  3304   0.461E-01    0.587E-02
RMM:   2    -0.647183610412E+03   -0.23885E-04   -0.12909E-03  3017   0.788E-02    0.102E-01
RMM:   3    -0.647183499357E+03    0.11106E-03   -0.13363E-04  2227   0.222E-02    0.288E-02
RMM:   4    -0.647183421492E+03    0.77864E-04   -0.29471E-05  1951   0.114E-02    0.207E-02
RMM:   5    -0.647183379711E+03    0.41781E-04   -0.19892E-05  1856   0.929E-03    0.785E-03
RMM:   6    -0.647183450908E+03   -0.71197E-04   -0.36144E-06  1742   0.480E-03    0.359E-03
RMM:   7    -0.647183552933E+03   -0.10202E-03   -0.29724E-06  1482   0.302E-03    0.178E-03
RMM:   8    -0.647183604089E+03   -0.51157E-04   -0.16072E-06  1109   0.209E-03    0.109E-03
RMM:   9    -0.647183631750E+03   -0.27660E-04   -0.86668E-07   896   0.175E-03    0.686E-04
RMM:  10    -0.647183647049E+03   -0.15299E-04   -0.64714E-07   810   0.166E-03    0.368E-04
RMM:  11    -0.647183650853E+03   -0.38043E-05   -0.35276E-07   714   0.157E-03
   6 F= -.65358424E+03 E0= -.65356764E+03  d E =-.332695E+00  mag=     1.6252
 curvature:  -0.45 expect dE=-0.269E-03 dE for cont linesearch -0.251E-04
 trial: gam= 0.06256 g(F)=  0.599E-03 g(S)=  0.000E+00 ort =-0.130E-02 (trialstep = 0.813E+00)
 search vector abs. value=  0.555E-03
 reached required accuracy - stopping structural energy minimisation
