  71  71   0   0
  0.4011563E+02  0.1487831E-08  0.1477209E-08  0.1500000E-08  0.3000000E-15
  1.000000000000000E-004
  CAR 
 unknown system                          
      5.27653588    -48.58984986  301     -2.16478378      1.00000000
    -48.590  0.0000E+00  0.0000E+00  0.0000E+00  0.0000E+00
    -48.410  0.0000E+00  0.0000E+00  0.0000E+00  0.0000E+00
    -48.231  0.0000E+00  0.0000E+00  0.0000E+00  0.0000E+00
    -48.051  0.0000E+00  0.0000E+00  0.0000E+00  0.0000E+00
    -47.872  0.0000E+00  0.0000E+00  0.0000E+00  0.0000E+00
    -47.692  0.0000E+00  0.0000E+00  0.0000E+00  0.0000E+00
    -47.513  0.0000E+00  0.0000E+00  0.0000E+00  0.0000E+00
    -47.333  0.0000E+00  0.0000E+00  0.0000E+00  0.0000E+00
    -47.153  0.0000E+00  0.0000E+00  0.0000E+00  0.0000E+00
    -46.974  0.0000E+00  0.0000E+00  0.0000E+00  0.0000E+00
    -46.794  0.0000E+00  0.0000E+00  0.0000E+00  0.0000E+00
    -46.615  0.1507E-12  0.0000E+00  0.2705E-13  0.0000E+00
    -46.435  0.2263E-06  0.0000E+00  0.4064E-07  0.0000E+00
    -46.256  0.7499E-03  0.0000E+00  0.1347E-03  0.0000E+00
    -46.076  0.1625E-01  0.0000E+00  0.3052E-02  0.0000E+00
    -45.897  0.2341E-01  0.0000E+00  0.7256E-02  0.0000E+00
    -45.717  0.1359E-02  0.0000E+00  0.7500E-02  0.0000E+00
    -45.537  0.4369E-06  0.0000E+00  0.7500E-02  0.0000E+00
    -45.358  0.3409E-12  0.0000E+00  0.7500E-02  0.0000E+00
    -45.178  0.0000E+00  0.0000E+00  0.7500E-02  0.0000E+00
    -44.999  0.0000E+00  0.0000E+00  0.7500E-02  0.0000E+00
    -44.819  0.0000E+00  0.2066E-11  0.7500E-02  0.3709E-12
    -44.640  0.0000E+00  0.1177E-05  0.7500E-02  0.2114E-06
    -44.460  0.0000E+00  0.1543E-02  0.7500E-02  0.2772E-03
    -44.281  0.0000E+00  0.1153E-01  0.7500E-02  0.2347E-02
    -44.101  0.0000E+00  0.1144E-01  0.7500E-02  0.4402E-02
    -43.921  0.0000E+00  0.9297E-02  0.7500E-02  0.6072E-02
    -43.742  0.0000E+00  0.7828E-02  0.7500E-02  0.7477E-02
    -43.562  0.0000E+00  0.1269E-03  0.7500E-02  0.7500E-02
    -43.383  0.0000E+00  0.6664E-08  0.7500E-02  0.7500E-02
    -43.203  0.0000E+00  0.7033E-15  0.7500E-02  0.7500E-02
    -43.024  0.0000E+00  0.0000E+00  0.7500E-02  0.7500E-02
    -42.844  0.0000E+00  0.0000E+00  0.7500E-02  0.7500E-02
    -42.665  0.0000E+00  0.0000E+00  0.7500E-02  0.7500E-02
    -42.485  0.0000E+00  0.0000E+00  0.7500E-02  0.7500E-02
    -42.305  0.0000E+00  0.0000E+00  0.7500E-02  0.7500E-02
    -42.126  0.0000E+00  0.0000E+00  0.7500E-02  0.7500E-02
    -41.946  0.0000E+00  0.0000E+00  0.7500E-02  0.7500E-02
    -41.767  0.0000E+00  0.0000E+00  0.7500E-02  0.7500E-02
    -41.587  0.0000E+00  0.0000E+00  0.7500E-02  0.7500E-02
    -41.408  0.0000E+00  0.0000E+00  0.7500E-02  0.7500E-02
    -41.228  0.0000E+00  0.0000E+00  0.7500E-02  0.7500E-02
    -41.049  0.0000E+00  0.0000E+00  0.7500E-02  0.7500E-02
    -40.869  0.0000E+00  0.0000E+00  0.7500E-02  0.7500E-02
    -40.689  0.0000E+00  0.0000E+00  0.7500E-02  0.7500E-02
    -40.510  0.0000E+00  0.0000E+00  0.7500E-02  0.7500E-02
    -40.330  0.0000E+00  0.0000E+00  0.7500E-02  0.7500E-02
    -40.151  0.0000E+00  0.0000E+00  0.7500E-02  0.7500E-02
    -39.971  0.0000E+00  0.0000E+00  0.7500E-02  0.7500E-02
    -39.792  0.0000E+00  0.0000E+00  0.7500E-02  0.7500E-02
    -39.612  0.0000E+00  0.0000E+00  0.7500E-02  0.7500E-02
    -39.433  0.0000E+00  0.0000E+00  0.7500E-02  0.7500E-02
    -39.253  0.0000E+00  0.0000E+00  0.7500E-02  0.7500E-02
    -39.073  0.0000E+00  0.0000E+00  0.7500E-02  0.7500E-02
    -38.894  0.0000E+00  0.0000E+00  0.7500E-02  0.7500E-02
    -38.714  0.0000E+00  0.0000E+00  0.7500E-02  0.7500E-02
    -38.535  0.0000E+00  0.0000E+00  0.7500E-02  0.7500E-02
    -38.355  0.0000E+00  0.0000E+00  0.7500E-02  0.7500E-02
    -38.176  0.0000E+00  0.0000E+00  0.7500E-02  0.7500E-02
    -37.996  0.0000E+00  0.0000E+00  0.7500E-02  0.7500E-02
    -37.817  0.0000E+00  0.0000E+00  0.7500E-02  0.7500E-02
    -37.637  0.0000E+00  0.0000E+00  0.7500E-02  0.7500E-02
    -37.457  0.0000E+00  0.0000E+00  0.7500E-02  0.7500E-02
    -37.278  0.0000E+00  0.0000E+00  0.7500E-02  0.7500E-02
    -37.098  0.0000E+00  0.0000E+00  0.7500E-02  0.7500E-02
    -36.919  0.0000E+00  0.0000E+00  0.7500E-02  0.7500E-02
    -36.739  0.0000E+00  0.0000E+00  0.7500E-02  0.7500E-02
    -36.560  0.0000E+00  0.0000E+00  0.7500E-02  0.7500E-02
    -36.380  0.0000E+00  0.0000E+00  0.7500E-02  0.7500E-02
    -36.201  0.0000E+00  0.0000E+00  0.7500E-02  0.7500E-02
    -36.021  0.0000E+00  0.0000E+00  0.7500E-02  0.7500E-02
    -35.841  0.0000E+00  0.0000E+00  0.7500E-02  0.7500E-02
    -35.662  0.0000E+00  0.0000E+00  0.7500E-02  0.7500E-02
    -35.482  0.0000E+00  0.0000E+00  0.7500E-02  0.7500E-02
    -35.303  0.0000E+00  0.0000E+00  0.7500E-02  0.7500E-02
    -35.123  0.0000E+00  0.0000E+00  0.7500E-02  0.7500E-02
    -34.944  0.0000E+00  0.0000E+00  0.7500E-02  0.7500E-02
    -34.764  0.0000E+00  0.0000E+00  0.7500E-02  0.7500E-02
    -34.585  0.0000E+00  0.0000E+00  0.7500E-02  0.7500E-02
    -34.405  0.0000E+00  0.0000E+00  0.7500E-02  0.7500E-02
    -34.225  0.0000E+00  0.0000E+00  0.7500E-02  0.7500E-02
    -34.046  0.0000E+00  0.0000E+00  0.7500E-02  0.7500E-02
    -33.866  0.0000E+00  0.0000E+00  0.7500E-02  0.7500E-02
    -33.687  0.0000E+00  0.0000E+00  0.7500E-02  0.7500E-02
    -33.507  0.0000E+00  0.0000E+00  0.7500E-02  0.7500E-02
    -33.328  0.0000E+00  0.0000E+00  0.7500E-02  0.7500E-02
    -33.148  0.0000E+00  0.0000E+00  0.7500E-02  0.7500E-02
    -32.969  0.0000E+00  0.0000E+00  0.7500E-02  0.7500E-02
    -32.789  0.0000E+00  0.0000E+00  0.7500E-02  0.7500E-02
    -32.609  0.0000E+00  0.0000E+00  0.7500E-02  0.7500E-02
    -32.430  0.0000E+00  0.0000E+00  0.7500E-02  0.7500E-02
    -32.250  0.0000E+00  0.0000E+00  0.7500E-02  0.7500E-02
    -32.071  0.0000E+00  0.0000E+00  0.7500E-02  0.7500E-02
    -31.891  0.0000E+00  0.0000E+00  0.7500E-02  0.7500E-02
    -31.712  0.0000E+00  0.0000E+00  0.7500E-02  0.7500E-02
    -31.532  0.0000E+00  0.0000E+00  0.7500E-02  0.7500E-02
    -31.353  0.0000E+00  0.0000E+00  0.7500E-02  0.7500E-02
    -31.173  0.0000E+00  0.0000E+00  0.7500E-02  0.7500E-02
    -30.993  0.0000E+00  0.0000E+00  0.7500E-02  0.7500E-02
    -30.814  0.0000E+00  0.0000E+00  0.7500E-02  0.7500E-02
    -30.634  0.0000E+00  0.0000E+00  0.7500E-02  0.7500E-02
    -30.455  0.0000E+00  0.0000E+00  0.7500E-02  0.7500E-02
    -30.275  0.0000E+00  0.0000E+00  0.7500E-02  0.7500E-02
    -30.096  0.0000E+00  0.0000E+00  0.7500E-02  0.7500E-02
    -29.916  0.0000E+00  0.0000E+00  0.7500E-02  0.7500E-02
    -29.737  0.0000E+00  0.0000E+00  0.7500E-02  0.7500E-02
    -29.557  0.0000E+00  0.0000E+00  0.7500E-02  0.7500E-02
    -29.378  0.0000E+00  0.0000E+00  0.7500E-02  0.7500E-02
    -29.198  0.0000E+00  0.0000E+00  0.7500E-02  0.7500E-02
    -29.018  0.0000E+00  0.0000E+00  0.7500E-02  0.7500E-02
    -28.839  0.0000E+00  0.0000E+00  0.7500E-02  0.7500E-02
    -28.659  0.0000E+00  0.0000E+00  0.7500E-02  0.7500E-02
    -28.480  0.0000E+00  0.0000E+00  0.7500E-02  0.7500E-02
    -28.300  0.0000E+00  0.0000E+00  0.7500E-02  0.7500E-02
    -28.121  0.0000E+00  0.0000E+00  0.7500E-02  0.7500E-02
    -27.941  0.0000E+00  0.0000E+00  0.7500E-02  0.7500E-02
    -27.762  0.0000E+00  0.0000E+00  0.7500E-02  0.7500E-02
    -27.582  0.0000E+00  0.0000E+00  0.7500E-02  0.7500E-02
    -27.402  0.0000E+00  0.0000E+00  0.7500E-02  0.7500E-02
    -27.223  0.0000E+00  0.0000E+00  0.7500E-02  0.7500E-02
    -27.043  0.0000E+00  0.0000E+00  0.7500E-02  0.7500E-02
    -26.864  0.0000E+00  0.0000E+00  0.7500E-02  0.7500E-02
    -26.684  0.0000E+00  0.0000E+00  0.7500E-02  0.7500E-02
    -26.505  0.0000E+00  0.0000E+00  0.7500E-02  0.7500E-02
    -26.325  0.0000E+00  0.0000E+00  0.7500E-02  0.7500E-02
    -26.146  0.0000E+00  0.0000E+00  0.7500E-02  0.7500E-02
    -25.966  0.0000E+00  0.0000E+00  0.7500E-02  0.7500E-02
    -25.786  0.0000E+00  0.0000E+00  0.7500E-02  0.7500E-02
    -25.607  0.0000E+00  0.0000E+00  0.7500E-02  0.7500E-02
    -25.427  0.0000E+00  0.0000E+00  0.7500E-02  0.7500E-02
    -25.248  0.0000E+00  0.0000E+00  0.7500E-02  0.7500E-02
    -25.068  0.0000E+00  0.0000E+00  0.7500E-02  0.7500E-02
    -24.889  0.0000E+00  0.0000E+00  0.7500E-02  0.7500E-02
    -24.709  0.0000E+00  0.0000E+00  0.7500E-02  0.7500E-02
    -24.530  0.0000E+00  0.0000E+00  0.7500E-02  0.7500E-02
    -24.350  0.0000E+00  0.0000E+00  0.7500E-02  0.7500E-02
    -24.170  0.1115E-14  0.2735E-13  0.7500E-02  0.7500E-02
    -23.991  0.9074E-08  0.7521E-07  0.7500E-02  0.7500E-02
    -23.811  0.1493E-03  0.4366E-03  0.7527E-02  0.7578E-02
    -23.632  0.8129E-02  0.1002E-01  0.8986E-02  0.9378E-02
    -23.452  0.5607E-02  0.3456E-02  0.9993E-02  0.9998E-02
    -23.273  0.3800E-04  0.9004E-05  0.1000E-01  0.1000E-01
    -23.093  0.7307E-09  0.5971E-10  0.1000E-01  0.1000E-01
    -22.914  0.2782E-16  0.0000E+00  0.1000E-01  0.1000E-01
    -22.734  0.0000E+00  0.0000E+00  0.1000E-01  0.1000E-01
    -22.554  0.0000E+00  0.0000E+00  0.1000E-01  0.1000E-01
    -22.375  0.0000E+00  0.0000E+00  0.1000E-01  0.1000E-01
    -22.195  0.0000E+00  0.0000E+00  0.1000E-01  0.1000E-01
    -22.016  0.6809E-12  0.1110E-11  0.1000E-01  0.1000E-01
    -21.836  0.3596E-06  0.4868E-06  0.1000E-01  0.1000E-01
    -21.657  0.5487E-03  0.6328E-03  0.1010E-01  0.1011E-01
    -21.477  0.9945E-02  0.1032E-01  0.1188E-01  0.1197E-01
    -21.298  0.1227E-01  0.1200E-01  0.1409E-01  0.1412E-01
    -21.118  0.8901E-02  0.9260E-02  0.1569E-01  0.1578E-01
    -20.938  0.1658E-01  0.1675E-01  0.1866E-01  0.1879E-01
    -20.759  0.1322E-01  0.1279E-01  0.2104E-01  0.2109E-01
    -20.579  0.6807E-02  0.7137E-02  0.2226E-01  0.2237E-01
    -20.400  0.1912E-01  0.1925E-01  0.2569E-01  0.2583E-01
    -20.220  0.1574E-01  0.1556E-01  0.2852E-01  0.2862E-01
    -20.041  0.8849E-02  0.8868E-02  0.3011E-01  0.3021E-01
    -19.861  0.8618E-02  0.8716E-02  0.3165E-01  0.3178E-01
    -19.682  0.1630E-01  0.1657E-01  0.3458E-01  0.3475E-01
    -19.502  0.2149E-01  0.2137E-01  0.3844E-01  0.3859E-01
    -19.322  0.1303E-01  0.1287E-01  0.4078E-01  0.4090E-01
    -19.143  0.9966E-02  0.9951E-02  0.4257E-01  0.4269E-01
    -18.963  0.1029E-01  0.1019E-01  0.4442E-01  0.4452E-01
    -18.784  0.9162E-02  0.9527E-02  0.4606E-01  0.4623E-01
    -18.604  0.1707E-01  0.1721E-01  0.4913E-01  0.4932E-01
    -18.425  0.2272E-01  0.2269E-01  0.5321E-01  0.5339E-01
    -18.245  0.1810E-01  0.1793E-01  0.5646E-01  0.5661E-01
    -18.066  0.1119E-01  0.1110E-01  0.5847E-01  0.5860E-01
    -17.886  0.1024E-01  0.9884E-02  0.6030E-01  0.6038E-01
    -17.706  0.8084E-02  0.8379E-02  0.6176E-01  0.6188E-01
    -17.527  0.1157E-01  0.1188E-01  0.6383E-01  0.6402E-01
    -17.347  0.1737E-01  0.1773E-01  0.6695E-01  0.6720E-01
    -17.168  0.2784E-01  0.2789E-01  0.7195E-01  0.7221E-01
    -16.988  0.1598E-01  0.1499E-01  0.7482E-01  0.7490E-01
    -16.809  0.1422E-01  0.1493E-01  0.7737E-01  0.7758E-01
    -16.629  0.1669E-01  0.1654E-01  0.8037E-01  0.8055E-01
    -16.450  0.1083E-01  0.1062E-01  0.8231E-01  0.8246E-01
    -16.270  0.7931E-02  0.7821E-02  0.8374E-01  0.8386E-01
    -16.090  0.1231E-01  0.1278E-01  0.8595E-01  0.8616E-01
    -15.911  0.2508E-01  0.2516E-01  0.9045E-01  0.9067E-01
    -15.731  0.1028E-01  0.1021E-01  0.9230E-01  0.9251E-01
    -15.552  0.8010E-02  0.7757E-02  0.9373E-01  0.9390E-01
    -15.372  0.7312E-02  0.7066E-02  0.9505E-01  0.9517E-01
    -15.193  0.1037E-01  0.1075E-01  0.9691E-01  0.9710E-01
    -15.013  0.1254E-01  0.1208E-01  0.9916E-01  0.9927E-01
    -14.834  0.1954E-01  0.2013E-01  0.1027E+00  0.1029E+00
    -14.654  0.1818E-01  0.1777E-01  0.1059E+00  0.1061E+00
    -14.474  0.1497E-01  0.1529E-01  0.1086E+00  0.1088E+00
    -14.295  0.1255E-01  0.1219E-01  0.1109E+00  0.1110E+00
    -14.115  0.1655E-01  0.1664E-01  0.1138E+00  0.1140E+00
    -13.936  0.1849E-01  0.1910E-01  0.1172E+00  0.1174E+00
    -13.756  0.1764E-01  0.1671E-01  0.1203E+00  0.1204E+00
    -13.577  0.1026E-01  0.1074E-01  0.1222E+00  0.1224E+00
    -13.397  0.2077E-01  0.2107E-01  0.1259E+00  0.1261E+00
    -13.218  0.1169E-01  0.1109E-01  0.1280E+00  0.1281E+00
    -13.038  0.7847E-02  0.7662E-02  0.1294E+00  0.1295E+00
    -12.858  0.1156E-01  0.1190E-01  0.1315E+00  0.1316E+00
    -12.679  0.2271E-01  0.2314E-01  0.1356E+00  0.1358E+00
    -12.499  0.1407E-01  0.1351E-01  0.1381E+00  0.1382E+00
    -12.320  0.6831E-02  0.6508E-02  0.1393E+00  0.1394E+00
    -12.140  0.1009E-01  0.1046E-01  0.1411E+00  0.1413E+00
    -11.961  0.1359E-01  0.1344E-01  0.1436E+00  0.1437E+00
    -11.781  0.2538E-01  0.2609E-01  0.1481E+00  0.1484E+00
    -11.602  0.3163E-01  0.3167E-01  0.1538E+00  0.1540E+00
    -11.422  0.1606E-01  0.1500E-01  0.1567E+00  0.1567E+00
    -11.242  0.5458E-02  0.5702E-02  0.1577E+00  0.1578E+00
    -11.063  0.1246E-01  0.1256E-01  0.1599E+00  0.1600E+00
    -10.883  0.1535E-01  0.1566E-01  0.1627E+00  0.1628E+00
    -10.704  0.2129E-01  0.2128E-01  0.1665E+00  0.1667E+00
    -10.524  0.1780E-01  0.1773E-01  0.1697E+00  0.1698E+00
    -10.345  0.1887E-01  0.1851E-01  0.1731E+00  0.1732E+00
    -10.165  0.1914E-01  0.1957E-01  0.1765E+00  0.1767E+00
     -9.986  0.2716E-01  0.2963E-01  0.1814E+00  0.1820E+00
     -9.806  0.3046E-01  0.2814E-01  0.1869E+00  0.1870E+00
     -9.626  0.2685E-01  0.2712E-01  0.1917E+00  0.1919E+00
     -9.447  0.2711E-01  0.2712E-01  0.1965E+00  0.1968E+00
     -9.267  0.2545E-01  0.2526E-01  0.2011E+00  0.2013E+00
     -9.088  0.3215E-01  0.3257E-01  0.2069E+00  0.2072E+00
     -8.908  0.3704E-01  0.3678E-01  0.2135E+00  0.2138E+00
     -8.729  0.4401E-01  0.4545E-01  0.2214E+00  0.2219E+00
     -8.549  0.4240E-01  0.4108E-01  0.2291E+00  0.2293E+00
     -8.370  0.4344E-01  0.4411E-01  0.2369E+00  0.2372E+00
     -8.190  0.4406E-01  0.4353E-01  0.2448E+00  0.2450E+00
     -8.011  0.3648E-01  0.3616E-01  0.2513E+00  0.2515E+00
     -7.831  0.2500E-01  0.2519E-01  0.2558E+00  0.2561E+00
     -7.651  0.1648E-01  0.1548E-01  0.2588E+00  0.2588E+00
     -7.472  0.2983E-01  0.3183E-01  0.2641E+00  0.2646E+00
     -7.292  0.4111E-01  0.4058E-01  0.2715E+00  0.2718E+00
     -7.113  0.4430E-01  0.4306E-01  0.2795E+00  0.2796E+00
     -6.933  0.3002E-01  0.3007E-01  0.2848E+00  0.2850E+00
     -6.754  0.1536E-01  0.1554E-01  0.2876E+00  0.2878E+00
     -6.574  0.1233E-01  0.1193E-01  0.2898E+00  0.2899E+00
     -6.395  0.2188E-01  0.2037E-01  0.2937E+00  0.2936E+00
     -6.215  0.3829E-01  0.4025E-01  0.3006E+00  0.3008E+00
     -6.035  0.3443E-01  0.3503E-01  0.3068E+00  0.3071E+00
     -5.856  0.3102E-01  0.2994E-01  0.3124E+00  0.3125E+00
     -5.676  0.2294E-01  0.2117E-01  0.3165E+00  0.3163E+00
     -5.497  0.1682E-01  0.1856E-01  0.3195E+00  0.3196E+00
     -5.317  0.2107E-01  0.1680E-01  0.3233E+00  0.3226E+00
     -5.138  0.1942E-01  0.1604E-01  0.3268E+00  0.3255E+00
     -4.958  0.1886E-01  0.2345E-01  0.3302E+00  0.3297E+00
     -4.779  0.3400E-01  0.3612E-01  0.3363E+00  0.3362E+00
     -4.599  0.3463E-01  0.3409E-01  0.3425E+00  0.3423E+00
     -4.419  0.1862E-01  0.1469E-01  0.3458E+00  0.3449E+00
     -4.240  0.1437E-01  0.6563E-02  0.3484E+00  0.3461E+00
     -4.060  0.1083E-01  0.1490E-01  0.3504E+00  0.3488E+00
     -3.881  0.1670E-01  0.2340E-01  0.3534E+00  0.3530E+00
     -3.701  0.1033E-01  0.1145E-01  0.3552E+00  0.3550E+00
     -3.522  0.1537E-01  0.1363E-01  0.3580E+00  0.3575E+00
     -3.342  0.1340E-01  0.9910E-02  0.3604E+00  0.3593E+00
     -3.163  0.1664E-01  0.7709E-02  0.3634E+00  0.3607E+00
     -2.983  0.1371E-01  0.5943E-02  0.3658E+00  0.3617E+00
     -2.803  0.2333E-02  0.8182E-03  0.3662E+00  0.3619E+00
     -2.624  0.5723E-03  0.1290E-04  0.3664E+00  0.3619E+00
     -2.444  0.2890E-02  0.2782E-02  0.3669E+00  0.3624E+00
     -2.265  0.3102E-02  0.1017E-01  0.3674E+00  0.3642E+00
     -2.085  0.5233E-02  0.4008E-02  0.3684E+00  0.3649E+00
     -1.906  0.8771E-02  0.2959E-02  0.3699E+00  0.3655E+00
     -1.726  0.8380E-02  0.2751E-02  0.3714E+00  0.3659E+00
     -1.547  0.1083E-01  0.1671E-02  0.3734E+00  0.3662E+00
     -1.367  0.1178E-01  0.1969E-02  0.3755E+00  0.3666E+00
     -1.187  0.4481E-02  0.8399E-02  0.3763E+00  0.3681E+00
     -1.008  0.6673E-02  0.1732E-01  0.3775E+00  0.3712E+00
     -0.828  0.1085E-01  0.3127E-01  0.3795E+00  0.3768E+00
     -0.649  0.2492E-01  0.2725E-01  0.3839E+00  0.3817E+00
     -0.469  0.1180E-01  0.1889E-01  0.3860E+00  0.3851E+00
     -0.290  0.1572E-01  0.1551E-01  0.3889E+00  0.3879E+00
     -0.110  0.1915E-01  0.2121E-01  0.3923E+00  0.3917E+00
      0.069  0.1048E-01  0.9802E-02  0.3942E+00  0.3935E+00
      0.249  0.1907E-01  0.1802E-01  0.3976E+00  0.3967E+00
      0.429  0.2194E-01  0.2898E-01  0.4016E+00  0.4019E+00
      0.608  0.1483E-01  0.1379E-01  0.4042E+00  0.4044E+00
      0.788  0.1578E-01  0.9313E-02  0.4071E+00  0.4061E+00
      0.967  0.1661E-01  0.1419E-01  0.4100E+00  0.4086E+00
      1.147  0.7895E-02  0.1505E-01  0.4115E+00  0.4113E+00
      1.326  0.1914E-01  0.1522E-01  0.4149E+00  0.4140E+00
      1.506  0.1963E-01  0.2204E-01  0.4184E+00  0.4180E+00
      1.685  0.2121E-01  0.1924E-01  0.4222E+00  0.4215E+00
      1.865  0.2599E-01  0.2430E-01  0.4269E+00  0.4258E+00
      2.045  0.3759E-01  0.3412E-01  0.4336E+00  0.4319E+00
      2.224  0.2733E-01  0.3115E-01  0.4385E+00  0.4375E+00
      2.404  0.1975E-01  0.1838E-01  0.4421E+00  0.4408E+00
      2.583  0.3502E-01  0.3513E-01  0.4484E+00  0.4471E+00
      2.763  0.5143E-01  0.5506E-01  0.4576E+00  0.4570E+00
      2.942  0.1294E-01  0.1604E-01  0.4599E+00  0.4599E+00
      3.122  0.3528E-03  0.5017E-03  0.4600E+00  0.4600E+00
      3.301  0.7560E-07  0.1220E-06  0.4600E+00  0.4600E+00
      3.481  0.3918E-13  0.7022E-13  0.4600E+00  0.4600E+00
      3.661  0.0000E+00  0.0000E+00  0.4600E+00  0.4600E+00
      3.840  0.0000E+00  0.0000E+00  0.4600E+00  0.4600E+00
      4.020  0.0000E+00  0.0000E+00  0.4600E+00  0.4600E+00
      4.199  0.0000E+00  0.0000E+00  0.4600E+00  0.4600E+00
      4.379  0.0000E+00  0.0000E+00  0.4600E+00  0.4600E+00
      4.558  0.0000E+00  0.0000E+00  0.4600E+00  0.4600E+00
      4.738  0.0000E+00  0.0000E+00  0.4600E+00  0.4600E+00
      4.917  0.0000E+00  0.0000E+00  0.4600E+00  0.4600E+00
      5.097  0.0000E+00  0.0000E+00  0.4600E+00  0.4600E+00
      5.277  0.0000E+00  0.0000E+00  0.4600E+00  0.4600E+00
