 vasp.5.4.4.18Apr17-6-g9f103f2a35 (build Sep 02 2021 13:24:58) complex          
  
 executed on             LinuxIFC date 2023.01.15  13:02:11
 running on   48 total cores
 distrk:  each k-point on   48 cores,    1 groups
 distr:  one band on NCORES_PER_BAND=  12 cores,    4 groups


--------------------------------------------------------------------------------------------------------


 INCAR:
 POTCAR:    PAW_PBE C 08Apr2002                   
 POTCAR:    PAW_PBE N 08Apr2002                   
 POTCAR:    PAW_PBE C 08Apr2002                   
 POTCAR:    PAW_PBE Cr_pv 02Aug2007               
 POTCAR:    PAW_PBE C 08Apr2002                   
   SHA256 =  253f7b50bb8d59471dbedb8285d89021f4a42ed1a2c5d38a03a736e69125dd95 C/
   COPYR  = (c) Copyright 08Apr2002 Georg Kresse                                
   COPYR  = This file is part of the software VASP. Any use, copying, and all ot
   COPYR  = If you do not have a valid VASP license, you may not use, copy or di
   VRHFIN =C: s2p2                                                              
   LEXCH  = PE                                                                  
   EATOM  =   147.1560 eV,   10.8157 Ry                                         
                                                                                
   TITEL  = PAW_PBE C 08Apr2002                                                 
   LULTRA =        F    use ultrasoft PP ?                                      
   IUNSCR =        1    unscreen: 0-lin 1-nonlin 2-no                           
   RPACOR =    1.200    partial core radius                                     
   POMASS =   12.011; ZVAL   =    4.000    mass and valenz                      
   RCORE  =    1.500    outmost cutoff radius                                   
   RWIGS  =    1.630; RWIGS  =    0.863    wigner-seitz radius (au A)           
   ENMAX  =  400.000; ENMIN  =  300.000 eV                                      
   ICORE  =        2    local potential                                         
   LCOR   =        T    correct aug charges                                     
   LPAW   =        T    paw PP                                                  
   EAUG   =  644.873                                                            
   DEXC   =    0.000                                                            
   RMAX   =    1.529    core radius for proj-oper                               
   RAUG   =    1.300    factor for augmentation sphere                          
   RDEP   =    1.501    radius for radial grids                                 
   RDEPT  =    1.300    core radius for aug-charge                              
                                                                                
   Atomic configuration                                                         
    4 entries                                                                   
     n  l   j            E        occ.                                          
     1  0  0.50      -273.3789   2.0000                                         
     2  0  0.50       -13.7508   2.0000                                         
     2  1  0.50        -5.2854   2.0000                                         
     3  2  1.50        -5.4423   0.0000                                         
   Description                                                                  
     l       E           TYP  RCUT    TYP  RCUT                                 
     0    -13.7508458     23  1.200                                             
     0     -8.2022199     23  1.200                                             
     1     -5.2854383     23  1.500                                             
     1     34.0145650     23  1.500                                             
     2     -5.4423304      7  1.500                                             
  local pseudopotential read in
  partial core-charges read in
  partial kinetic energy density read in
  atomic valenz-charges read in
  non local Contribution for L=           0  read in
    real space projection operators read in
  non local Contribution for L=           0  read in
    real space projection operators read in
  non local Contribution for L=           1  read in
    real space projection operators read in
  non local Contribution for L=           1  read in
    real space projection operators read in
    PAW grid and wavefunctions read in
 
   number of l-projection  operators is LMAX  =           4
   number of lm-projection operators is LMMAX =           8
 
 POTCAR:    PAW_PBE N 08Apr2002                   
   SHA256 =  e053789ff3a61a86a1b75d8a110fcc91f86041011e7b0817c7c99e4e8a6349d7 N/
   COPYR  = (c) Copyright 08Apr2002 Georg Kresse                                
   COPYR  = This file is part of the software VASP. Any use, copying, and all ot
   COPYR  = If you do not have a valid VASP license, you may not use, copy or di
   VRHFIN =N: s2p3                                                              
   LEXCH  = PE                                                                  
   EATOM  =   264.5486 eV,   19.4438 Ry                                         
                                                                                
   TITEL  = PAW_PBE N 08Apr2002                                                 
   LULTRA =        F    use ultrasoft PP ?                                      
   IUNSCR =        1    unscreen: 0-lin 1-nonlin 2-no                           
   RPACOR =    1.200    partial core radius                                     
   POMASS =   14.001; ZVAL   =    5.000    mass and valenz                      
   RCORE  =    1.500    outmost cutoff radius                                   
   RWIGS  =    1.400; RWIGS  =    0.741    wigner-seitz radius (au A)           
   ENMAX  =  400.000; ENMIN  =  300.000 eV                                      
   ICORE  =        2    local potential                                         
   LCOR   =        T    correct aug charges                                     
   LPAW   =        T    paw PP                                                  
   EAUG   =  627.112                                                            
   DEXC   =    0.000                                                            
   RMAX   =    1.529    core radius for proj-oper                               
   RAUG   =    1.300    factor for augmentation sphere                          
   RDEP   =    1.514    radius for radial grids                                 
   RDEPT  =    1.338    core radius for aug-charge                              
                                                                                
   Atomic configuration                                                         
    4 entries                                                                   
     n  l   j            E        occ.                                          
     1  0  0.50      -384.7179   2.0000                                         
     2  0  0.50       -18.5828   2.0000                                         
     2  1  0.50        -7.0898   3.0000                                         
     3  2  1.50        -6.8029   0.0000                                         
   Description                                                                  
     l       E           TYP  RCUT    TYP  RCUT                                 
     0    -18.5828119     23  1.200                                             
     0    -13.5018863     23  1.200                                             
     1     -7.0897853     23  1.500                                             
     1      9.5240782     23  1.500                                             
     2     -6.8029130      7  1.500                                             
  local pseudopotential read in
  partial core-charges read in
  partial kinetic energy density read in
  atomic valenz-charges read in
  non local Contribution for L=           0  read in
    real space projection operators read in
  non local Contribution for L=           0  read in
    real space projection operators read in
  non local Contribution for L=           1  read in
    real space projection operators read in
  non local Contribution for L=           1  read in
    real space projection operators read in
    PAW grid and wavefunctions read in
 
   number of l-projection  operators is LMAX  =           4
   number of lm-projection operators is LMMAX =           8
 
 POTCAR:    PAW_PBE C 08Apr2002                   
   SHA256 =  253f7b50bb8d59471dbedb8285d89021f4a42ed1a2c5d38a03a736e69125dd95 C/
   COPYR  = (c) Copyright 08Apr2002 Georg Kresse                                
   COPYR  = This file is part of the software VASP. Any use, copying, and all ot
   COPYR  = If you do not have a valid VASP license, you may not use, copy or di
   VRHFIN =C: s2p2                                                              
   LEXCH  = PE                                                                  
   EATOM  =   147.1560 eV,   10.8157 Ry                                         
                                                                                
   TITEL  = PAW_PBE C 08Apr2002                                                 
   LULTRA =        F    use ultrasoft PP ?                                      
   IUNSCR =        1    unscreen: 0-lin 1-nonlin 2-no                           
   RPACOR =    1.200    partial core radius                                     
   POMASS =   12.011; ZVAL   =    4.000    mass and valenz                      
   RCORE  =    1.500    outmost cutoff radius                                   
   RWIGS  =    1.630; RWIGS  =    0.863    wigner-seitz radius (au A)           
   ENMAX  =  400.000; ENMIN  =  300.000 eV                                      
   ICORE  =        2    local potential                                         
   LCOR   =        T    correct aug charges                                     
   LPAW   =        T    paw PP                                                  
   EAUG   =  644.873                                                            
   DEXC   =    0.000                                                            
   RMAX   =    1.529    core radius for proj-oper                               
   RAUG   =    1.300    factor for augmentation sphere                          
   RDEP   =    1.501    radius for radial grids                                 
   RDEPT  =    1.300    core radius for aug-charge                              
                                                                                
   Atomic configuration                                                         
    4 entries                                                                   
     n  l   j            E        occ.                                          
     1  0  0.50      -273.3789   2.0000                                         
     2  0  0.50       -13.7508   2.0000                                         
     2  1  0.50        -5.2854   2.0000                                         
     3  2  1.50        -5.4423   0.0000                                         
   Description                                                                  
     l       E           TYP  RCUT    TYP  RCUT                                 
     0    -13.7508458     23  1.200                                             
     0     -8.2022199     23  1.200                                             
     1     -5.2854383     23  1.500                                             
     1     34.0145650     23  1.500                                             
     2     -5.4423304      7  1.500                                             
  local pseudopotential read in
  partial core-charges read in
  partial kinetic energy density read in
  atomic valenz-charges read in
  non local Contribution for L=           0  read in
    real space projection operators read in
  non local Contribution for L=           0  read in
    real space projection operators read in
  non local Contribution for L=           1  read in
    real space projection operators read in
  non local Contribution for L=           1  read in
    real space projection operators read in
    PAW grid and wavefunctions read in
 
   number of l-projection  operators is LMAX  =           4
   number of lm-projection operators is LMMAX =           8
 
 POTCAR:    PAW_PBE Cr_pv 02Aug2007               
   SHA256 =  c9a7df34d3cdbacf1090e328ef39c0b420964e11c23f63548d1ac9dd218cdba0 Cr
   COPYR  = (c) Copyright 02Aug2007 Georg Kresse                                
   COPYR  = This file is part of the software VASP. Any use, copying, and all ot
   COPYR  = If you do not have a valid VASP license, you may not use, copy or di
   VRHFIN =Cr : p6d5s1                                                          
   LEXCH  = PE                                                                  
   EATOM  =  1647.9177 eV,  121.1185 Ry                                         
                                                                                
   TITEL  = PAW_PBE Cr_pv 02Aug2007                                             
   LULTRA =        F    use ultrasoft PP ?                                      
   IUNSCR =        1    unscreen: 0-lin 1-nonlin 2-no                           
   RPACOR =    2.080    partial core radius                                     
   POMASS =   51.996; ZVAL   =   12.000    mass and valenz                      
   RCORE  =    2.300    outmost cutoff radius                                   
   RWIGS  =    2.500; RWIGS  =    1.323    wigner-seitz radius (au A)           
   ENMAX  =  265.681; ENMIN  =  199.261 eV                                      
   ICORE  =        3    local potential                                         
   LCOR   =        T    correct aug charges                                     
   LPAW   =        T    paw PP                                                  
   EAUG   =  519.424                                                            
   DEXC   =    0.000                                                            
   RMAX   =    2.356    core radius for proj-oper                               
   RAUG   =    1.300    factor for augmentation sphere                          
   RDEP   =    2.447    radius for radial grids                                 
   RDEPT  =    1.882    core radius for aug-charge                              
                                                                                
   Atomic configuration                                                         
    8 entries                                                                   
     n  l   j            E        occ.                                          
     1  0  0.50     -5880.4963   2.0000                                         
     2  0  0.50      -667.0865   2.0000                                         
     2  1  1.50      -560.6250   6.0000                                         
     3  0  0.50       -73.9860   2.0000                                         
     3  1  1.50       -45.4378   6.0000                                         
     3  2  2.50        -2.9137   5.0000                                         
     4  0  0.50        -4.0071   1.0000                                         
     4  3  2.50        -1.3606   0.0000                                         
   Description                                                                  
     l       E           TYP  RCUT    TYP  RCUT                                 
     1    -45.4377911     23  2.000                                             
     1      1.3605826     23  2.000                                             
     2     -2.9136672     23  2.300                                             
     2     -4.2742498     23  2.300                                             
     0     -4.0071320     23  2.300                                             
     0      9.4498803     23  2.300                                             
     3      2.7211652     23  2.300                                             
  local pseudopotential read in
  partial core-charges read in
  partial kinetic energy density read in
  atomic valenz-charges read in
  non local Contribution for L=           1  read in
    real space projection operators read in
  non local Contribution for L=           1  read in
    real space projection operators read in
  non local Contribution for L=           2  read in
    real space projection operators read in
  non local Contribution for L=           2  read in
    real space projection operators read in
  non local Contribution for L=           0  read in
    real space projection operators read in
  non local Contribution for L=           0  read in
    real space projection operators read in
    PAW grid and wavefunctions read in
 
   number of l-projection  operators is LMAX  =           6
   number of lm-projection operators is LMMAX =          18
 
 Optimization of the real space projectors (new method)

 maximal supplied QI-value         = 25.13
 optimisation between [QCUT,QGAM] = [ 11.81, 23.88] = [ 39.08,159.64] Ry 
 Optimized for a Real-space Cutoff    1.18 Angstroem

   l    n(q)    QCUT    max X(q) W(low)/X(q) W(high)/X(q)  e(spline) 
   0      8    11.813   115.676    0.10E-03    0.16E-03    0.35E-06
   0      8    11.813    87.132    0.10E-03    0.16E-03    0.35E-06
   1      8    11.813     4.429    0.16E-03    0.13E-04    0.22E-06
   1      8    11.813     2.733    0.13E-03    0.10E-04    0.18E-06
 Optimization of the real space projectors (new method)

 maximal supplied QI-value         = 25.13
 optimisation between [QCUT,QGAM] = [ 11.81, 23.88] = [ 39.08,159.64] Ry 
 Optimized for a Real-space Cutoff    1.41 Angstroem

   l    n(q)    QCUT    max X(q) W(low)/X(q) W(high)/X(q)  e(spline) 
   0     10    11.813    79.467    0.48E-04    0.30E-04    0.67E-06
   0     10    11.813    66.151    0.47E-04    0.30E-04    0.67E-06
   1     10    11.813    20.169    0.11E-03    0.17E-03    0.11E-05
   1     10    11.813    14.454    0.11E-03    0.17E-03    0.11E-05
 Optimization of the real space projectors (new method)

 maximal supplied QI-value         = 25.13
 optimisation between [QCUT,QGAM] = [ 11.81, 23.88] = [ 39.08,159.64] Ry 
 Optimized for a Real-space Cutoff    1.18 Angstroem

   l    n(q)    QCUT    max X(q) W(low)/X(q) W(high)/X(q)  e(spline) 
   0      8    11.813   115.676    0.10E-03    0.16E-03    0.35E-06
   0      8    11.813    87.132    0.10E-03    0.16E-03    0.35E-06
   1      8    11.813     4.429    0.16E-03    0.13E-04    0.22E-06
   1      8    11.813     2.733    0.13E-03    0.10E-04    0.18E-06
 Optimization of the real space projectors (new method)

 maximal supplied QI-value         = 16.25
 optimisation between [QCUT,QGAM] = [ 11.86, 23.89] = [ 39.41,159.82] Ry 
 Optimized for a Real-space Cutoff    1.33 Angstroem

   l    n(q)    QCUT    max X(q) W(low)/X(q) W(high)/X(q)  e(spline) 
   1      9    11.864     3.262    0.48E-04    0.16E-03    0.14E-06
   1      9    11.864     5.741    0.74E-04    0.40E-03    0.35E-06
   2      9    11.864    60.438    0.17E-03    0.21E-03    0.26E-06
   2      9    11.864    55.380    0.17E-03    0.21E-03    0.27E-06
   0      9    11.864    80.273    0.40E-04    0.47E-04    0.12E-06
   0      9    11.864    36.654    0.35E-04    0.41E-04    0.11E-06
  PAW_PBE C 08Apr2002                   :
 energy of atom  1       EATOM= -147.1560
 kinetic energy error for atom=    0.0066 (will be added to EATOM!!)
  PAW_PBE N 08Apr2002                   :
 energy of atom  2       EATOM= -264.5486
 kinetic energy error for atom=    0.0116 (will be added to EATOM!!)
  PAW_PBE C 08Apr2002                   :
 energy of atom  3       EATOM= -147.1560
 kinetic energy error for atom=    0.0066 (will be added to EATOM!!)
  PAW_PBE Cr_pv 02Aug2007               :
 energy of atom  4       EATOM=-1647.9177
 kinetic energy error for atom=    0.0054 (will be added to EATOM!!)
 
 
 POSCAR: POSCAR-clean                            
  positions in cartesian coordinates
  No initial velocities read in
 exchange correlation table for  LEXCH =        8
   RHO(1)=    0.500       N(1)  =     2000
   RHO(2)=  100.500       N(2)  =     4000
 


--------------------------------------------------------------------------------------------------------


 ion  position               nearest neighbor table
   1  0.000  1.000  0.498-   2 1.42  60 1.42  70 1.43
   2  0.056  0.111  0.498-   1 1.42  13 1.42  15 1.43
   3  0.168  0.002  0.498-   4 1.42  62 1.43  60 1.43
   4  0.224  0.113  0.498-   3 1.42  15 1.42  17 1.44
   5  0.334  0.002  0.498-   6 1.42  62 1.43  64 1.43
   6  0.390  0.113  0.498-   5 1.42  19 1.42  17 1.44
   7  0.500  1.000  0.498-   8 1.42  64 1.42  66 1.43
   8  0.556  0.111  0.498-   7 1.42  21 1.42  19 1.43
   9  0.666  0.998  0.498-  10 1.42  66 1.42  68 1.44
  10  0.722  0.109  0.498-   9 1.42  23 1.43  21 1.43
  11  0.832  0.998  0.498-  12 1.42  70 1.42  68 1.44
  12  0.888  0.109  0.498-  11 1.42  23 1.43  13 1.43
  13  0.999  0.165  0.498-  14 1.42   2 1.42  12 1.43
  14  0.054  0.277  0.499-  13 1.42  25 1.42  27 1.43
  15  0.167  0.168  0.498-  16 1.42   4 1.42   2 1.43
  16  0.223  0.280  0.500-  15 1.42  27 1.43  29 1.44
  17  0.335  0.170  0.499-  18 1.42   4 1.44   6 1.44
  18  0.391  0.281  0.503-  17 1.42  31 1.44  29 1.44
  19  0.501  0.168  0.498-  20 1.42   6 1.42   8 1.43
  20  0.557  0.280  0.500-  19 1.42  33 1.43  31 1.44
  21  0.667  0.165  0.498-  22 1.42   8 1.42  10 1.43
  22  0.723  0.277  0.498-  21 1.42  35 1.42  33 1.43
  23  0.833  0.165  0.498-  24 1.42  10 1.43  12 1.43
  24  0.888  0.276  0.498-  23 1.42  25 1.42  35 1.43
  25  0.999  0.332  0.498-  14 1.42  26 1.42  24 1.42
  26  0.054  0.444  0.499-  39 1.42  37 1.42  25 1.42
  27  0.165  0.333  0.500-  28 1.42  16 1.43  14 1.43
  28  0.219  0.444  0.502-  41 1.41  27 1.42  39 1.42
  29  0.335  0.338  0.503-  30 1.41  18 1.44  16 1.44
  30  0.387  0.448  0.510-  41 1.41  29 1.41  71 2.00
  31  0.503  0.338  0.504-  32 1.41  18 1.44  20 1.44
  32  0.562  0.448  0.510-  43 1.41  31 1.41  71 2.00
  33  0.668  0.333  0.500-  34 1.42  20 1.43  22 1.43
  34  0.725  0.444  0.501-  43 1.41  33 1.42  45 1.42
  35  0.833  0.332  0.498-  22 1.42  36 1.42  24 1.43
  36  0.890  0.444  0.498-  45 1.42  37 1.42  35 1.42
  37  0.000  0.500  0.498-  36 1.42  26 1.42  38 1.42
  38  0.056  0.611  0.498-  47 1.42  49 1.42  37 1.42
  39  0.165  0.500  0.500-  26 1.42  28 1.42  40 1.42
  40  0.220  0.611  0.500-  49 1.42  51 1.42  39 1.42
  41  0.329  0.499  0.505-  30 1.41  28 1.41  42 1.44
  42  0.385  0.612  0.505-  53 1.41  51 1.41  41 1.44
  43  0.671  0.499  0.505-  32 1.41  34 1.41  44 1.44
  44  0.727  0.612  0.505-  55 1.41  57 1.41  43 1.44
  45  0.836  0.500  0.499-  36 1.42  34 1.42  46 1.42
  46  0.891  0.611  0.499-  47 1.42  57 1.42  45 1.42
  47  0.001  0.667  0.498-  46 1.42  38 1.42  48 1.42
  48  0.057  0.779  0.498-  59 1.42  47 1.42  61 1.43
  49  0.166  0.667  0.499-  40 1.42  38 1.42  50 1.42
  50  0.222  0.779  0.498-  63 1.42  49 1.42  61 1.42
  51  0.331  0.667  0.502-  42 1.41  52 1.42  40 1.42
  52  0.388  0.778  0.500-  51 1.42  65 1.43  63 1.43
  53  0.494  0.663  0.510-  42 1.41  54 1.41  71 2.00
  54  0.553  0.773  0.503-  53 1.41  67 1.44  65 1.44
  55  0.669  0.663  0.510-  44 1.41  56 1.41  71 2.00
  56  0.721  0.773  0.504-  55 1.41  67 1.44  69 1.44
  57  0.837  0.667  0.501-  44 1.41  58 1.42  46 1.42
  58  0.891  0.778  0.500-  57 1.42  69 1.42  59 1.43
  59  0.002  0.835  0.498-  60 1.42  48 1.42  58 1.43
  60  0.057  0.946  0.498-  59 1.42   1 1.42   3 1.43
  61  0.168  0.835  0.498-  62 1.42  50 1.42  48 1.43
  62  0.223  0.946  0.498-  61 1.42   3 1.43   5 1.43
  63  0.333  0.835  0.499-  64 1.42  50 1.42  52 1.43
  64  0.389  0.946  0.498-  63 1.42   7 1.42   5 1.43
  65  0.499  0.832  0.500-  66 1.42  52 1.43  54 1.44
  66  0.555  0.943  0.498-  65 1.42   9 1.42   7 1.43
  67  0.665  0.830  0.503-  68 1.42  56 1.44  54 1.44
  68  0.721  0.941  0.499-  67 1.42   9 1.44  11 1.44
  69  0.833  0.832  0.500-  70 1.42  58 1.42  56 1.44
  70  0.889  0.943  0.498-  69 1.42  11 1.42   1 1.43
  71  0.528  0.556  0.554-  55 2.00  32 2.00  53 2.00  30 2.00
 

IMPORTANT INFORMATION: All symmetrisations will be switched off!
NOSYMM: (Re-)initialisation of all symmetry stuff for point group C_1.

 
 
 KPOINTS: K-Points                                

Automatic generation of k-mesh.
Space group operators:
 irot       det(A)        alpha          n_x          n_y          n_z        tau_x        tau_y        tau_z
    1     1.000000     0.000000     1.000000     0.000000     0.000000     0.000000     0.000000     0.000000
 
 Subroutine IBZKPT returns following result:
 ===========================================
 
 Found      4 irreducible k-points:
 
 Following reciprocal coordinates:
            Coordinates               Weight
  0.000000  0.000000  0.000000      1.000000
  0.500000  0.000000  0.000000      1.000000
 -0.000000  0.500000  0.000000      1.000000
  0.500000  0.500000  0.000000      1.000000
 
 Following cartesian coordinates:
            Coordinates               Weight
  0.000000  0.000000  0.000000      1.000000
  0.033606  0.019589  0.000000      1.000000
 -0.000000  0.039178  0.000000      1.000000
  0.033606  0.058767  0.000000      1.000000
 


--------------------------------------------------------------------------------------------------------




 Dimension of arrays:
   k-points           NKPTS =      4   k-points in BZ     NKDIM =      4   number of bands    NBANDS=    184
   number of dos      NEDOS =    301   number of ions     NIONS =     71
   non local maximal  LDIM  =      6   non local SUM 2l+1 LMDIM =     18
   total plane-waves  NPLWV = ******
   max r-space proj   IRMAX =   7110   max aug-charges    IRDMAX=  21308
   dimension x,y,z NGX =   120 NGY =  120 NGZ =  120
   dimension x,y,z NGXF=   240 NGYF=  240 NGZF=  240
   support grid    NGXF=   240 NGYF=  240 NGZF=  240
   ions per type =              40   1  29   1
   NGX,Y,Z   is equivalent  to a cutoff of  13.41, 13.50, 13.30 a.u.
   NGXF,Y,Z  is equivalent  to a cutoff of  26.82, 27.01, 26.60 a.u.

 SYSTEM =  unknown system                          
 POSCAR =  POSCAR-clean                            

 Startparameter for this run:
   NWRITE =      2    write-flag & timer
   PREC   = accura    normal or accurate (medium, high low for compatibility)
   ISTART =      0    job   : 0-new  1-cont  2-samecut
   ICHARG =      2    charge: 1-file 2-atom 10-const
   ISPIN  =      2    spin polarized calculation?
   LNONCOLLINEAR =      F non collinear calculations
   LSORBIT =      F    spin-orbit coupling
   INIWAV =      1    electr: 0-lowe 1-rand  2-diag
   LASPH  =      F    aspherical Exc in radial PAW
   METAGGA=      F    non-selfconsistent MetaGGA calc.

 Electronic Relaxation 1
   ENCUT  =  550.0 eV  40.42 Ry    6.36 a.u.  28.45 28.25 28.68*2*pi/ulx,y,z
   ENINI  =  550.0     initial cutoff
   ENAUG  =  644.9 eV  augmentation charge cutoff
   NELM   =     50;   NELMIN=  2; NELMDL= -5     # of ELM steps 
   EDIFF  = 0.1E-04   stopping-criterion for ELM
   LREAL  =      T    real-space projection
   NLSPLINE    = F    spline interpolate recip. space projectors
   LCOMPAT=      F    compatible to vasp.4.4
   GGA_COMPAT  = T    GGA compatible to vasp.4.4-vasp.4.6
   LMAXPAW     = -100 max onsite density
   LMAXMIX     =    2 max onsite mixed and CHGCAR
   VOSKOWN=      0    Vosko Wilk Nusair interpolation
   ROPT   =   -0.00025  -0.00025  -0.00025  -0.00025
 Ionic relaxation
   EDIFFG = -.5E-01   stopping-criterion for IOM
   NSW    =    400    number of steps for IOM
   NBLOCK =      1;   KBLOCK =    400    inner block; outer block 
   IBRION =      2    ionic relax: 0-MD 1-quasi-New 2-CG
   NFREE  =      1    steps in history (QN), initial steepest desc. (CG)
   ISIF   =      3    stress and relaxation
   IWAVPR =     11    prediction:  0-non 1-charg 2-wave 3-comb
   ISYM   =      0    0-nonsym 1-usesym 2-fastsym
   LCORR  =      T    Harris-Foulkes like correction to forces

   POTIM  = 0.3000    time-step for ionic-motion
   TEIN   =    0.0    initial temperature
   TEBEG  =    0.0;   TEEND  =   0.0 temperature during run
   SMASS  =  -3.00    Nose mass-parameter (am)
   estimated Nose-frequenzy (Omega)   =  0.10E-29 period in steps =****** mass=  -0.506E-26a.u.
   SCALEE = 1.0000    scale energy and forces
   NPACO  =    256;   APACO  = 16.0  distance and # of slots for P.C.
   PSTRESS=    0.0 pullay stress

  Mass of Ions in am
   POMASS =  12.01 14.00 12.01 52.00
  Ionic Valenz
   ZVAL   =   4.00  5.00  4.00 12.00
  Atomic Wigner-Seitz radii
   RWIGS  =  -1.00 -1.00 -1.00 -1.00
  virtual crystal weights 
   VCA    =   1.00  1.00  1.00  1.00
   NELECT =     293.0000    total number of electrons
   NUPDOWN=      -1.0000    fix difference up-down

 DOS related values:
   EMIN   =  10.00;   EMAX   =-10.00  energy-range for DOS
   EFERMI =   0.00
   ISMEAR =     0;   SIGMA  =   0.10  broadening in eV -4-tet -1-fermi 0-gaus

 Electronic relaxation 2 (details)
   IALGO  =     68    algorithm
   LDIAG  =      T    sub-space diagonalisation (order eigenvalues)
   LSUBROT=      F    optimize rotation matrix (better conditioning)
   TURBO    =      0    0=normal 1=particle mesh
   IRESTART =      0    0=no restart 2=restart with 2 vectors
   NREBOOT  =      0    no. of reboots
   NMIN     =      0    reboot dimension
   EREF     =   0.00    reference energy to select bands
   IMIX   =      4    mixing-type and parameters
     AMIX     =   0.40;   BMIX     =  1.00
     AMIX_MAG =   1.60;   BMIX_MAG =  1.00
     AMIN     =   0.10
     WC   =   100.;   INIMIX=   1;  MIXPRE=   1;  MAXMIX= -45

 Intra band minimization:
   WEIMIN = 0.0010     energy-eigenvalue tresh-hold
   EBREAK =  0.14E-07  absolut break condition
   DEPER  =   0.30     relativ break condition  

   TIME   =   0.40     timestep for ELM

  volume/ion in A,a.u.               =      40.12       270.71
  Fermi-wavevector in a.u.,A,eV,Ry     =   0.767079  1.449569  8.005805  0.588410
  Thomas-Fermi vector in A             =   1.867557
 
 Write flags
   LWAVE        =      F    write WAVECAR
   LDOWNSAMPLE  =      F    k-point downsampling of WAVECAR
   LCHARG       =      F    write CHGCAR
   LVTOT        =      F    write LOCPOT, total local potential
   LVHAR        =      F    write LOCPOT, Hartree potential only
   LELF         =      F    write electronic localiz. function (ELF)
   LORBIT       =      0    0 simple, 1 ext, 2 COOP (PROOUT), +10 PAW based schemes


 Dipole corrections
   LMONO  =      F    monopole corrections only (constant potential shift)
   LDIPOL =      F    correct potential (dipole corrections)
   IDIPOL =      0    1-x, 2-y, 3-z, 4-all directions 
   EPSILON=  1.0000000 bulk dielectric constant

 Exchange correlation treatment:
   GGA     =    --    GGA type
   LEXCH   =     8    internal setting for exchange type
   VOSKOWN=      0    Vosko Wilk Nusair interpolation
   LHFCALC =     F    Hartree Fock is set to
   LHFONE  =     F    Hartree Fock one center treatment
   AEXX    =    0.0000 exact exchange contribution

 Linear response parameters
   LEPSILON=     F    determine dielectric tensor
   LRPA    =     F    only Hartree local field effects (RPA)
   LNABLA  =     F    use nabla operator in PAW spheres
   LVEL    =     F    velocity operator in full k-point grid
   LINTERFAST=   F  fast interpolation
   KINTER  =     0    interpolate to denser k-point grid
   CSHIFT  =0.1000    complex shift for real part using Kramers Kronig
   OMEGAMAX=  -1.0    maximum frequency
   DEG_THRESHOLD= 0.2000000E-02 threshold for treating states as degnerate
   RTIME   =   -0.100 relaxation time in fs
  (WPLASMAI=    0.000 imaginary part of plasma frequency in eV, 0.658/RTIME)
   DFIELD  = 0.0000000 0.0000000 0.0000000 field for delta impulse in time
 
 Orbital magnetization related:
   ORBITALMAG=     F  switch on orbital magnetization
   LCHIMAG   =     F  perturbation theory with respect to B field
   DQ        =  0.001000  dq finite difference perturbation B field
   LLRAUG    =     F  two centre corrections for induced B field



--------------------------------------------------------------------------------------------------------


 conjugate gradient relaxation of ions
 charge density and potential will be updated during run
 spin polarized calculation
 RMM-DIIS sequential band-by-band and
  variant of blocked Davidson during initial phase
 perform sub-space diagonalisation
    before iterative eigenvector-optimisation
 modified Broyden-mixing scheme, WC =      100.0
 initial mixing is a Kerker type mixing with AMIX =  0.4000 and BMIX =      1.0000
 Hartree-type preconditioning will be used
 using additional bands           37
 real space projection scheme for non local part
 use partial core corrections
 calculate Harris-corrections to forces 
   (improved forces if not selfconsistent)
 use gradient corrections 
 use of overlap-Matrix (Vanderbilt PP)
 Gauss-broadening in eV      SIGMA  =   0.10


--------------------------------------------------------------------------------------------------------


  energy-cutoff  :      550.00
  volume of cell :     2848.21
      direct lattice vectors                 reciprocal lattice vectors
    14.878307727  0.000105424  0.000000000     0.067211667  0.039178051  0.000000000
    -7.439153864 12.762195204  0.000000000    -0.000000555  0.078356102  0.000000000
     0.000000000  0.000000000 15.000000000     0.000000000  0.000000000  0.066666667

  length of vectors
    14.878307728 14.772089786 15.000000000     0.077796709  0.078356102  0.066666667


 
 k-points in units of 2pi/SCALE and weight: K-Points                                
   0.00000000  0.00000000  0.00000000       0.250
   0.03360583  0.01958903  0.00000000       0.250
  -0.00000028  0.03917805  0.00000000       0.250
   0.03360556  0.05876708  0.00000000       0.250
 
 k-points in reciprocal lattice and weights: K-Points                                
   0.00000000  0.00000000  0.00000000       0.250
   0.50000000  0.00000000  0.00000000       0.250
  -0.00000000  0.50000000  0.00000000       0.250
   0.50000000  0.50000000  0.00000000       0.250
 
 position of ions in fractional coordinates (direct lattice) 
   0.00014703  0.99993181  0.49766807
   0.05571316  0.11129367  0.49774774
   0.16803225  0.00210520  0.49753985
   0.22355821  0.11343998  0.49825115
   0.33432830  0.00207694  0.49777234
   0.39014706  0.11341551  0.49841838
   0.50002407  0.99989044  0.49775648
   0.55582710  0.11125266  0.49767590
   0.66571506  0.99774295  0.49825147
   0.72152612  0.10907882  0.49753824
   0.83231512  0.99776674  0.49841003
   0.88783929  0.10910686  0.49776801
   0.99908442  0.16549374  0.49784405
   0.05430809  0.27667161  0.49853746
   0.16734775  0.16806595  0.49834347
   0.22284185  0.27957445  0.49997583
   0.33528932  0.17029644  0.49941211
   0.39084341  0.28141813  0.50254970
   0.50097822  0.16802960  0.49842000
   0.55697129  0.27954076  0.49998817
   0.66664919  0.16545038  0.49752014
   0.72257294  0.27663324  0.49802908
   0.83255361  0.16485921  0.49764969
   0.88821716  0.27620991  0.49780056
   0.99906908  0.33222521  0.49838447
   0.05442247  0.44382388  0.49884723
   0.16531768  0.33288444  0.50001215
   0.21898612  0.44382270  0.50165224
   0.33514858  0.33773328  0.50339031
   0.38694525  0.44827387  0.50958670
   0.50284791  0.33770682  0.50360105
   0.56160602  0.44823797  0.50998391
   0.66778145  0.33285443  0.49963749
   0.72504010  0.44380782  0.50114295
   0.83335701  0.33221195  0.49791518
   0.88957865  0.44380677  0.49825237
   0.00003314  0.49990030  0.49835048
   0.05573614  0.61130743  0.49834565
   0.16452790  0.49985599  0.50032235
   0.22027264  0.61134265  0.50031499
   0.32877881  0.49923631  0.50514604
   0.38513300  0.61194665  0.50514739
   0.67071104  0.49923365  0.50517220
   0.72707059  0.61195035  0.50517224
   0.83551700  0.49986026  0.49948453
   0.89125350  0.61133457  0.49948422
   0.00136430  0.66739252  0.49824937
   0.05673614  0.77898562  0.49790902
   0.16620335  0.66738054  0.49883406
   0.22244721  0.77897560  0.49837060
   0.33076298  0.66736579  0.50164604
   0.38803591  0.77830247  0.50000539
   0.49425975  0.66291375  0.50958718
   0.55300964  0.77344715  0.50338828
   0.66896610  0.66295341  0.50998288
   0.72073432  0.77348097  0.50359479
   0.83682433  0.66738081  0.50114212
   0.89051054  0.77833045  0.49963539
   0.00151950  0.83455528  0.49802741
   0.05677874  0.94573836  0.49751926
   0.16759972  0.83498348  0.49779087
   0.22328727  0.94632847  0.49764984
   0.33324173  0.83452222  0.49853136
   0.38919606  0.94569806  0.49784785
   0.49886656  0.83160652  0.49997424
   0.55488261  0.94311446  0.49834783
   0.66501623  0.82976534  0.50254304
   0.72058356  0.94088512  0.49940688
   0.83301728  0.83164625  0.49998031
   0.88852543  0.94315192  0.49840894
   0.52788678  0.55561308  0.55407295
 
 position of ions in cartesian coordinates  (Angst):
  -7.43645893 12.76132490  7.46502101
   0.00098677  1.42035737  7.46621609
   2.48437460  0.02688469  7.46309769
   2.48227038  1.44776676  7.47376727
   4.95878870  0.02654158  7.46658504
   4.96101252  1.44747206  7.47627575
   0.00117320 12.76084966  7.46634727
   7.44214093  1.41988678  7.46513856
   2.48235028 12.73346045  7.47377203
   9.92363354  1.39216125  7.46307356
   4.96090025 12.73378160  7.47615045
  12.39788345  1.39253665  7.46652020
  13.63355202  2.11216869  7.46766080
  -1.25019027  3.53094287  7.47806186
   1.23958287  2.14490807  7.47515208
   1.23571236  3.56800714  7.49963746
   3.72167632  2.17339173  7.49118168
   3.72157576  3.59155433  7.53824552
   6.20371007  2.14447940  7.47630003
   6.20724356  3.56761241  7.49982262
   8.68780104  2.11158030  7.46280215
   8.69274532  3.53052356  7.47043619
  11.16057575  2.10405319  7.46474541
  11.16040021  3.52513843  7.46700843
  12.39298273  4.24002833  7.47576708
  -2.49195986  5.66417272  7.48270852
  -0.01673121  4.24835367  7.50018218
  -0.04352248  5.66417505  7.52478359
   2.47399392  4.31025334  7.55085470
   2.42231217  5.72099937  7.64380057
   4.96927299  4.30993342  7.55401582
   5.02123589  5.72055973  7.64975858
   7.45930259  4.24802358  7.49456242
   7.48581505  5.66403852  7.51714419
   9.92756627  4.23984160  7.46872767
   9.93387816  5.66404236  7.47378561
  -3.71834223  6.37982525  7.47525727
  -3.71835051  7.80163060  7.47518475
  -1.27060894  6.37927707  7.50483528
  -1.27058799  7.80209747  7.50472492
   1.17777658  6.37138591  7.57719062
   1.17776199  7.80982318  7.57721079
   6.26516932  6.37138797  7.57758296
   6.26518706  7.80990654  7.57758361
   8.71254167  6.37940228  7.49226792
   8.71253189  7.80206507  7.49226324
  -4.94453714  8.51739379  7.47374059
  -4.95085604  9.94157246  7.46863529
  -2.49192199  8.51725823  7.48251084
  -2.48528121  9.94146208  7.47555906
  -0.04344336  8.51708741  7.52469062
  -0.01659412  9.93288892  7.50008080
   2.42223119  8.46028680  7.64380763
   2.47405524  9.87094181  7.55082413
   5.02127100  8.46081135  7.64974323
   4.96926315  9.87139105  7.55392179
   7.48578134  8.51733237  7.51713176
   7.45916989  9.93329897  7.49453080
  -6.18577746 10.65075751  7.47041111
  -6.19072161 12.06970350  7.46278894
  -3.71797037 10.65623981  7.46686302
  -3.71774635 12.07725221  7.46474766
  -1.25006613 10.65037063  7.47797042
  -1.24461459 12.06922431  7.46771775
   1.23584141 10.61317732  7.49961357
   1.23974067 12.03626939  7.47521740
   3.72156413 10.58969736  7.53814562
   3.72167477 12.00783549  7.49110317
   6.20714301 10.61371955  7.49970466
   6.20350242 12.03678263  7.47613410
   3.72077071  7.09089829  8.31109430
 


--------------------------------------------------------------------------------------------------------


 k-point  1 :   0.0000 0.0000 0.0000  plane waves:   83445
 k-point  2 :   0.5000 0.0000 0.0000  plane waves:   83448
 k-point  3 :  -0.0000 0.5000 0.0000  plane waves:   83436
 k-point  4 :   0.5000 0.5000 0.0000  plane waves:   83444

 maximum and minimum number of plane-waves per node :      6984     6935

 maximum number of plane-waves:     83448
 maximum index in each direction: 
   IXMAX=   28   IYMAX=   28   IZMAX=   28
   IXMIN=  -28   IYMIN=  -28   IZMIN=  -28


 real space projection operators:
  total allocation   :      18579.30 KBytes
  max/ min on nodes  :       1558.30       1534.84


 parallel 3D FFT for wavefunctions:
    minimum data exchange during FFTs selected (reduces bandwidth)
 parallel 3D FFT for charge:
    minimum data exchange during FFTs selected (reduces bandwidth)


 total amount of memory used by VASP MPI-rank0   135455. kBytes
=======================================================================

   base      :      30000. kBytes
   nonlr-proj:      10466. kBytes
   fftplans  :      14072. kBytes
   grid      :      39398. kBytes
   one-center:        186. kBytes
   wavefun   :      41333. kBytes
 
     INWAV:  cpu time    0.0000: real time    0.0001
 Broyden mixing: mesh for mixing (old mesh)
   NGX = 57   NGY = 57   NGZ = 57
  (NGX  =240   NGY  =240   NGZ  =240)
  gives a total of 185193 points

 initial charge density was supplied:
 charge density of overlapping atoms calculated
 number of electron     293.0000000 magnetization       1.0000000
 keeping initial charge density in first step


--------------------------------------------------------------------------------------------------------


 Maximum index for non-local projection operator          589
 Maximum index for augmentation-charges          402 (set IRDMAX)


--------------------------------------------------------------------------------------------------------


 First call to EWALD:  gamma=   0.125
 Maximum number of real-space cells 3x 3x 3
 Maximum number of reciprocal cells 3x 3x 3

    FEWALD:  cpu time    0.0038: real time    0.0039


--------------------------------------- Iteration      1(   1)  ---------------------------------------


    POTLOK:  cpu time    0.5434: real time    0.6407
    SETDIJ:  cpu time    0.0170: real time    0.0232
     EDDAV:  cpu time   16.7853: real time   16.9597
       DOS:  cpu time    0.0011: real time    0.0013
    --------------------------------------------
      LOOP:  cpu time   17.3468: real time   17.6248

 eigenvalue-minimisations  :  3248
 total energy-change (2. order) : 0.2743958E+04  (-0.1173080E+05)
 number of electron     293.0000000 magnetization       1.0000000
 augmentation part      293.0000000 magnetization       1.0000000

 Free energy of the ion-electron system (eV)
  ---------------------------------------------------
  alpha Z        PSCENC =       156.95040625
  Ewald energy   TEWEN  =     30386.26144921
  -Hartree energ DENC   =    -39552.20778041
  -exchange      EXHF   =         0.00000000
  -V(xc)+E(xc)   XCENC  =       982.54743720
  PAW double counting   =      9000.30529238    -9089.18527416
  entropy T*S    EENTRO =        -0.11201086
  eigenvalues    EBANDS =     -1206.35947245
  atomic energy  EATOM  =     12065.75791449
  Solvation  Ediel_sol  =         0.00000000
  ---------------------------------------------------
  free energy    TOTEN  =      2743.95796164 eV

  energy without entropy =     2744.06997250  energy(sigma->0) =     2744.01396707


--------------------------------------------------------------------------------------------------------




--------------------------------------- Iteration      1(   2)  ---------------------------------------


     EDDAV:  cpu time   21.9196: real time   22.2502
       DOS:  cpu time    0.0010: real time    0.0010
    --------------------------------------------
      LOOP:  cpu time   21.9205: real time   22.2512

 eigenvalue-minimisations  :  4320
 total energy-change (2. order) :-0.2915837E+04  (-0.2787012E+04)
 number of electron     293.0000000 magnetization       1.0000000
 augmentation part      293.0000000 magnetization       1.0000000

 Free energy of the ion-electron system (eV)
  ---------------------------------------------------
  alpha Z        PSCENC =       156.95040625
  Ewald energy   TEWEN  =     30386.26144921
  -Hartree energ DENC   =    -39552.20778041
  -exchange      EXHF   =         0.00000000
  -V(xc)+E(xc)   XCENC  =       982.54743720
  PAW double counting   =      9000.30529238    -9089.18527416
  entropy T*S    EENTRO =        -0.03426883
  eigenvalues    EBANDS =     -4122.27446409
  atomic energy  EATOM  =     12065.75791449
  Solvation  Ediel_sol  =         0.00000000
  ---------------------------------------------------
  free energy    TOTEN  =      -171.87928797 eV

  energy without entropy =     -171.84501914  energy(sigma->0) =     -171.86215355


--------------------------------------------------------------------------------------------------------




--------------------------------------- Iteration      1(   3)  ---------------------------------------


     EDDAV:  cpu time   18.3960: real time   18.5873
       DOS:  cpu time    0.0011: real time    0.0011
    --------------------------------------------
      LOOP:  cpu time   18.3971: real time   18.5885

 eigenvalue-minimisations  :  3536
 total energy-change (2. order) :-0.5123091E+03  (-0.5092907E+03)
 number of electron     293.0000000 magnetization       1.0000000
 augmentation part      293.0000000 magnetization       1.0000000

 Free energy of the ion-electron system (eV)
  ---------------------------------------------------
  alpha Z        PSCENC =       156.95040625
  Ewald energy   TEWEN  =     30386.26144921
  -Hartree energ DENC   =    -39552.20778041
  -exchange      EXHF   =         0.00000000
  -V(xc)+E(xc)   XCENC  =       982.54743720
  PAW double counting   =      9000.30529238    -9089.18527416
  entropy T*S    EENTRO =        -0.03066780
  eigenvalues    EBANDS =     -4634.58713130
  atomic energy  EATOM  =     12065.75791449
  Solvation  Ediel_sol  =         0.00000000
  ---------------------------------------------------
  free energy    TOTEN  =      -684.18835414 eV

  energy without entropy =     -684.15768634  energy(sigma->0) =     -684.17302024


--------------------------------------------------------------------------------------------------------




--------------------------------------- Iteration      1(   4)  ---------------------------------------


     EDDAV:  cpu time   18.5922: real time   18.7641
       DOS:  cpu time    0.0009: real time    0.0009
    --------------------------------------------
      LOOP:  cpu time   18.5931: real time   18.7650

 eigenvalue-minimisations  :  3536
 total energy-change (2. order) :-0.1952120E+02  (-0.1937369E+02)
 number of electron     293.0000000 magnetization       1.0000000
 augmentation part      293.0000000 magnetization       1.0000000

 Free energy of the ion-electron system (eV)
  ---------------------------------------------------
  alpha Z        PSCENC =       156.95040625
  Ewald energy   TEWEN  =     30386.26144921
  -Hartree energ DENC   =    -39552.20778041
  -exchange      EXHF   =         0.00000000
  -V(xc)+E(xc)   XCENC  =       982.54743720
  PAW double counting   =      9000.30529238    -9089.18527416
  entropy T*S    EENTRO =        -0.02932407
  eigenvalues    EBANDS =     -4654.10968002
  atomic energy  EATOM  =     12065.75791449
  Solvation  Ediel_sol  =         0.00000000
  ---------------------------------------------------
  free energy    TOTEN  =      -703.70955913 eV

  energy without entropy =     -703.68023506  energy(sigma->0) =     -703.69489710


--------------------------------------------------------------------------------------------------------




--------------------------------------- Iteration      1(   5)  ---------------------------------------


     EDDAV:  cpu time   20.6720: real time   20.8945
       DOS:  cpu time    0.0011: real time    0.0011
    CHARGE:  cpu time    0.9756: real time    0.9913
    MIXING:  cpu time    0.0115: real time    0.0149
    --------------------------------------------
      LOOP:  cpu time   21.6601: real time   21.9018

 eigenvalue-minimisations  :  4048
 total energy-change (2. order) :-0.6283260E+00  (-0.6263020E+00)
 number of electron     292.9999999 magnetization       0.7737223
 augmentation part       11.6686573 magnetization       0.7634285

 Broyden mixing:
  rms(total) = 0.46410E+01    rms(broyden)= 0.46406E+01
  rms(prec ) = 0.54084E+01
  weight for this iteration     100.00

 Free energy of the ion-electron system (eV)
  ---------------------------------------------------
  alpha Z        PSCENC =       156.95040625
  Ewald energy   TEWEN  =     30386.26144921
  -Hartree energ DENC   =    -39552.20778041
  -exchange      EXHF   =         0.00000000
  -V(xc)+E(xc)   XCENC  =       982.54743720
  PAW double counting   =      9000.30529238    -9089.18527416
  entropy T*S    EENTRO =        -0.02943998
  eigenvalues    EBANDS =     -4654.73789014
  atomic energy  EATOM  =     12065.75791449
  Solvation  Ediel_sol  =         0.00000000
  ---------------------------------------------------
  free energy    TOTEN  =      -704.33788516 eV

  energy without entropy =     -704.30844518  energy(sigma->0) =     -704.32316517


--------------------------------------------------------------------------------------------------------




--------------------------------------- Iteration      1(   6)  ---------------------------------------


    POTLOK:  cpu time    0.5471: real time    0.5637
    SETDIJ:  cpu time    0.0154: real time    0.0173
    EDDIAG:  cpu time    3.3329: real time    3.3673
  RMM-DIIS:  cpu time   18.0694: real time   18.2138
    ORTHCH:  cpu time    0.3396: real time    0.3408
       DOS:  cpu time    0.0010: real time    0.0009
    CHARGE:  cpu time    1.0261: real time    1.0411
    MIXING:  cpu time    0.0093: real time    0.0126
    --------------------------------------------
      LOOP:  cpu time   23.3408: real time   23.5575

 eigenvalue-minimisations  :  4155
 total energy-change (2. order) :-0.2776567E+02  (-0.5223006E+02)
 number of electron     293.0000008 magnetization       0.7214849
 augmentation part       17.3149812 magnetization       0.8798086

 Broyden mixing:
  rms(total) = 0.83197E+01    rms(broyden)= 0.83196E+01
  rms(prec ) = 0.91990E+01
  weight for this iteration     100.00

 eigenvalues of (default mixing * dielectric matrix)
  average eigenvalue GAMMA=   0.2181
  0.2181

 Free energy of the ion-electron system (eV)
  ---------------------------------------------------
  alpha Z        PSCENC =       156.95040625
  Ewald energy   TEWEN  =     30386.26144921
  -Hartree energ DENC   =    -39844.47818827
  -exchange      EXHF   =         0.00000000
  -V(xc)+E(xc)   XCENC  =       996.34346010
  PAW double counting   =     15150.74501664   -15239.46911737
  entropy T*S    EENTRO =        -0.06345602
  eigenvalues    EBANDS =     -4404.15104354
  atomic energy  EATOM  =     12065.75791449
  Solvation  Ediel_sol  =         0.00000000
  ---------------------------------------------------
  free energy    TOTEN  =      -732.10355849 eV

  energy without entropy =     -732.04010247  energy(sigma->0) =     -732.07183048


--------------------------------------------------------------------------------------------------------




--------------------------------------- Iteration      1(   7)  ---------------------------------------


    POTLOK:  cpu time    0.5262: real time    0.5374
    SETDIJ:  cpu time    0.0148: real time    0.0158
    EDDIAG:  cpu time    3.1789: real time    3.2051
  RMM-DIIS:  cpu time   13.3819: real time   13.4868
    ORTHCH:  cpu time    0.4850: real time    0.4871
       DOS:  cpu time    0.0010: real time    0.0010
    CHARGE:  cpu time    0.9789: real time    0.9893
    MIXING:  cpu time    0.0098: real time    0.0106
    --------------------------------------------
      LOOP:  cpu time   18.5765: real time   18.7331

 eigenvalue-minimisations  :  3033
 total energy-change (2. order) : 0.6945712E+02  (-0.5548263E+01)
 number of electron     293.0000006 magnetization       0.6143923
 augmentation part       15.1894883 magnetization       0.6259455

 Broyden mixing:
  rms(total) = 0.31371E+01    rms(broyden)= 0.31371E+01
  rms(prec ) = 0.37620E+01
  weight for this iteration     100.00

 eigenvalues of (default mixing * dielectric matrix)
  average eigenvalue GAMMA=   0.4712
  0.5229  0.4195

 Free energy of the ion-electron system (eV)
  ---------------------------------------------------
  alpha Z        PSCENC =       156.95040625
  Ewald energy   TEWEN  =     30386.26144921
  -Hartree energ DENC   =    -39967.67013546
  -exchange      EXHF   =         0.00000000
  -V(xc)+E(xc)   XCENC  =      1000.92547998
  PAW double counting   =     16751.13370219   -16846.70466676
  entropy T*S    EENTRO =        -0.00102707
  eigenvalues    EBANDS =     -4209.29956584
  atomic energy  EATOM  =     12065.75791449
  Solvation  Ediel_sol  =         0.00000000
  ---------------------------------------------------
  free energy    TOTEN  =      -662.64644300 eV

  energy without entropy =     -662.64541593  energy(sigma->0) =     -662.64592946


--------------------------------------------------------------------------------------------------------




--------------------------------------- Iteration      1(   8)  ---------------------------------------


    POTLOK:  cpu time    0.5293: real time    0.5341
    SETDIJ:  cpu time    0.0151: real time    0.0155
    EDDIAG:  cpu time    3.2662: real time    3.2898
  RMM-DIIS:  cpu time   13.8064: real time   13.9249
    ORTHCH:  cpu time    0.4363: real time    0.4372
       DOS:  cpu time    0.0010: real time    0.0009
    CHARGE:  cpu time    1.0255: real time    1.0375
    MIXING:  cpu time    0.0117: real time    0.0124
    --------------------------------------------
      LOOP:  cpu time   19.0915: real time   19.2524

 eigenvalue-minimisations  :  3118
 total energy-change (2. order) : 0.1974706E+00  (-0.2138379E+01)
 number of electron     293.0000000 magnetization       0.3512634
 augmentation part       11.2298664 magnetization       0.2784958

 Broyden mixing:
  rms(total) = 0.28147E+01    rms(broyden)= 0.28145E+01
  rms(prec ) = 0.34484E+01
  weight for this iteration     100.00

 eigenvalues of (default mixing * dielectric matrix)
  average eigenvalue GAMMA=   0.8614
  1.9012  0.3415  0.3415

 Free energy of the ion-electron system (eV)
  ---------------------------------------------------
  alpha Z        PSCENC =       156.95040625
  Ewald energy   TEWEN  =     30386.26144921
  -Hartree energ DENC   =    -40149.83461656
  -exchange      EXHF   =         0.00000000
  -V(xc)+E(xc)   XCENC  =      1007.70284671
  PAW double counting   =     19702.54926606   -19802.11045681
  entropy T*S    EENTRO =        -0.02960964
  eigenvalues    EBANDS =     -4029.69617208
  atomic energy  EATOM  =     12065.75791449
  Solvation  Ediel_sol  =         0.00000000
  ---------------------------------------------------
  free energy    TOTEN  =      -662.44897237 eV

  energy without entropy =     -662.41936273  energy(sigma->0) =     -662.43416755


--------------------------------------------------------------------------------------------------------




--------------------------------------- Iteration      1(   9)  ---------------------------------------


    POTLOK:  cpu time    0.5248: real time    0.5303
    SETDIJ:  cpu time    0.0153: real time    0.0156
    EDDIAG:  cpu time    3.2357: real time    3.2611
  RMM-DIIS:  cpu time   12.9817: real time   13.0783
    ORTHCH:  cpu time    0.3508: real time    0.3523
       DOS:  cpu time    0.0010: real time    0.0010
    CHARGE:  cpu time    1.0258: real time    1.0358
    MIXING:  cpu time    0.0096: real time    0.0105
    --------------------------------------------
      LOOP:  cpu time   18.1447: real time   18.2850

 eigenvalue-minimisations  :  2975
 total energy-change (2. order) : 0.1498197E+02  (-0.2074825E+01)
 number of electron     293.0000003 magnetization       0.3135153
 augmentation part       12.3391261 magnetization       0.2150791

 Broyden mixing:
  rms(total) = 0.10096E+01    rms(broyden)= 0.10094E+01
  rms(prec ) = 0.11090E+01
  weight for this iteration     100.00

 eigenvalues of (default mixing * dielectric matrix)
  average eigenvalue GAMMA=   0.9327
  2.1914  0.8399  0.3497  0.3497

 Free energy of the ion-electron system (eV)
  ---------------------------------------------------
  alpha Z        PSCENC =       156.95040625
  Ewald energy   TEWEN  =     30386.26144921
  -Hartree energ DENC   =    -40459.88505292
  -exchange      EXHF   =         0.00000000
  -V(xc)+E(xc)   XCENC  =      1020.74710333
  PAW double counting   =     28041.62499961   -28143.97911449
  entropy T*S    EENTRO =        -0.05289060
  eigenvalues    EBANDS =     -3714.89181343
  atomic energy  EATOM  =     12065.75791449
  Solvation  Ediel_sol  =         0.00000000
  ---------------------------------------------------
  free energy    TOTEN  =      -647.46699855 eV

  energy without entropy =     -647.41410795  energy(sigma->0) =     -647.44055325


--------------------------------------------------------------------------------------------------------




--------------------------------------- Iteration      1(  10)  ---------------------------------------


    POTLOK:  cpu time    0.5283: real time    0.5327
    SETDIJ:  cpu time    0.0148: real time    0.0153
    EDDIAG:  cpu time    3.2196: real time    3.2438
  RMM-DIIS:  cpu time   13.1754: real time   13.2861
    ORTHCH:  cpu time    0.4019: real time    0.4030
       DOS:  cpu time    0.0009: real time    0.0009
    CHARGE:  cpu time    1.0134: real time    1.0245
    MIXING:  cpu time    0.0108: real time    0.0109
    --------------------------------------------
      LOOP:  cpu time   18.3650: real time   18.5171

 eigenvalue-minimisations  :  3026
 total energy-change (2. order) :-0.6733651E+00  (-0.2896352E+00)
 number of electron     293.0000006 magnetization       0.2637658
 augmentation part       13.7193414 magnetization       0.3104847

 Broyden mixing:
  rms(total) = 0.14015E+01    rms(broyden)= 0.14012E+01
  rms(prec ) = 0.17287E+01
  weight for this iteration     100.00

 eigenvalues of (default mixing * dielectric matrix)
  average eigenvalue GAMMA=   0.9227
  2.3440  1.0875  0.3470  0.3470  0.4882

 Free energy of the ion-electron system (eV)
  ---------------------------------------------------
  alpha Z        PSCENC =       156.95040625
  Ewald energy   TEWEN  =     30386.26144921
  -Hartree energ DENC   =    -40502.57037538
  -exchange      EXHF   =         0.00000000
  -V(xc)+E(xc)   XCENC  =      1021.46538685
  PAW double counting   =     29484.03400391   -29584.94484231
  entropy T*S    EENTRO =        -0.00901644
  eigenvalues    EBANDS =     -3675.08529019
  atomic energy  EATOM  =     12065.75791449
  Solvation  Ediel_sol  =         0.00000000
  ---------------------------------------------------
  free energy    TOTEN  =      -648.14036362 eV

  energy without entropy =     -648.13134718  energy(sigma->0) =     -648.13585540


--------------------------------------------------------------------------------------------------------




--------------------------------------- Iteration      1(  11)  ---------------------------------------


    POTLOK:  cpu time    0.5247: real time    0.5292
    SETDIJ:  cpu time    0.0152: real time    0.0153
    EDDIAG:  cpu time    3.2569: real time    3.2901
  RMM-DIIS:  cpu time   13.6662: real time   13.7669
    ORTHCH:  cpu time    0.2780: real time    0.2858
       DOS:  cpu time    0.0010: real time    0.0010
    CHARGE:  cpu time    0.9817: real time    0.9922
    MIXING:  cpu time    0.0121: real time    0.0125
    --------------------------------------------
      LOOP:  cpu time   18.7357: real time   18.8931

 eigenvalue-minimisations  :  3113
 total energy-change (2. order) : 0.1083619E+01  (-0.3446383E-01)
 number of electron     293.0000004 magnetization       0.3236608
 augmentation part       12.7799068 magnetization      -0.0376460

 Broyden mixing:
  rms(total) = 0.76201E+00    rms(broyden)= 0.76170E+00
  rms(prec ) = 0.77690E+00
  weight for this iteration     100.00

 eigenvalues of (default mixing * dielectric matrix)
  average eigenvalue GAMMA=   0.9105
  2.2402  1.7641  0.3475  0.3475  0.4928  0.2707

 Free energy of the ion-electron system (eV)
  ---------------------------------------------------
  alpha Z        PSCENC =       156.95040625
  Ewald energy   TEWEN  =     30386.26144921
  -Hartree energ DENC   =    -40533.77753215
  -exchange      EXHF   =         0.00000000
  -V(xc)+E(xc)   XCENC  =      1021.80135000
  PAW double counting   =     30070.59197994   -30170.84813480
  entropy T*S    EENTRO =        -0.04843855
  eigenvalues    EBANDS =     -3643.74573886
  atomic energy  EATOM  =     12065.75791449
  Solvation  Ediel_sol  =         0.00000000
  ---------------------------------------------------
  free energy    TOTEN  =      -647.05674447 eV

  energy without entropy =     -647.00830592  energy(sigma->0) =     -647.03252519


--------------------------------------------------------------------------------------------------------




--------------------------------------- Iteration      1(  12)  ---------------------------------------


    POTLOK:  cpu time    0.5192: real time    0.5238
    SETDIJ:  cpu time    0.0153: real time    0.0155
    EDDIAG:  cpu time    3.2354: real time    3.2619
  RMM-DIIS:  cpu time   13.1397: real time   13.2336
    ORTHCH:  cpu time    0.2871: real time    0.2878
       DOS:  cpu time    0.0010: real time    0.0010
    CHARGE:  cpu time    0.9764: real time    0.9863
    MIXING:  cpu time    0.0126: real time    0.0126
    --------------------------------------------
      LOOP:  cpu time   18.1866: real time   18.3224

 eigenvalue-minimisations  :  2981
 total energy-change (2. order) :-0.2131654E+00  (-0.1382246E-01)
 number of electron     293.0000004 magnetization       0.4814021
 augmentation part       12.8632521 magnetization       0.0300199

 Broyden mixing:
  rms(total) = 0.61741E+00    rms(broyden)= 0.61735E+00
  rms(prec ) = 0.63665E+00
  weight for this iteration     100.00

 eigenvalues of (default mixing * dielectric matrix)
  average eigenvalue GAMMA=   0.8882
  2.1100  2.0037  0.4493  0.3473  0.3473  0.4800  0.4800

 Free energy of the ion-electron system (eV)
  ---------------------------------------------------
  alpha Z        PSCENC =       156.95040625
  Ewald energy   TEWEN  =     30386.26144921
  -Hartree energ DENC   =    -40550.46599529
  -exchange      EXHF   =         0.00000000
  -V(xc)+E(xc)   XCENC  =      1021.60050205
  PAW double counting   =     30329.55403564   -30428.74585164
  entropy T*S    EENTRO =        -0.02352408
  eigenvalues    EBANDS =     -3628.15884653
  atomic energy  EATOM  =     12065.75791449
  Solvation  Ediel_sol  =         0.00000000
  ---------------------------------------------------
  free energy    TOTEN  =      -647.26990991 eV

  energy without entropy =     -647.24638583  energy(sigma->0) =     -647.25814787


--------------------------------------------------------------------------------------------------------




--------------------------------------- Iteration      1(  13)  ---------------------------------------


    POTLOK:  cpu time    0.5448: real time    0.5500
    SETDIJ:  cpu time    0.0151: real time    0.0152
    EDDIAG:  cpu time    3.2697: real time    3.2993
  RMM-DIIS:  cpu time   13.0493: real time   13.1399
    ORTHCH:  cpu time    0.2938: real time    0.2952
       DOS:  cpu time    0.0009: real time    0.0009
    CHARGE:  cpu time    0.9797: real time    0.9936
    MIXING:  cpu time    0.0113: real time    0.0117
    --------------------------------------------
      LOOP:  cpu time   18.1645: real time   18.3057

 eigenvalue-minimisations  :  2971
 total energy-change (2. order) :-0.1163825E-01  (-0.2361326E-01)
 number of electron     293.0000004 magnetization       0.7868218
 augmentation part       12.8910036 magnetization       0.4208996

 Broyden mixing:
  rms(total) = 0.50186E+00    rms(broyden)= 0.50184E+00
  rms(prec ) = 0.52664E+00
  weight for this iteration     100.00

 eigenvalues of (default mixing * dielectric matrix)
  average eigenvalue GAMMA=   1.0179
  2.0992  2.0992  1.1252  1.1252  0.3478  0.3478  0.5894  0.4093

 Free energy of the ion-electron system (eV)
  ---------------------------------------------------
  alpha Z        PSCENC =       156.95040625
  Ewald energy   TEWEN  =     30386.26144921
  -Hartree energ DENC   =    -40567.56637239
  -exchange      EXHF   =         0.00000000
  -V(xc)+E(xc)   XCENC  =      1021.91682099
  PAW double counting   =     30397.44835328   -30496.39891458
  entropy T*S    EENTRO =        -0.01968373
  eigenvalues    EBANDS =     -3611.63152168
  atomic energy  EATOM  =     12065.75791449
  Solvation  Ediel_sol  =         0.00000000
  ---------------------------------------------------
  free energy    TOTEN  =      -647.28154816 eV

  energy without entropy =     -647.26186443  energy(sigma->0) =     -647.27170630


--------------------------------------------------------------------------------------------------------




--------------------------------------- Iteration      1(  14)  ---------------------------------------


    POTLOK:  cpu time    0.5055: real time    0.5105
    SETDIJ:  cpu time    0.0153: real time    0.0154
    EDDIAG:  cpu time    3.1966: real time    3.2216
  RMM-DIIS:  cpu time   13.2069: real time   13.3018
    ORTHCH:  cpu time    0.2185: real time    0.2273
       DOS:  cpu time    0.0010: real time    0.0010
    CHARGE:  cpu time    1.0203: real time    1.0308
    MIXING:  cpu time    0.0128: real time    0.0132
    --------------------------------------------
      LOOP:  cpu time   18.1769: real time   18.3216

 eigenvalue-minimisations  :  2982
 total energy-change (2. order) : 0.1360545E+00  (-0.2150157E-01)
 number of electron     293.0000004 magnetization       1.0316481
 augmentation part       12.8915623 magnetization       0.8263561

 Broyden mixing:
  rms(total) = 0.32331E+00    rms(broyden)= 0.32328E+00
  rms(prec ) = 0.35606E+00
  weight for this iteration     100.00

 eigenvalues of (default mixing * dielectric matrix)
  average eigenvalue GAMMA=   1.0757
  2.0946  2.0946  1.5476  1.5476  0.3479  0.3479  0.6444  0.6444  0.4123

 Free energy of the ion-electron system (eV)
  ---------------------------------------------------
  alpha Z        PSCENC =       156.95040625
  Ewald energy   TEWEN  =     30386.26144921
  -Hartree energ DENC   =    -40598.74885554
  -exchange      EXHF   =         0.00000000
  -V(xc)+E(xc)   XCENC  =      1022.61869190
  PAW double counting   =     30414.71085664   -30513.45154124
  entropy T*S    EENTRO =        -0.01946244
  eigenvalues    EBANDS =     -3581.22495291
  atomic energy  EATOM  =     12065.75791449
  Solvation  Ediel_sol  =         0.00000000
  ---------------------------------------------------
  free energy    TOTEN  =      -647.14549364 eV

  energy without entropy =     -647.12603120  energy(sigma->0) =     -647.13576242


--------------------------------------------------------------------------------------------------------




--------------------------------------- Iteration      1(  15)  ---------------------------------------


    POTLOK:  cpu time    0.5247: real time    0.5321
    SETDIJ:  cpu time    0.0151: real time    0.0151
    EDDIAG:  cpu time    3.1993: real time    3.2234
  RMM-DIIS:  cpu time   13.4085: real time   13.5300
    ORTHCH:  cpu time    0.2389: real time    0.2400
       DOS:  cpu time    0.0009: real time    0.0009
    CHARGE:  cpu time    1.0151: real time    1.0236
    MIXING:  cpu time    0.0135: real time    0.0139
    --------------------------------------------
      LOOP:  cpu time   18.4160: real time   18.5790

 eigenvalue-minimisations  :  3045
 total energy-change (2. order) :-0.1113139E-01  (-0.1250909E-01)
 number of electron     293.0000004 magnetization       1.1866288
 augmentation part       12.8062225 magnetization       1.0477382

 Broyden mixing:
  rms(total) = 0.13665E+00    rms(broyden)= 0.13662E+00
  rms(prec ) = 0.15666E+00
  weight for this iteration     100.00

 eigenvalues of (default mixing * dielectric matrix)
  average eigenvalue GAMMA=   1.0712
  2.0676  2.0676  1.6390  1.6390  0.3479  0.3479  0.7520  0.7520  0.6902  0.4088

 Free energy of the ion-electron system (eV)
  ---------------------------------------------------
  alpha Z        PSCENC =       156.95040625
  Ewald energy   TEWEN  =     30386.26144921
  -Hartree energ DENC   =    -40625.21159572
  -exchange      EXHF   =         0.00000000
  -V(xc)+E(xc)   XCENC  =      1023.10661580
  PAW double counting   =     30391.65036324   -30490.35957379
  entropy T*S    EENTRO =        -0.02475158
  eigenvalues    EBANDS =     -3555.28745292
  atomic energy  EATOM  =     12065.75791449
  Solvation  Ediel_sol  =         0.00000000
  ---------------------------------------------------
  free energy    TOTEN  =      -647.15662503 eV

  energy without entropy =     -647.13187344  energy(sigma->0) =     -647.14424923


--------------------------------------------------------------------------------------------------------




--------------------------------------- Iteration      1(  16)  ---------------------------------------


    POTLOK:  cpu time    0.5449: real time    0.5492
    SETDIJ:  cpu time    0.0149: real time    0.0151
    EDDIAG:  cpu time    3.1911: real time    3.2184
  RMM-DIIS:  cpu time   13.2700: real time   13.3627
    ORTHCH:  cpu time    0.3785: real time    0.3822
       DOS:  cpu time    0.0010: real time    0.0010
    CHARGE:  cpu time    1.0019: real time    1.0136
    MIXING:  cpu time    0.0129: real time    0.0134
    --------------------------------------------
      LOOP:  cpu time   18.4152: real time   18.5557

 eigenvalue-minimisations  :  3033
 total energy-change (2. order) :-0.1183829E+00  (-0.6437244E-02)
 number of electron     293.0000004 magnetization       1.2867010
 augmentation part       12.7830702 magnetization       1.1481606

 Broyden mixing:
  rms(total) = 0.80982E-01    rms(broyden)= 0.80972E-01
  rms(prec ) = 0.97006E-01
  weight for this iteration     100.00

 eigenvalues of (default mixing * dielectric matrix)
  average eigenvalue GAMMA=   1.1183
  2.4324  2.4324  1.5541  1.3041  1.3041  0.3479  0.3479  0.4095  0.7110  0.7110
  0.7474

 Free energy of the ion-electron system (eV)
  ---------------------------------------------------
  alpha Z        PSCENC =       156.95040625
  Ewald energy   TEWEN  =     30386.26144921
  -Hartree energ DENC   =    -40642.80345758
  -exchange      EXHF   =         0.00000000
  -V(xc)+E(xc)   XCENC  =      1023.22310895
  PAW double counting   =     30386.39079301   -30485.05808113
  entropy T*S    EENTRO =        -0.02696323
  eigenvalues    EBANDS =     -3537.97017792
  atomic energy  EATOM  =     12065.75791449
  Solvation  Ediel_sol  =         0.00000000
  ---------------------------------------------------
  free energy    TOTEN  =      -647.27500795 eV

  energy without entropy =     -647.24804472  energy(sigma->0) =     -647.26152633


--------------------------------------------------------------------------------------------------------




--------------------------------------- Iteration      1(  17)  ---------------------------------------


    POTLOK:  cpu time    0.5213: real time    0.5264
    SETDIJ:  cpu time    0.0150: real time    0.0150
    EDDIAG:  cpu time    3.2406: real time    3.2635
  RMM-DIIS:  cpu time   12.9780: real time   13.0727
    ORTHCH:  cpu time    0.2076: real time    0.2083
       DOS:  cpu time    0.0010: real time    0.0010
    CHARGE:  cpu time    0.9906: real time    0.9988
    MIXING:  cpu time    0.0136: real time    0.0137
    --------------------------------------------
      LOOP:  cpu time   17.9677: real time   18.0993

 eigenvalue-minimisations  :  2958
 total energy-change (2. order) :-0.1316757E+00  (-0.5044074E-02)
 number of electron     293.0000004 magnetization       1.3907212
 augmentation part       12.7806555 magnetization       1.2438416

 Broyden mixing:
  rms(total) = 0.62670E-01    rms(broyden)= 0.62670E-01
  rms(prec ) = 0.77257E-01
  weight for this iteration     100.00

 eigenvalues of (default mixing * dielectric matrix)
  average eigenvalue GAMMA=   1.1547
  2.5559  2.5559  1.8127  1.8127  0.3479  0.3479  0.9080  0.9080  0.7867  0.7867
  0.4099  0.6239

 Free energy of the ion-electron system (eV)
  ---------------------------------------------------
  alpha Z        PSCENC =       156.95040625
  Ewald energy   TEWEN  =     30386.26144921
  -Hartree energ DENC   =    -40655.66692040
  -exchange      EXHF   =         0.00000000
  -V(xc)+E(xc)   XCENC  =      1023.18303388
  PAW double counting   =     30384.60758940   -30483.23172937
  entropy T*S    EENTRO =        -0.02713761
  eigenvalues    EBANDS =     -3525.24128953
  atomic energy  EATOM  =     12065.75791449
  Solvation  Ediel_sol  =         0.00000000
  ---------------------------------------------------
  free energy    TOTEN  =      -647.40668368 eV

  energy without entropy =     -647.37954607  energy(sigma->0) =     -647.39311488


--------------------------------------------------------------------------------------------------------




--------------------------------------- Iteration      1(  18)  ---------------------------------------


    POTLOK:  cpu time    0.5279: real time    0.5324
    SETDIJ:  cpu time    0.0153: real time    0.0154
    EDDIAG:  cpu time    3.2505: real time    3.2753
  RMM-DIIS:  cpu time   12.9121: real time   13.0061
    ORTHCH:  cpu time    0.2436: real time    0.2443
       DOS:  cpu time    0.0010: real time    0.0010
    CHARGE:  cpu time    0.9900: real time    1.0007
    MIXING:  cpu time    0.0130: real time    0.0130
    --------------------------------------------
      LOOP:  cpu time   17.9533: real time   18.0881

 eigenvalue-minimisations  :  2954
 total energy-change (2. order) :-0.8601549E-01  (-0.6161882E-02)
 number of electron     293.0000004 magnetization       1.4405553
 augmentation part       12.7560831 magnetization       1.2836582

 Broyden mixing:
  rms(total) = 0.31198E-01    rms(broyden)= 0.31197E-01
  rms(prec ) = 0.40553E-01
  weight for this iteration     100.00

 eigenvalues of (default mixing * dielectric matrix)
  average eigenvalue GAMMA=   1.1902
  2.7512  2.7512  1.7563  1.6368  1.6368  0.3479  0.3479  0.8721  0.8721  0.4098
  0.7178  0.7178  0.6546

 Free energy of the ion-electron system (eV)
  ---------------------------------------------------
  alpha Z        PSCENC =       156.95040625
  Ewald energy   TEWEN  =     30386.26144921
  -Hartree energ DENC   =    -40671.25132067
  -exchange      EXHF   =         0.00000000
  -V(xc)+E(xc)   XCENC  =      1023.20029808
  PAW double counting   =     30367.26692711   -30465.86603074
  entropy T*S    EENTRO =        -0.02802586
  eigenvalues    EBANDS =     -3509.78431704
  atomic energy  EATOM  =     12065.75791449
  Solvation  Ediel_sol  =         0.00000000
  ---------------------------------------------------
  free energy    TOTEN  =      -647.49269917 eV

  energy without entropy =     -647.46467331  energy(sigma->0) =     -647.47868624


--------------------------------------------------------------------------------------------------------




--------------------------------------- Iteration      1(  19)  ---------------------------------------


    POTLOK:  cpu time    0.5225: real time    0.5326
    SETDIJ:  cpu time    0.0148: real time    0.0149
    EDDIAG:  cpu time    3.2349: real time    3.2569
  RMM-DIIS:  cpu time   13.0170: real time   13.1169
    ORTHCH:  cpu time    0.2937: real time    0.2959
       DOS:  cpu time    0.0009: real time    0.0009
    CHARGE:  cpu time    0.9844: real time    0.9929
    MIXING:  cpu time    0.0146: real time    0.0148
    --------------------------------------------
      LOOP:  cpu time   18.0829: real time   18.2258

 eigenvalue-minimisations  :  2985
 total energy-change (2. order) :-0.1079510E-01  (-0.1497261E-02)
 number of electron     293.0000004 magnetization       1.4714986
 augmentation part       12.7559447 magnetization       1.3097947

 Broyden mixing:
  rms(total) = 0.20872E-01    rms(broyden)= 0.20871E-01
  rms(prec ) = 0.29172E-01
  weight for this iteration     100.00

 eigenvalues of (default mixing * dielectric matrix)
  average eigenvalue GAMMA=   1.1927
  2.9006  2.9006  1.9331  1.7535  1.7535  0.8861  0.8861  0.3479  0.3479  0.7372
  0.7372  0.6573  0.4098  0.4466

 Free energy of the ion-electron system (eV)
  ---------------------------------------------------
  alpha Z        PSCENC =       156.95040625
  Ewald energy   TEWEN  =     30386.26144921
  -Hartree energ DENC   =    -40682.68147234
  -exchange      EXHF   =         0.00000000
  -V(xc)+E(xc)   XCENC  =      1023.25891854
  PAW double counting   =     30356.61845808   -30455.20658937
  entropy T*S    EENTRO =        -0.02791541
  eigenvalues    EBANDS =     -3498.43466372
  atomic energy  EATOM  =     12065.75791449
  Solvation  Ediel_sol  =         0.00000000
  ---------------------------------------------------
  free energy    TOTEN  =      -647.50349428 eV

  energy without entropy =     -647.47557887  energy(sigma->0) =     -647.48953657


--------------------------------------------------------------------------------------------------------




--------------------------------------- Iteration      1(  20)  ---------------------------------------


    POTLOK:  cpu time    0.5245: real time    0.5284
    SETDIJ:  cpu time    0.0151: real time    0.0152
    EDDIAG:  cpu time    3.2371: real time    3.2679
  RMM-DIIS:  cpu time   13.0674: real time   13.1617
    ORTHCH:  cpu time    0.2314: real time    0.2324
       DOS:  cpu time    0.0009: real time    0.0009
    CHARGE:  cpu time    0.9909: real time    0.9993
    MIXING:  cpu time    0.0153: real time    0.0155
    --------------------------------------------
      LOOP:  cpu time   18.0827: real time   18.2212

 eigenvalue-minimisations  :  2994
 total energy-change (2. order) : 0.5192981E-03  (-0.3709545E-03)
 number of electron     293.0000004 magnetization       1.4883402
 augmentation part       12.7541692 magnetization       1.3255635

 Broyden mixing:
  rms(total) = 0.16658E-01    rms(broyden)= 0.16658E-01
  rms(prec ) = 0.22801E-01
  weight for this iteration     100.00

 eigenvalues of (default mixing * dielectric matrix)
  average eigenvalue GAMMA=   1.2728
  3.8067  2.6208  2.0561  2.0561  1.9061  1.0157  1.0157  0.3479  0.3479  0.7698
  0.7698  0.4098  0.6745  0.6745  0.6212

 Free energy of the ion-electron system (eV)
  ---------------------------------------------------
  alpha Z        PSCENC =       156.95040625
  Ewald energy   TEWEN  =     30386.26144921
  -Hartree energ DENC   =    -40690.77258057
  -exchange      EXHF   =         0.00000000
  -V(xc)+E(xc)   XCENC  =      1023.30107534
  PAW double counting   =     30344.62822797   -30443.19640304
  entropy T*S    EENTRO =        -0.02783559
  eigenvalues    EBANDS =     -3490.40522905
  atomic energy  EATOM  =     12065.75791449
  Solvation  Ediel_sol  =         0.00000000
  ---------------------------------------------------
  free energy    TOTEN  =      -647.50297498 eV

  energy without entropy =     -647.47513939  energy(sigma->0) =     -647.48905719


[...]
  E(xc)   -1111.01744 -1110.71433 -1150.16380     0.00817    -0.00001     0.04040
  Local  -83857.13647-83794.58677 86140.59977   -16.09784    -9.50122   -16.75825
  n-local  -288.94205  -286.77543  -269.32815    -0.07377    -0.14318    -0.60590
  augment    65.84978    64.71821    66.45511    -0.07601    -0.00149    -0.89126
  Kinetic  4383.70798  4371.90270  4984.48098    -0.15045     0.09686    -1.81419
  Fock        0.00000     0.00000     0.00000     0.00000     0.00000     0.00000
  vdW        -1.56267    -1.68110    -0.04396    -0.02172    -0.00746    -0.06415
  -------------------------------------------------------------------------------------
  Total       0.35452     0.01476    -0.78105    -0.02934    -0.00466    -0.00182
  in kB       0.20000     0.00833    -0.44063    -0.01655    -0.00263    -0.00103
  external pressure =       -0.08 kB  Pullay stress =        0.00 kB


 VOLUME and BASIS-vectors are now :
 -----------------------------------------------------------------------------
  energy-cutoff  :      550.00
  volume of cell :     2839.99
      direct lattice vectors                 reciprocal lattice vectors
    14.858494812  0.007653473  0.000000000     0.067281356  0.039239159  0.000000000
    -7.429247406 12.738546194  0.000000000    -0.000040423  0.078478318  0.000000000
     0.000000000  0.000000000 15.000000000     0.000000000  0.000000000  0.066666667

  length of vectors
    14.858496783 14.746670002 15.000000000     0.077887692  0.078478329  0.066666667


 FORCES acting on ions
    electron-ion (+dipol)            ewald-force                    non-local-force                 convergence-correction
 -----------------------------------------------------------------------------------------------
   0.169E+01 0.345E+00 0.704E+01   -.177E+01 -.438E+00 -.704E+01   0.759E-01 0.730E-01 -.348E-02   -.417E-05 0.104E-02 -.525E-04
   -.215E+01 0.137E+01 0.821E+01   0.219E+01 -.140E+01 -.824E+01   -.462E-01 0.393E-01 0.305E-01   -.257E-03 0.394E-03 -.160E-04
   -.168E+00 0.808E+00 0.761E+01   0.221E+00 -.766E+00 -.764E+01   -.433E-01 -.604E-01 0.310E-01   0.477E-03 0.762E-03 0.206E-03
   -.175E+01 0.275E+01 0.697E+01   0.187E+01 -.275E+01 -.694E+01   -.126E+00 -.161E-01 -.280E-01   0.142E-03 -.377E-03 0.465E-03
   -.126E+01 0.233E+00 0.682E+01   0.124E+01 -.137E+00 -.684E+01   0.182E-01 -.119E+00 0.201E-01   -.131E-03 -.169E-03 -.148E-03
   0.275E+01 0.185E+01 0.717E+01   -.278E+01 -.179E+01 -.720E+01   0.121E-01 -.640E-01 0.204E-01   -.715E-03 -.228E-03 -.804E-04
   -.225E+01 -.150E-01 0.783E+01   0.234E+01 0.343E-02 -.786E+01   -.951E-01 0.183E-01 0.347E-01   -.365E-03 -.889E-03 0.150E-03
   0.179E+01 0.751E+00 0.708E+01   -.182E+01 -.712E+00 -.708E+01   0.150E-01 -.337E-01 -.238E-02   -.145E-03 -.477E-03 0.255E-04
   -.108E+01 -.195E+01 0.695E+01   0.113E+01 0.186E+01 -.692E+01   -.580E-01 0.123E+00 -.274E-01   0.197E-03 0.195E-03 0.364E-03
   -.218E+00 0.470E+00 0.784E+01   0.165E+00 -.585E+00 -.787E+01   0.599E-01 0.136E+00 0.349E-01   0.816E-03 -.907E-04 0.214E-03
   0.327E+01 -.106E+01 0.725E+01   -.337E+01 0.926E+00 -.729E+01   0.965E-01 0.152E+00 0.278E-01   -.219E-03 0.686E-03 -.197E-03
   -.639E+00 0.228E+00 0.650E+01   0.569E+00 -.419E+00 -.652E+01   0.959E-01 0.189E+00 0.180E-01   0.183E-03 0.361E-03 -.292E-03
   0.352E+01 0.560E+01 0.630E+01   -.361E+01 -.584E+01 -.630E+01   0.101E+00 0.220E+00 -.128E-01   -.585E-05 0.369E-03 -.456E-03
   0.227E+01 0.668E+01 0.643E+01   -.270E+01 -.697E+01 -.646E+01   0.431E+00 0.275E+00 0.168E-01   -.498E-03 -.833E-03 -.804E-03
   0.216E+01 0.759E+01 0.103E+02   -.205E+01 -.780E+01 -.103E+02   -.935E-01 0.218E+00 0.411E-01   -.556E-03 -.619E-03 0.578E-03
   -.332E+01 0.153E+02 0.108E+02   0.402E+01 -.156E+02 -.109E+02   -.704E+00 0.375E+00 0.123E+00   -.123E-02 -.176E-02 0.105E-02
   -.167E+01 0.752E+01 0.683E+01   0.172E+01 -.720E+01 -.686E+01   -.613E-01 -.342E+00 0.333E-01   0.235E-03 -.815E-03 0.334E-03
   0.263E+01 0.113E+02 0.513E+01   -.233E+01 -.109E+02 -.483E+01   -.334E+00 -.442E+00 -.293E+00   0.587E-03 -.174E-02 0.200E-03
   -.318E+01 0.659E+01 0.733E+01   0.317E+01 -.654E+01 -.734E+01   0.127E-01 -.593E-01 0.510E-03   -.725E-03 -.163E-03 -.350E-03
   -.185E+00 0.886E+01 0.111E+02   -.202E+00 -.869E+01 -.113E+02   0.371E+00 -.158E+00 0.143E+00   -.615E-04 -.363E-03 -.830E-03
   -.142E+01 0.426E+01 0.814E+01   0.142E+01 -.432E+01 -.815E+01   -.958E-02 0.411E-01 0.220E-01   0.507E-03 0.233E-03 0.184E-03
   -.200E+01 0.374E+01 0.786E+01   0.194E+01 -.381E+01 -.789E+01   0.573E-01 0.817E-01 0.286E-01   0.800E-03 0.426E-03 0.199E-03
   0.787E+00 0.347E+01 0.650E+01   -.841E+00 -.356E+01 -.649E+01   0.566E-01 0.906E-01 -.772E-02   0.588E-03 0.489E-03 -.122E-03
   0.245E+00 0.285E+01 0.626E+01   -.362E+00 -.294E+01 -.629E+01   0.147E+00 0.112E+00 0.224E-01   0.511E-03 0.234E-03 -.386E-03
   0.539E+01 0.622E+01 0.488E+01   -.559E+01 -.638E+01 -.487E+01   0.215E+00 0.194E+00 -.373E-01   -.425E-03 -.326E-03 -.120E-02
   0.674E+01 0.310E+01 0.587E+01   -.715E+01 -.340E+01 -.590E+01   0.416E+00 0.337E+00 0.837E-02   -.778E-03 -.964E-03 -.168E-02
   0.102E+02 0.202E+02 0.908E+01   -.101E+02 -.215E+02 -.899E+01   0.654E-02 0.130E+01 -.726E-01   -.133E-02 -.143E-02 0.536E-04
   0.360E+02 0.222E+02 0.155E+02   -.408E+02 -.250E+02 -.158E+02   0.472E+01 0.278E+01 0.367E+00   -.182E-02 -.160E-02 -.135E-04
   -.688E+01 0.247E+02 0.513E+01   0.749E+01 -.243E+02 -.549E+01   -.610E+00 -.470E+00 0.355E+00   -.645E-04 -.145E-02 0.139E-02
   -.273E+02 0.455E+02 -.457E+01   0.395E+02 -.425E+02 0.709E+01   -.123E+02 -.301E+01 -.253E+01   -.206E-03 -.130E-02 0.173E-02
   -.209E+01 0.228E+02 0.181E+02   0.192E+01 -.221E+02 -.183E+02   0.171E+00 -.643E+00 0.258E+00   0.537E-03 -.764E-03 -.141E-02
   0.297E+01 0.423E+02 0.454E+02   -.915E+01 -.392E+02 -.450E+02   0.618E+01 -.312E+01 -.414E+00   0.280E-02 -.202E-02 -.362E-02
   -.553E+01 0.110E+02 0.705E+01   0.536E+01 -.110E+02 -.706E+01   0.162E+00 0.474E-01 0.221E-02   0.469E-03 0.175E-03 -.257E-03
   -.142E+02 0.711E+01 0.286E+01   0.141E+02 -.706E+01 -.284E+01   0.107E+00 -.267E-01 -.146E-01   0.534E-04 -.237E-03 -.240E-03
   -.771E+00 0.351E+01 0.711E+01   0.663E+00 -.355E+01 -.709E+01   0.102E+00 0.697E-01 -.295E-02   0.904E-03 0.182E-03 0.247E-03
   -.312E+01 0.372E+01 0.731E+01   0.297E+01 -.377E+01 -.736E+01   0.148E+00 0.707E-01 0.623E-01   0.765E-03 -.689E-03 0.521E-03
   0.188E+01 0.995E+00 0.601E+01   -.206E+01 -.956E+00 -.602E+01   0.172E+00 -.274E-01 0.632E-02   0.704E-04 -.413E-03 -.638E-03
   0.175E+01 -.115E+01 0.600E+01   -.187E+01 0.115E+01 -.602E+01   0.111E+00 -.204E-01 0.812E-02   0.186E-03 0.185E-03 -.571E-03
   0.172E+02 0.241E+01 0.887E+01   -.183E+02 -.199E+01 -.887E+01   0.111E+01 -.399E+00 -.164E-01   -.161E-02 -.504E-03 -.180E-02
   0.128E+02 -.595E+01 0.738E+01   -.133E+02 0.634E+01 -.739E+01   0.474E+00 -.415E+00 -.106E-01   -.153E-02 0.699E-03 -.200E-02
   0.245E+02 0.150E+02 0.178E+02   -.216E+02 -.154E+02 -.181E+02   -.281E+01 0.396E+00 0.410E+00   -.150E-02 -.156E-02 0.271E-02
   0.218E+02 -.398E+02 0.162E+02   -.201E+02 0.461E+02 -.164E+02   -.176E+01 -.632E+01 0.314E+00   -.126E-02 0.125E-02 0.130E-02
   -.319E+02 0.112E+02 0.171E+02   0.315E+02 -.118E+02 -.180E+02   0.402E+00 0.622E+00 0.875E+00   0.866E-03 -.151E-03 -.243E-02
   -.320E+02 -.118E+02 0.155E+02   0.316E+02 0.123E+02 -.165E+02   0.398E+00 -.556E+00 0.982E+00   0.582E-03 -.341E-03 -.223E-02
   -.622E+01 0.118E+01 0.405E+01   0.615E+01 -.117E+01 -.400E+01   0.724E-01 -.702E-02 -.342E-01   0.788E-03 -.342E-03 0.101E-02
   -.635E+01 -.133E+01 0.393E+01   0.630E+01 0.127E+01 -.387E+01   0.627E-01 0.245E-01 -.430E-01   0.796E-03 -.131E-03 0.115E-02
   -.285E+01 -.432E+01 0.780E+01   0.273E+01 0.434E+01 -.786E+01   0.114E+00 -.416E-01 0.815E-01   0.923E-03 0.108E-03 0.689E-03
   -.160E+01 -.371E+01 0.732E+01   0.153E+01 0.376E+01 -.730E+01   0.669E-01 -.533E-01 -.108E-01   0.102E-02 -.367E-03 0.436E-03
   0.638E+01 -.555E+01 0.478E+01   -.667E+01 0.579E+01 -.479E+01   0.287E+00 -.279E+00 -.162E-01   -.563E-03 0.792E-03 -.164E-02
   0.316E+01 -.567E+01 0.484E+01   -.315E+01 0.584E+01 -.483E+01   0.958E-02 -.176E+00 -.250E-01   0.201E-03 0.223E-03 -.106E-02
   0.140E+02 -.170E+02 0.136E+02   -.144E+02 0.177E+02 -.138E+02   0.394E+00 -.667E+00 0.239E+00   -.187E-02 0.179E-02 -.644E-03
   0.564E+01 -.140E+02 0.806E+01   -.535E+01 0.145E+02 -.799E+01   -.279E+00 -.577E+00 -.760E-01   -.133E-02 0.137E-02 -.478E-03
   -.967E+01 -.446E+02 0.102E+02   0.168E+02 0.412E+02 -.887E+01   -.715E+01 0.343E+01 -.135E+01   -.418E-03 0.123E-02 0.119E-02
   -.125E+01 -.181E+02 0.500E+01   0.152E+01 0.172E+02 -.516E+01   -.274E+00 0.931E+00 0.155E+00   -.334E-03 0.166E-02 0.831E-03
   0.486E+01 -.425E+02 0.432E+02   -.110E+02 0.394E+02 -.427E+02   0.614E+01 0.307E+01 -.525E+00   0.253E-02 0.151E-02 -.338E-02
   -.502E+00 -.228E+02 0.176E+02   0.217E+00 0.222E+02 -.178E+02   0.288E+00 0.641E+00 0.213E+00   0.207E-03 0.481E-03 -.135E-02
   -.135E+02 -.715E+01 0.924E+00   0.134E+02 0.709E+01 -.894E+00   0.122E+00 0.121E-01 -.330E-01   0.178E-03 -.339E-03 0.515E-04
   -.585E+01 -.112E+02 0.645E+01   0.568E+01 0.112E+02 -.647E+01   0.152E+00 -.639E-01 0.131E-01   0.284E-03 -.215E-04 0.819E-04
   -.190E+01 -.364E+01 0.794E+01   0.186E+01 0.367E+01 -.797E+01   0.365E-01 -.431E-01 0.295E-01   0.731E-03 0.900E-04 0.414E-03
   -.172E+01 -.382E+01 0.806E+01   0.176E+01 0.383E+01 -.808E+01   -.269E-01 -.154E-01 0.212E-01   0.221E-03 0.875E-03 0.212E-03
   0.166E+00 -.261E+01 0.670E+01   -.177E+00 0.273E+01 -.673E+01   0.409E-01 -.128E+00 0.323E-01   0.810E-03 -.186E-03 -.217E-03
   0.395E+00 -.258E+01 0.651E+01   -.355E+00 0.267E+01 -.649E+01   -.336E-01 -.917E-01 -.161E-01   0.526E-03 0.256E-03 -.627E-04
   0.109E+01 -.524E+01 0.612E+01   -.109E+01 0.536E+01 -.614E+01   -.235E-01 -.106E+00 0.924E-02   -.398E-03 0.495E-03 -.821E-03
   0.236E+01 -.459E+01 0.655E+01   -.242E+01 0.472E+01 -.656E+01   0.563E-01 -.107E+00 0.141E-02   -.172E-03 -.740E-03 -.259E-03
   -.288E+01 -.108E+02 0.879E+01   0.349E+01 0.107E+02 -.884E+01   -.600E+00 0.139E+00 0.645E-01   -.138E-02 0.142E-02 0.486E-03
   0.266E+01 -.439E+01 0.899E+01   -.255E+01 0.427E+01 -.904E+01   -.810E-01 0.118E+00 0.608E-01   -.524E-03 0.817E-04 0.452E-03
   0.349E+01 -.102E+02 0.590E+01   -.361E+01 0.967E+01 -.558E+01   0.105E+00 0.561E+00 -.312E+00   0.174E-03 0.165E-02 -.128E-03
   -.103E+01 -.675E+01 0.715E+01   0.100E+01 0.639E+01 -.718E+01   0.225E-01 0.366E+00 0.309E-01   0.193E-03 0.750E-03 0.110E-03
   0.403E+00 -.881E+01 0.110E+02   -.800E+00 0.863E+01 -.112E+02   0.387E+00 0.187E+00 0.173E+00   0.859E-04 0.760E-03 -.645E-03
   -.280E+01 -.577E+01 0.746E+01   0.270E+01 0.569E+01 -.748E+01   0.737E-01 0.994E-01 0.146E-01   -.239E-03 0.912E-03 -.343E-03
   -.589E+01 -.587E+01 -.645E+03   0.116E+01 0.581E+01 0.627E+03   0.486E+01 0.631E-01 0.181E+02   -.295E-01 0.818E-04 0.548E-02
 -----------------------------------------------------------------------------------------------
   -.218E+01 0.106E+01 -.177E+02   0.170E-12 0.817E-12 0.227E-12   0.221E+01 -.105E+01 0.177E+02   -.302E-01 -.171E-03 -.835E-02
 
 
 POSITION                                       TOTAL-FORCE (eV/Angst)
 -----------------------------------------------------------------------------------
      0.00190      0.00845      7.46675        -0.004332     -0.018541     -0.006015
      0.00152      1.43014      7.46498         0.000852      0.008251     -0.002391
      2.47998      0.03345      7.46298         0.010320     -0.016814      0.000548
      2.47891      1.45442      7.47606        -0.003752     -0.011279      0.003407
      4.95190      0.02702      7.46550         0.000444     -0.021876     -0.000979
      4.95021      1.44996      7.47592        -0.010348     -0.003384     -0.003461
      0.00434     12.72993      7.46632        -0.002461      0.006193      0.003754
      7.43187      1.41413      7.46691        -0.014174      0.003740     -0.004136
      2.47767     12.70779      7.47605        -0.008815      0.037865      0.000528
      9.90707      1.39196      7.46240         0.007865      0.018727      0.007420
      4.95065     12.71714      7.47526        -0.000132      0.016937     -0.005293
     12.37960      1.40095      7.46593         0.025685     -0.002883     -0.003052
     13.61533      2.12526      7.46772         0.005912     -0.011494     -0.010385
     -1.24726      3.53838      7.47537        -0.001596     -0.019342     -0.014319
      1.23961      2.15736      7.47376         0.024262      0.003634      0.017249
      1.24005      3.57991      7.50367        -0.005898      0.004731      0.024272
      3.71170      2.18061      7.49376        -0.008872     -0.024377      0.007112
      3.70879      3.60386      7.54227        -0.030449     -0.002212      0.012379
      6.19442      2.13956      7.47788        -0.002574     -0.011041     -0.008812
      6.19510      3.56162      7.49559        -0.018133      0.005099     -0.006468
      8.67404      2.10972      7.46273        -0.011182     -0.017846      0.005074
      8.67683      3.52839      7.47146        -0.005263      0.012655      0.001594
     11.14200      2.10667      7.46279         0.003912     -0.007192      0.004052
     11.14118      3.52601      7.46501         0.030580      0.017313     -0.002336
     12.37417      4.24178      7.47308         0.019393      0.028528     -0.023221
     -2.48495      5.65145      7.47653         0.000221      0.030503     -0.024216
     -0.01081      4.25711      7.49390         0.020227      0.024203      0.018606
     -0.03316      5.66949      7.50565        -0.012201     -0.014009      0.022828
      2.46444      4.34176      7.57732        -0.002578     -0.017151     -0.000761
      2.42124      5.76347      7.70748        -0.009933     -0.003539     -0.005079
      4.95734      4.29956      7.53422        -0.005680      0.014180     -0.005014
      4.99733      5.70737      7.60449        -0.017535      0.012327     -0.013969
      7.44528      4.24459      7.49743         0.000230      0.007335     -0.009124
      7.46808      5.66014      7.52950        -0.002543      0.021192     -0.002107
      9.91088      4.23762      7.46823        -0.004692      0.029595      0.011486
      9.91782      5.66009      7.47603         0.004859      0.019673      0.015513
     -3.71230      6.36733      7.47383        -0.002720      0.009624     -0.005522
     -3.71549      7.78760      7.47414        -0.003195     -0.019191     -0.006500
     -1.26159      6.37211      7.48750        -0.000742      0.011991     -0.016126
     -1.27134      7.78922      7.49003         0.021335     -0.020155     -0.020310
      1.16062      6.36548      7.57902         0.000930      0.002819      0.039038
      1.17869      7.77075      7.57418        -0.006467      0.004124      0.038349
      6.24575      6.36682      7.56960         0.032618      0.016071     -0.024058
      6.24562      7.80018      7.57336        -0.007409     -0.021331     -0.021896
      8.69628      6.37503      7.50348         0.008300      0.002367      0.018580
      8.69546      7.79553      7.50435         0.014212     -0.031692      0.020158
     -4.94102      8.50257      7.47530         0.000718     -0.021891      0.019687
     -4.94557      9.92530      7.46786        -0.003504     -0.005157      0.013684
     -2.48946      8.50315      7.47931         0.001310     -0.034976     -0.031829
     -2.48154      9.92371      7.47369         0.021154     -0.005037     -0.016045
     -0.03626      8.48262      7.50566        -0.023940     -0.010065      0.019257
     -0.00939      9.90116      7.49560         0.013914     -0.009387      0.000028
      2.43676      8.38495      7.67860        -0.010698      0.004002      0.014288
      2.47439      9.81973      7.57293         0.001282      0.009880      0.001607
      4.99895      8.46110      7.60812        -0.023295     -0.019376     -0.016414
      4.95997      9.86742      7.53488        -0.010106      0.001574     -0.009376
      7.46825      8.50963      7.53464         0.020150     -0.041429     -0.000385
      7.44703      9.92414      7.49980        -0.018353      0.003879     -0.003668
     -6.17913     10.63418      7.47180        -0.010298     -0.006789      0.003270
     -6.18370     12.05312      7.46303         0.011861     -0.001981      0.003271
     -3.71362     10.63848      7.46425         0.031317     -0.013332      0.005447
     -3.71379     12.05851      7.46282         0.007346     -0.000765      0.000514
     -1.24272     10.62171      7.47643        -0.025082      0.012825     -0.017536
     -1.24211     12.04234      7.46762         0.002918      0.019814     -0.000973
      1.24404     10.57364      7.50713         0.007439     -0.006771      0.012765
      1.24153     12.00223      7.47682         0.031333      0.001584      0.012320
      3.70933     10.56468      7.53888        -0.015451      0.007677      0.013109
      3.71228     11.98658      7.49212        -0.010300      0.009509      0.002147
      6.19699     10.60534      7.49618        -0.011690      0.016401     -0.004352
      6.19481     12.02787      7.47746        -0.033727      0.018432     -0.004242
      3.81721      7.07948      8.32854         0.017218     -0.002951     -0.042970
 -----------------------------------------------------------------------------------
    total drift:                               -0.005129      0.007340     -0.022508


--------------------------------------------------------------------------------------------------------



  FREE ENERGIE OF THE ION-ELECTRON SYSTEM (eV)
  ---------------------------------------------------
  free  energy   TOTEN  =      -654.09598359 eV

  energy  without entropy=     -654.07700866  energy(sigma->0) =     -654.08649613
 
 d Force = 0.1331931E-02[ 0.651E-03, 0.201E-02]  d Energy = 0.1277268E-02 0.547E-04
 d Force =-0.1821501E-01[-0.294E-02,-0.335E-01]  d Ewald  = 0.3396805E+00-0.358E+00


--------------------------------------------------------------------------------------------------------


    POTLOK:  cpu time    0.5411: real time    0.5467


--------------------------------------------------------------------------------------------------------


 Conjugate gradient step on ions:
 trial-energy change:   -0.001277  1 .order   -0.001327   -0.002036   -0.000617
  (g-gl).g = 0.252E-02      g.g   = 0.248E-02  gl.gl    = 0.394E-02
 g(Force)  = 0.246E-02   g(Stress)= 0.254E-04 ortho     = 0.284E-04
 gamma     =   0.63923
 trial     =   0.81376
 opt step  =   1.35852  (harmonic =   1.16783) maximal distance =0.00609038
 next E    =  -654.096175   (d E  =  -0.00147)


--------------------------------------------------------------------------------------------------------


  
 reached required accuracy - stopping structural energy minimisation
     LOOP+:  cpu time  126.9593: real time  127.9923
    4ORBIT:  cpu time    0.0000: real time    0.0000

 total amount of memory used by VASP MPI-rank0   135455. kBytes
=======================================================================

   base      :      30000. kBytes
   nonlr-proj:      10466. kBytes
   fftplans  :      14072. kBytes
   grid      :      39398. kBytes
   one-center:        186. kBytes
   wavefun   :      41333. kBytes
 
  
  
 General timing and accounting informations for this job:
 ========================================================
  
                  Total CPU time used (sec):     3515.584
                            User time (sec):     3483.767
                          System time (sec):       31.817
                         Elapsed time (sec):     3549.604
  
                   Maximum memory used (kb):      631416.
                   Average memory used (kb):           0.
  
                          Minor page faults:      5923954
                          Major page faults:           29
                 Voluntary context switches:        29721
