 running on   48 total cores
 distrk:  each k-point on   48 cores,    1 groups
 distr:  one band on   12 cores,    4 groups
 using from now: INCAR     
 vasp.5.4.4.18Apr17-6-g9f103f2a35 (build Sep 02 2021 13:24:58) complex          
  
 POSCAR found type information on POSCAR  C  N  C  Cr
 POSCAR found :  4 types and      71 ions
 scaLAPACK will be used
 LDA part: xc-table for Pade appr. of Perdew
 POSCAR, INCAR and KPOINTS ok, starting setup
 FFT: planning ...
 WAVECAR not read
 entering main loop
       N       E                     dE             d eps       ncg     rms          rms(c)
DAV:   1     0.274395796164E+04    0.27440E+04   -0.11731E+05  3248   0.127E+03
DAV:   2    -0.171879287966E+03   -0.29158E+04   -0.27870E+04  4320   0.296E+02
DAV:   3    -0.684188354142E+03   -0.51231E+03   -0.50929E+03  3536   0.129E+02
DAV:   4    -0.703709559132E+03   -0.19521E+02   -0.19374E+02  3536   0.313E+01
DAV:   5    -0.704337885161E+03   -0.62833E+00   -0.62630E+00  4048   0.483E+00    0.464E+01
RMM:   6    -0.732103558492E+03   -0.27766E+02   -0.52230E+02  4155   0.393E+01    0.832E+01
RMM:   7    -0.662646442998E+03    0.69457E+02   -0.55483E+01  3033   0.140E+01    0.314E+01
RMM:   8    -0.662448972368E+03    0.19747E+00   -0.21384E+01  3118   0.728E+00    0.281E+01
RMM:   9    -0.647466998549E+03    0.14982E+02   -0.20748E+01  2975   0.856E+00    0.101E+01
RMM:  10    -0.648140363617E+03   -0.67337E+00   -0.28964E+00  3026   0.307E+00    0.140E+01
RMM:  11    -0.647056744467E+03    0.10836E+01   -0.34464E-01  3113   0.958E-01    0.762E+00
RMM:  12    -0.647269909909E+03   -0.21317E+00   -0.13822E-01  2981   0.714E-01    0.617E+00
RMM:  13    -0.647281548161E+03   -0.11638E-01   -0.23613E-01  2971   0.557E-01    0.502E+00
RMM:  14    -0.647145493640E+03    0.13605E+00   -0.21502E-01  2982   0.653E-01    0.323E+00
RMM:  15    -0.647156625026E+03   -0.11131E-01   -0.12509E-01  3045   0.532E-01    0.137E+00
RMM:  16    -0.647275007948E+03   -0.11838E+00   -0.64372E-02  3033   0.346E-01    0.810E-01
RMM:  17    -0.647406683684E+03   -0.13168E+00   -0.50441E-02  2958   0.262E-01    0.627E-01
RMM:  18    -0.647492699174E+03   -0.86015E-01   -0.61619E-02  2954   0.249E-01    0.312E-01
RMM:  19    -0.647503494277E+03   -0.10795E-01   -0.14973E-02  2985   0.148E-01    0.209E-01
RMM:  20    -0.647502974979E+03    0.51930E-03   -0.37095E-03  2994   0.854E-02    0.167E-01
RMM:  21    -0.647501213847E+03    0.17611E-02   -0.42918E-03  2951   0.838E-02    0.185E-01
RMM:  22    -0.647506817437E+03   -0.56036E-02   -0.11821E-03  2826   0.454E-02    0.114E-01
RMM:  23    -0.647516282249E+03   -0.94648E-02   -0.50951E-04  2309   0.275E-02    0.801E-02
RMM:  24    -0.647525866910E+03   -0.95847E-02   -0.59747E-04  2372   0.271E-02    0.671E-02
RMM:  25    -0.647530142569E+03   -0.42757E-02   -0.44767E-04  2260   0.234E-02    0.595E-02
RMM:  26    -0.647531428462E+03   -0.12859E-02   -0.16816E-04  2229   0.131E-02    0.373E-02
RMM:  27    -0.647532274522E+03   -0.84606E-03   -0.10123E-04  2171   0.113E-02    0.237E-02
RMM:  28    -0.647532830068E+03   -0.55555E-03   -0.49864E-05  2066   0.788E-03    0.102E-02
RMM:  29    -0.647533095480E+03   -0.26541E-03   -0.16785E-05  1336   0.443E-03    0.833E-03
RMM:  30    -0.647533205239E+03   -0.10976E-03   -0.94017E-06  1485   0.386E-03    0.371E-03
RMM:  31    -0.647533243029E+03   -0.37791E-04   -0.49262E-06  1258   0.279E-03    0.192E-03
RMM:  32    -0.647533256956E+03   -0.13926E-04   -0.13070E-06  1038   0.192E-03    0.137E-03
RMM:  33    -0.647533272225E+03   -0.15269E-04   -0.67894E-07   843   0.163E-03    0.794E-04
RMM:  34    -0.647533277450E+03   -0.52257E-05   -0.20832E-07   606   0.144E-03
   1 F= -.65393566E+03 E0= -.65392189E+03  d E =-.653936E+03  mag=     1.4185
 Constraining cell:  1  0  0  |  1  1  0  |  0  0  0
 curvature:   0.00 expect dE= 0.000E+00 dE for cont linesearch  0.000E+00
 trial: gam= 0.00000 g(F)=  0.199E+00 g(S)=  0.131E-01 ort = 0.000E+00 (trialstep = 0.100E+01)
 search vector abs. value=  0.212E+00
 bond charge predicted
       N       E                     dE             d eps       ncg     rms          rms(c)
DAV:   1    -0.647523891581E+03    0.93806E-02   -0.16462E+01  3336   0.126E+01    0.138E+00
RMM:   2    -0.647593864109E+03   -0.69973E-01   -0.81908E-01  3057   0.202E+00    0.110E+00
RMM:   3    -0.647589137016E+03    0.47271E-02   -0.87174E-02  3209   0.592E-01    0.133E+00
RMM:   4    -0.647573658418E+03    0.15479E-01   -0.20953E-02  3270   0.278E-01    0.434E-01
RMM:   5    -0.647572059921E+03    0.15985E-02   -0.59437E-03  3027   0.149E-01    0.208E-01
RMM:   6    -0.647573415158E+03   -0.13552E-02   -0.12025E-03  3026   0.733E-02    0.639E-02
RMM:   7    -0.647575080631E+03   -0.16655E-02   -0.23414E-04  3024   0.250E-02    0.316E-02
RMM:   8    -0.647576383487E+03   -0.13029E-02   -0.59443E-05  2097   0.126E-02    0.163E-02
RMM:   9    -0.647577276831E+03   -0.89334E-03   -0.38576E-05  1997   0.939E-03    0.678E-03
RMM:  10    -0.647577513314E+03   -0.23648E-03   -0.95895E-06  1814   0.467E-03    0.397E-03
RMM:  11    -0.647577676855E+03   -0.16354E-03   -0.77383E-06  1405   0.345E-03    0.223E-03
RMM:  12    -0.647577697234E+03   -0.20379E-04   -0.20888E-06  1208   0.239E-03    0.110E-03
RMM:  13    -0.647577709678E+03   -0.12444E-04   -0.15875E-06  1089   0.205E-03    0.784E-04
RMM:  14    -0.647577722141E+03   -0.12463E-04   -0.99899E-07  1037   0.183E-03    0.565E-04
RMM:  15    -0.647577727209E+03   -0.50675E-05   -0.42985E-07   767   0.159E-03
   2 F= -.65398515E+03 E0= -.65397462E+03  d E =-.494944E-01  mag=     1.3208
 Constraining cell:  1  0  0  |  1  1  0  |  0  0  0
 trial-energy change:   -0.049494  1 .order   -0.047259   -0.211928    0.117410
 step:   0.6527(harm=  0.6435)  dis= 0.02058  next Energy=  -654.005448 (dE=-0.698E-01)
 bond charge predicted
       N       E                     dE             d eps       ncg     rms          rms(c)
DAV:   1    -0.647593479901E+03   -0.15758E-01   -0.20039E+00  3320   0.439E+00    0.440E-01
RMM:   2    -0.647601582986E+03   -0.81031E-02   -0.94221E-02  3066   0.707E-01    0.368E-01
RMM:   3    -0.647600807970E+03    0.77502E-03   -0.94751E-03  3186   0.201E-01    0.434E-01
RMM:   4    -0.647599164403E+03    0.16436E-02   -0.22357E-03  3245   0.920E-02    0.155E-01
RMM:   5    -0.647598836734E+03    0.32767E-03   -0.69676E-04  2987   0.520E-02    0.715E-02
RMM:   6    -0.647598919392E+03   -0.82658E-04   -0.12361E-04  2700   0.244E-02    0.204E-02
RMM:   7    -0.647599094650E+03   -0.17526E-03   -0.21244E-05  1914   0.897E-03    0.105E-02
RMM:   8    -0.647599279439E+03   -0.18479E-03   -0.98661E-06  1793   0.596E-03    0.414E-03
RMM:   9    -0.647599388190E+03   -0.10875E-03   -0.54727E-06  1712   0.355E-03    0.195E-03
RMM:  10    -0.647599451412E+03   -0.63222E-04   -0.27551E-06  1240   0.232E-03    0.118E-03
RMM:  11    -0.647599490923E+03   -0.39511E-04   -0.21034E-06  1102   0.197E-03    0.575E-04
RMM:  12    -0.647599500720E+03   -0.97973E-05   -0.67746E-07   834   0.165E-03
   3 F= -.65400541E+03 E0= -.65399400E+03  d E =-.697509E-01  mag=     1.3434
 Constraining cell:  1  0  0  |  1  1  0  |  0  0  0
 curvature:  -0.32 expect dE=-0.271E-01 dE for cont linesearch -0.827E-07
 trial: gam= 0.39676 g(F)=  0.835E-01 g(S)=  0.779E-03 ort = 0.234E-03 (trialstep = 0.931E+00)
 search vector abs. value=  0.118E+00
 bond charge predicted
       N       E                     dE             d eps       ncg     rms          rms(c)
DAV:   1    -0.647584679485E+03    0.14811E-01   -0.80090E+00  3448   0.100E+01    0.961E-01
RMM:   2    -0.647646702784E+03   -0.62023E-01   -0.65446E-01  2985   0.149E+00    0.521E-01
RMM:   3    -0.647637656630E+03    0.90462E-02   -0.30380E-02  3496   0.355E-01    0.357E-01
RMM:   4    -0.647637889823E+03   -0.23319E-03   -0.55436E-03  3379   0.132E-01    0.419E-01
RMM:   5    -0.647636492041E+03    0.13978E-02   -0.22569E-03  3040   0.794E-02    0.165E-01
RMM:   6    -0.647636601660E+03   -0.10962E-03   -0.66951E-04  3072   0.509E-02    0.499E-02
RMM:   7    -0.647636955406E+03   -0.35375E-03   -0.10547E-04  2403   0.191E-02    0.307E-02
RMM:   8    -0.647637312472E+03   -0.35707E-03   -0.25762E-05  1937   0.104E-02    0.155E-02
RMM:   9    -0.647637684344E+03   -0.37187E-03   -0.22429E-05  1928   0.775E-03    0.740E-03
RMM:  10    -0.647637822102E+03   -0.13776E-03   -0.56527E-06  1764   0.406E-03    0.350E-03
RMM:  11    -0.647637882943E+03   -0.60841E-04   -0.25469E-06  1320   0.266E-03    0.174E-03
RMM:  12    -0.647637909149E+03   -0.26206E-04   -0.13537E-06  1102   0.208E-03    0.895E-04
RMM:  13    -0.647637918123E+03   -0.89745E-05   -0.65965E-07   860   0.175E-03
   4 F= -.65404467E+03 E0= -.65403478E+03  d E =-.392567E-01  mag=     1.3059
 Constraining cell:  1  0  0  |  1  1  0  |  0  0  0
 trial-energy change:   -0.039257  1 .order   -0.038824   -0.078549    0.000901
 step:   0.9203(harm=  0.9200)  dis= 0.01942  next Energy=  -654.044673 (dE=-0.393E-01)
 bond charge predicted
       N       E                     dE             d eps       ncg     rms          rms(c)
DAV:   1    -0.647637925681E+03   -0.16532E-04   -0.96997E-04  3488   0.110E-01    0.103E-02
RMM:   2    -0.647637934527E+03   -0.88466E-05   -0.76103E-05  1912   0.167E-02
   5 F= -.65404468E+03 E0= -.65403479E+03  d E =-.392684E-01  mag=     1.3060
 Constraining cell:  1  0  0  |  1  1  0  |  0  0  0
 curvature:  -0.64 expect dE=-0.333E-01 dE for cont linesearch -0.402E-08
 trial: gam= 0.58894 g(F)=  0.491E-01 g(S)=  0.275E-02 ort = 0.272E-04 (trialstep = 0.929E+00)
 search vector abs. value=  0.927E-01
 bond charge predicted
       N       E                     dE             d eps       ncg     rms          rms(c)
DAV:   1    -0.647609259780E+03    0.28666E-01   -0.68153E+00  3488   0.957E+00    0.910E-01
RMM:   2    -0.647675817928E+03   -0.66558E-01   -0.65218E-01  2986   0.135E+00    0.813E-01
RMM:   3    -0.647666665045E+03    0.91529E-02   -0.50034E-02  3361   0.402E-01    0.764E-01
RMM:   4    -0.647661965985E+03    0.46991E-02   -0.72237E-03  3239   0.150E-01    0.253E-01
RMM:   5    -0.647661429741E+03    0.53624E-03   -0.10293E-03  3218   0.586E-02    0.155E-01
RMM:   6    -0.647661304958E+03    0.12478E-03   -0.68368E-04  2967   0.527E-02    0.319E-02
RMM:   7    -0.647661447816E+03   -0.14286E-03   -0.63506E-05  2108   0.151E-02    0.241E-02
RMM:   8    -0.647661569127E+03   -0.12131E-03   -0.16698E-05  1847   0.861E-03    0.151E-02
RMM:   9    -0.647661722051E+03   -0.15292E-03   -0.11606E-05  1826   0.646E-03    0.659E-03
RMM:  10    -0.647661774002E+03   -0.51952E-04   -0.28179E-06  1634   0.343E-03    0.423E-03
RMM:  11    -0.647661803102E+03   -0.29100E-04   -0.13883E-06  1245   0.227E-03    0.203E-03
RMM:  12    -0.647661828764E+03   -0.25661E-04   -0.17661E-06  1213   0.221E-03    0.872E-04
RMM:  13    -0.647661833771E+03   -0.50078E-05   -0.43903E-07   758   0.164E-03
   6 F= -.65406683E+03 E0= -.65405729E+03  d E =-.221502E-01  mag=     1.2935
 Constraining cell:  1  0  0  |  1  1  0  |  0  0  0
 trial-energy change:   -0.022150  1 .order   -0.022186   -0.048138    0.003767
 step:   0.8611(harm=  0.8611)  dis= 0.01838  next Energy=  -654.067002 (dE=-0.223E-01)
 bond charge predicted
       N       E                     dE             d eps       ncg     rms          rms(c)
DAV:   1    -0.647661554267E+03    0.27450E-03   -0.35835E-02  3560   0.696E-01    0.666E-02
RMM:   2    -0.647661911737E+03   -0.35747E-03   -0.34703E-03  2987   0.995E-02    0.705E-02
RMM:   3    -0.647661850421E+03    0.61316E-04   -0.26761E-04  2363   0.294E-02    0.512E-02
RMM:   4    -0.647661832777E+03    0.17643E-04   -0.38800E-05  1887   0.130E-02    0.182E-02
RMM:   5    -0.647661831815E+03    0.96228E-06   -0.63814E-06  1739   0.648E-03
   7 F= -.65406697E+03 E0= -.65405741E+03  d E =-.222933E-01  mag=     1.2942
 Constraining cell:  1  0  0  |  1  1  0  |  0  0  0
 curvature:  -0.77 expect dE=-0.187E-01 dE for cont linesearch -0.262E-06
 trial: gam= 0.45177 g(F)=  0.237E-01 g(S)=  0.662E-03 ort =-0.178E-03 (trialstep = 0.915E+00)
 search vector abs. value=  0.431E-01
 bond charge predicted
       N       E                     dE             d eps       ncg     rms          rms(c)
DAV:   1    -0.647652218251E+03    0.96145E-02   -0.29219E+00  3496   0.622E+00    0.557E-01
RMM:   2    -0.647676091508E+03   -0.23873E-01   -0.24896E-01  2988   0.867E-01    0.317E-01
RMM:   3    -0.647673253786E+03    0.28377E-02   -0.13553E-02  3491   0.225E-01    0.337E-01
RMM:   4    -0.647672500735E+03    0.75305E-03   -0.22336E-03  3344   0.803E-02    0.185E-01
RMM:   5    -0.647672222008E+03    0.27873E-03   -0.41532E-04  3075   0.384E-02    0.969E-02
RMM:   6    -0.647672206333E+03    0.15675E-04   -0.29370E-04  2960   0.342E-02    0.219E-02
RMM:   7    -0.647672264451E+03   -0.58118E-04   -0.26320E-05  1929   0.103E-02    0.149E-02
RMM:   8    -0.647672327042E+03   -0.62591E-04   -0.82107E-06  1823   0.649E-03    0.630E-03
RMM:   9    -0.647672381963E+03   -0.54921E-04   -0.37208E-06  1769   0.387E-03    0.308E-03
RMM:  10    -0.647672410402E+03   -0.28439E-04   -0.12090E-06  1170   0.231E-03    0.146E-03
RMM:  11    -0.647672426727E+03   -0.16325E-04   -0.79857E-07  1003   0.189E-03    0.797E-04
RMM:  12    -0.647672433648E+03   -0.69210E-05   -0.48841E-07   817   0.168E-03
   8 F= -.65407716E+03 E0= -.65406761E+03  d E =-.101867E-01  mag=     1.2842
 Constraining cell:  1  0  0  |  1  1  0  |  0  0  0
 trial-energy change:   -0.010187  1 .order   -0.010147   -0.022202    0.001908
 step:   0.8426(harm=  0.8426)  dis= 0.01169  next Energy=  -654.077195 (dE=-0.102E-01)
 bond charge predicted
       N       E                     dE             d eps       ncg     rms          rms(c)
DAV:   1    -0.647672342217E+03    0.84510E-04   -0.18264E-02  3528   0.493E-01    0.441E-02
RMM:   2    -0.647672491293E+03   -0.14908E-03   -0.15745E-03  2980   0.690E-02    0.277E-02
RMM:   3    -0.647672476585E+03    0.14708E-04   -0.92501E-05  2088   0.184E-02    0.315E-02
RMM:   4    -0.647672470117E+03    0.64677E-05   -0.16938E-05  1829   0.927E-03
   9 F= -.65407724E+03 E0= -.65406769E+03  d E =-.102644E-01  mag=     1.2846
 Constraining cell:  1  0  0  |  1  1  0  |  0  0  0
 curvature:  -0.75 expect dE=-0.878E-02 dE for cont linesearch -0.418E-10
 trial: gam= 0.47965 g(F)=  0.114E-01 g(S)=  0.301E-03 ort =-0.155E-05 (trialstep = 0.901E+00)
 search vector abs. value=  0.216E-01
 bond charge predicted
       N       E                     dE             d eps       ncg     rms          rms(c)
DAV:   1    -0.647669828438E+03    0.26481E-02   -0.13710E+00  3392   0.410E+00    0.363E-01
RMM:   2    -0.647679151987E+03   -0.93235E-02   -0.10003E-01  2995   0.569E-01    0.209E-01
RMM:   3    -0.647677951841E+03    0.12001E-02   -0.58042E-03  3521   0.150E-01    0.242E-01
RMM:   4    -0.647677523973E+03    0.42787E-03   -0.10103E-03  3254   0.549E-02    0.111E-01
RMM:   5    -0.647677426170E+03    0.97803E-04   -0.20664E-04  2980   0.271E-02    0.694E-02
RMM:   6    -0.647677413403E+03    0.12767E-04   -0.14083E-04  2876   0.237E-02    0.144E-02
RMM:   7    -0.647677454161E+03   -0.40758E-04   -0.10563E-05  1837   0.699E-03    0.907E-03
RMM:   8    -0.647677493223E+03   -0.39061E-04   -0.39144E-06  1780   0.456E-03    0.399E-03
RMM:   9    -0.647677527094E+03   -0.33871E-04   -0.19989E-06  1456   0.294E-03    0.159E-03
RMM:  10    -0.647677543084E+03   -0.15990E-04   -0.73686E-07   996   0.206E-03    0.891E-04
RMM:  11    -0.647677553295E+03   -0.10211E-04   -0.53483E-07   943   0.178E-03    0.486E-04
RMM:  12    -0.647677558498E+03   -0.52035E-05   -0.43240E-07   832   0.156E-03
  10 F= -.65408267E+03 E0= -.65407321E+03  d E =-.543359E-02  mag=     1.2817
 Constraining cell:  1  0  0  |  1  1  0  |  0  0  0
 trial-energy change:   -0.005434  1 .order   -0.005419   -0.010564   -0.000274
 step:   0.9245(harm=  0.9245)  dis= 0.00844  next Energy=  -654.082660 (dE=-0.542E-02)
 bond charge predicted
       N       E                     dE             d eps       ncg     rms          rms(c)
DAV:   1    -0.647677552157E+03    0.11384E-05   -0.97730E-04  3424   0.109E-01    0.960E-03
RMM:   2    -0.647677558817E+03   -0.66608E-05   -0.67414E-05  1906   0.152E-02
  11 F= -.65408268E+03 E0= -.65407322E+03  d E =-.544154E-02  mag=     1.2817
 Constraining cell:  1  0  0  |  1  1  0  |  0  0  0
 curvature:  -0.85 expect dE=-0.585E-02 dE for cont linesearch -0.105E-07
 trial: gam= 0.58362 g(F)=  0.670E-02 g(S)=  0.154E-03 ort = 0.163E-04 (trialstep = 0.905E+00)
 search vector abs. value=  0.143E-01
 bond charge predicted
       N       E                     dE             d eps       ncg     rms          rms(c)
DAV:   1    -0.647676715805E+03    0.83635E-03   -0.91032E-01  3312   0.327E+00    0.271E-01
RMM:   2    -0.647682417653E+03   -0.57018E-02   -0.61361E-02  3013   0.449E-01    0.174E-01
RMM:   3    -0.647681743813E+03    0.67384E-03   -0.39275E-03  3553   0.119E-01    0.188E-01
RMM:   4    -0.647681469957E+03    0.27386E-03   -0.67491E-04  3090   0.445E-02    0.977E-02
RMM:   5    -0.647681391178E+03    0.78778E-04   -0.13786E-04  2753   0.223E-02    0.481E-02
RMM:   6    -0.647681401321E+03   -0.10143E-04   -0.74466E-05  2236   0.175E-02    0.110E-02
RMM:   7    -0.647681431295E+03   -0.29974E-04   -0.80920E-06  1795   0.698E-03    0.704E-03
RMM:   8    -0.647681460519E+03   -0.29224E-04   -0.30544E-06  1768   0.434E-03    0.279E-03
RMM:   9    -0.647681480411E+03   -0.19892E-04   -0.12494E-06  1239   0.257E-03    0.132E-03
RMM:  10    -0.647681490094E+03   -0.96830E-05   -0.60374E-07  1001   0.198E-03
  12 F= -.65408622E+03 E0= -.65407677E+03  d E =-.354184E-02  mag=     1.2827
 Constraining cell:  1  0  0  |  1  1  0  |  0  0  0
 trial-energy change:   -0.003542  1 .order   -0.003545   -0.006217   -0.000872
 step:   1.0531(harm=  1.0531)  dis= 0.00834  next Energy=  -654.086295 (dE=-0.362E-02)
 bond charge predicted
       N       E                     dE             d eps       ncg     rms          rms(c)
DAV:   1    -0.647681512061E+03   -0.31650E-04   -0.24282E-02  3400   0.534E-01    0.441E-02
RMM:   2    -0.647681660755E+03   -0.14869E-03   -0.16387E-03  3010   0.736E-02    0.305E-02
RMM:   3    -0.647681645709E+03    0.15046E-04   -0.10791E-04  2196   0.199E-02    0.334E-02
RMM:   4    -0.647681636706E+03    0.90029E-05   -0.20669E-05  1859   0.101E-02
  13 F= -.65408630E+03 E0= -.65407684E+03  d E =-.362085E-02  mag=     1.2828
 Constraining cell:  1  0  0  |  1  1  0  |  0  0  0
 curvature:  -1.09 expect dE=-0.635E-02 dE for cont linesearch -0.184E-06
 trial: gam= 0.84705 g(F)=  0.573E-02 g(S)=  0.810E-04 ort = 0.490E-04 (trialstep = 0.826E+00)
 search vector abs. value=  0.161E-01
 bond charge predicted
       N       E                     dE             d eps       ncg     rms          rms(c)
DAV:   1    -0.647681147626E+03    0.49808E-03   -0.85422E-01  3296   0.313E+00    0.258E-01
RMM:   2    -0.647686457716E+03   -0.53101E-02   -0.56196E-02  3038   0.428E-01    0.191E-01
RMM:   3    -0.647685872184E+03    0.58553E-03   -0.40863E-03  3511   0.119E-01    0.215E-01
RMM:   4    -0.647685493968E+03    0.37822E-03   -0.63769E-04  2988   0.441E-02    0.844E-02
RMM:   5    -0.647685438060E+03    0.55908E-04   -0.13020E-04  2783   0.214E-02    0.458E-02
RMM:   6    -0.647685457089E+03   -0.19029E-04   -0.72225E-05  2245   0.172E-02    0.100E-02
RMM:   7    -0.647685488734E+03   -0.31645E-04   -0.73188E-06  1794   0.669E-03    0.664E-03
RMM:   8    -0.647685520568E+03   -0.31833E-04   -0.31403E-06  1767   0.421E-03    0.276E-03
RMM:   9    -0.647685536177E+03   -0.15610E-04   -0.10519E-06  1149   0.242E-03    0.143E-03
RMM:  10    -0.647685545628E+03   -0.94503E-05   -0.62045E-07   966   0.196E-03
  14 F= -.65408952E+03 E0= -.65408008E+03  d E =-.321533E-02  mag=     1.2829
 Constraining cell:  1  0  0  |  1  1  0  |  0  0  0
 trial-energy change:   -0.003215  1 .order   -0.003209   -0.004838   -0.001581
 step:   1.2274(harm=  1.2274)  dis= 0.01034  next Energy=  -654.089893 (dE=-0.359E-02)
 bond charge predicted
       N       E                     dE             d eps       ncg     rms          rms(c)
DAV:   1    -0.647685260695E+03    0.27548E-03   -0.20124E-01  3344   0.152E+00    0.125E-01
RMM:   2    -0.647686510073E+03   -0.12494E-02   -0.13289E-02  3031   0.208E-01    0.936E-02
RMM:   3    -0.647686369581E+03    0.14049E-03   -0.98043E-04  3454   0.584E-02    0.105E-01
RMM:   4    -0.647686277337E+03    0.92244E-04   -0.14735E-04  2190   0.216E-02    0.400E-02
RMM:   5    -0.647686263104E+03    0.14233E-04   -0.29571E-05  1963   0.116E-02    0.220E-02
RMM:   6    -0.647686267535E+03   -0.44310E-05   -0.18974E-05  1827   0.977E-03
  15 F= -.65408989E+03 E0= -.65408047E+03  d E =-.358948E-02  mag=     1.2829
 Constraining cell:  1  0  0  |  1  1  0  |  0  0  0
 curvature:  -1.69 expect dE=-0.929E-02 dE for cont linesearch -0.380E-06
 trial: gam= 0.94638 g(F)=  0.531E-02 g(S)=  0.186E-03 ort = 0.602E-04 (trialstep = 0.729E+00)
 search vector abs. value=  0.200E-01
 bond charge predicted
       N       E                     dE             d eps       ncg     rms          rms(c)
DAV:   1    -0.647685263325E+03    0.99978E-03   -0.84065E-01  3320   0.305E+00    0.250E-01
RMM:   2    -0.647690044690E+03   -0.47814E-02   -0.52056E-02  3036   0.423E-01    0.150E-01
RMM:   3    -0.647689392398E+03    0.65229E-03   -0.29358E-03  3590   0.110E-01    0.151E-01
RMM:   4    -0.647689243460E+03    0.14894E-03   -0.54544E-04  2983   0.400E-02    0.920E-02
RMM:   5    -0.647689186670E+03    0.56791E-04   -0.13554E-04  2699   0.223E-02    0.441E-02
RMM:   6    -0.647689210425E+03   -0.23755E-04   -0.66472E-05  2145   0.163E-02    0.102E-02
RMM:   7    -0.647689237987E+03   -0.27562E-04   -0.71390E-06  1794   0.668E-03    0.631E-03
RMM:   8    -0.647689266210E+03   -0.28223E-04   -0.27408E-06  1760   0.401E-03    0.254E-03
RMM:   9    -0.647689282849E+03   -0.16639E-04   -0.11378E-06  1238   0.250E-03    0.118E-03
RMM:  10    -0.647689290638E+03   -0.77890E-05   -0.54785E-07   932   0.195E-03
  16 F= -.65409261E+03 E0= -.65408314E+03  d E =-.272023E-02  mag=     1.2802
 Constraining cell:  1  0  0  |  1  1  0  |  0  0  0
 trial-energy change:   -0.002720  1 .order   -0.002696   -0.004047   -0.001344
 step:   1.0917(harm=  1.0917)  dis= 0.00911  next Energy=  -654.092920 (dE=-0.303E-02)
 bond charge predicted
       N       E                     dE             d eps       ncg     rms          rms(c)
DAV:   1    -0.647688818584E+03    0.46427E-03   -0.20819E-01  3336   0.152E+00    0.124E-01
RMM:   2    -0.647689986284E+03   -0.11677E-02   -0.12874E-02  3037   0.210E-01    0.733E-02
RMM:   3    -0.647689825041E+03    0.16124E-03   -0.71395E-04  3531   0.543E-02    0.725E-02
RMM:   4    -0.647689790742E+03    0.34300E-04   -0.12863E-04  2155   0.199E-02    0.463E-02
RMM:   5    -0.647689776412E+03    0.14330E-04   -0.34234E-05  1960   0.128E-02    0.220E-02
RMM:   6    -0.647689784211E+03   -0.77992E-05   -0.18696E-05  1838   0.983E-03
  17 F= -.65409294E+03 E0= -.65408345E+03  d E =-.305330E-02  mag=     1.2790
 Constraining cell:  1  0  0  |  1  1  0  |  0  0  0
 curvature:  -1.97 expect dE=-0.776E-02 dE for cont linesearch -0.906E-06
 trial: gam= 0.70566 g(F)=  0.389E-02 g(S)=  0.447E-04 ort = 0.960E-04 (trialstep = 0.802E+00)
 search vector abs. value=  0.141E-01
 bond charge predicted
       N       E                     dE             d eps       ncg     rms          rms(c)
DAV:   1    -0.647688627380E+03    0.11490E-02   -0.71442E-01  3320   0.279E+00    0.225E-01
RMM:   2    -0.647692465690E+03   -0.38383E-02   -0.41814E-02  3038   0.390E-01    0.162E-01
RMM:   3    -0.647692006161E+03    0.45953E-03   -0.27938E-03  3581   0.105E-01    0.173E-01
RMM:   4    -0.647691748939E+03    0.25722E-03   -0.53412E-04  2950   0.400E-02    0.761E-02
RMM:   5    -0.647691716226E+03    0.32713E-04   -0.11192E-04  2719   0.205E-02    0.369E-02
RMM:   6    -0.647691741746E+03   -0.25520E-04   -0.46185E-05  1992   0.141E-02    0.867E-03
RMM:   7    -0.647691764803E+03   -0.23057E-04   -0.54152E-06  1775   0.611E-03    0.513E-03
RMM:   8    -0.647691785861E+03   -0.21058E-04   -0.21268E-06  1737   0.360E-03    0.217E-03
RMM:   9    -0.647691796628E+03   -0.10767E-04   -0.77243E-07  1095   0.223E-03    0.946E-04
RMM:  10    -0.647691801653E+03   -0.50253E-05   -0.38538E-07   879   0.182E-03
  18 F= -.65409469E+03 E0= -.65408521E+03  d E =-.174785E-02  mag=     1.2760
 Constraining cell:  1  0  0  |  1  1  0  |  0  0  0
 trial-energy change:   -0.001748  1 .order   -0.001718   -0.003210   -0.000227
 step:   0.8625(harm=  0.8625)  dis= 0.00538  next Energy=  -654.094670 (dE=-0.173E-02)
 bond charge predicted
       N       E                     dE             d eps       ncg     rms          rms(c)
DAV:   1    -0.647691818740E+03   -0.22112E-04   -0.41474E-03  3408   0.212E-01    0.170E-02
RMM:   2    -0.647691840382E+03   -0.21643E-04   -0.23905E-04  2618   0.297E-02    0.118E-02
RMM:   3    -0.647691838945E+03    0.14373E-05   -0.15879E-05  1839   0.894E-03
  19 F= -.65409471E+03 E0= -.65408523E+03  d E =-.176373E-02  mag=     1.2759
 Constraining cell:  1  0  0  |  1  1  0  |  0  0  0
 curvature:  -1.51 expect dE=-0.376E-02 dE for cont linesearch -0.868E-07
 trial: gam= 0.63923 g(F)=  0.246E-02 g(S)=  0.254E-04 ort = 0.284E-04 (trialstep = 0.814E+00)
 search vector abs. value=  0.826E-02
 bond charge predicted
       N       E                     dE             d eps       ncg     rms          rms(c)
DAV:   1    -0.647691656036E+03    0.18435E-03   -0.44389E-01  3296   0.217E+00    0.169E-01
RMM:   2    -0.647693794987E+03   -0.21390E-02   -0.24158E-02  3055   0.304E-01    0.980E-02
RMM:   3    -0.647693458131E+03    0.33686E-03   -0.12435E-03  3568   0.747E-02    0.666E-02
RMM:   4    -0.647693449062E+03    0.90691E-05   -0.19371E-04  2834   0.254E-02    0.633E-02
RMM:   5    -0.647693446648E+03    0.24145E-05   -0.11903E-04  2154   0.189E-02    0.485E-02
RMM:   6    -0.647693443114E+03    0.35343E-05   -0.35500E-05  1908   0.129E-02
  20 F= -.65409598E+03 E0= -.65408650E+03  d E =-.127727E-02  mag=     1.2741
 Constraining cell:  1  0  0  |  1  1  0  |  0  0  0
 trial-energy change:   -0.001277  1 .order   -0.001327   -0.002036   -0.000617
 step:   1.3585(harm=  1.1678)  dis= 0.00609  next Energy=  -654.096175 (dE=-0.147E-02)
 reached required accuracy - stopping structural energy minimisation
