  71  71   0   0
  0.4004891E+02  0.1485980E-08  0.1476216E-08  0.1500000E-08  0.3000000E-15
  1.000000000000000E-004
  CAR 
 unknown system                          
      5.28226922    -48.62349035  301     -2.05540614      1.00000000
    -48.623  0.0000E+00  0.0000E+00  0.0000E+00  0.0000E+00
    -48.444  0.0000E+00  0.0000E+00  0.0000E+00  0.0000E+00
    -48.264  0.0000E+00  0.0000E+00  0.0000E+00  0.0000E+00
    -48.084  0.0000E+00  0.0000E+00  0.0000E+00  0.0000E+00
    -47.905  0.0000E+00  0.0000E+00  0.0000E+00  0.0000E+00
    -47.725  0.0000E+00  0.0000E+00  0.0000E+00  0.0000E+00
    -47.545  0.0000E+00  0.0000E+00  0.0000E+00  0.0000E+00
    -47.366  0.0000E+00  0.0000E+00  0.0000E+00  0.0000E+00
    -47.186  0.0000E+00  0.0000E+00  0.0000E+00  0.0000E+00
    -47.006  0.0000E+00  0.0000E+00  0.0000E+00  0.0000E+00
    -46.827  0.0000E+00  0.0000E+00  0.0000E+00  0.0000E+00
    -46.647  0.0000E+00  0.1455E-12  0.0000E+00  0.2614E-13
    -46.467  0.0000E+00  0.2230E-06  0.0000E+00  0.4006E-07
    -46.288  0.0000E+00  0.7360E-03  0.0000E+00  0.1323E-03
    -46.108  0.0000E+00  0.1075E-01  0.0000E+00  0.2064E-02
    -45.928  0.0000E+00  0.9751E-02  0.0000E+00  0.3816E-02
    -45.749  0.0000E+00  0.1898E-01  0.0000E+00  0.7226E-02
    -45.569  0.0000E+00  0.1526E-02  0.0000E+00  0.7500E-02
    -45.389  0.0000E+00  0.9319E-06  0.0000E+00  0.7500E-02
    -45.209  0.0000E+00  0.1385E-11  0.0000E+00  0.7500E-02
    -45.030  0.0000E+00  0.0000E+00  0.0000E+00  0.7500E-02
    -44.850  0.0000E+00  0.0000E+00  0.0000E+00  0.7500E-02
    -44.670  0.0000E+00  0.0000E+00  0.0000E+00  0.7500E-02
    -44.491  0.1257E-14  0.0000E+00  0.2258E-15  0.7500E-02
    -44.311  0.9925E-08  0.0000E+00  0.1783E-08  0.7500E-02
    -44.131  0.1572E-03  0.0000E+00  0.2825E-04  0.7500E-02
    -43.952  0.8256E-02  0.0000E+00  0.1512E-02  0.7500E-02
    -43.772  0.1046E-01  0.0000E+00  0.3392E-02  0.7500E-02
    -43.592  0.1700E-01  0.0000E+00  0.6446E-02  0.7500E-02
    -43.413  0.5829E-02  0.0000E+00  0.7493E-02  0.7500E-02
    -43.233  0.3796E-04  0.0000E+00  0.7500E-02  0.7500E-02
    -43.053  0.7216E-09  0.0000E+00  0.7500E-02  0.7500E-02
    -42.874  0.2626E-16  0.0000E+00  0.7500E-02  0.7500E-02
    -42.694  0.0000E+00  0.0000E+00  0.7500E-02  0.7500E-02
    -42.514  0.0000E+00  0.0000E+00  0.7500E-02  0.7500E-02
    -42.334  0.0000E+00  0.0000E+00  0.7500E-02  0.7500E-02
    -42.155  0.0000E+00  0.0000E+00  0.7500E-02  0.7500E-02
    -41.975  0.0000E+00  0.0000E+00  0.7500E-02  0.7500E-02
    -41.795  0.0000E+00  0.0000E+00  0.7500E-02  0.7500E-02
    -41.616  0.0000E+00  0.0000E+00  0.7500E-02  0.7500E-02
    -41.436  0.0000E+00  0.0000E+00  0.7500E-02  0.7500E-02
    -41.256  0.0000E+00  0.0000E+00  0.7500E-02  0.7500E-02
    -41.077  0.0000E+00  0.0000E+00  0.7500E-02  0.7500E-02
    -40.897  0.0000E+00  0.0000E+00  0.7500E-02  0.7500E-02
    -40.717  0.0000E+00  0.0000E+00  0.7500E-02  0.7500E-02
    -40.538  0.0000E+00  0.0000E+00  0.7500E-02  0.7500E-02
    -40.358  0.0000E+00  0.0000E+00  0.7500E-02  0.7500E-02
    -40.178  0.0000E+00  0.0000E+00  0.7500E-02  0.7500E-02
    -39.999  0.0000E+00  0.0000E+00  0.7500E-02  0.7500E-02
    -39.819  0.0000E+00  0.0000E+00  0.7500E-02  0.7500E-02
    -39.639  0.0000E+00  0.0000E+00  0.7500E-02  0.7500E-02
    -39.460  0.0000E+00  0.0000E+00  0.7500E-02  0.7500E-02
    -39.280  0.0000E+00  0.0000E+00  0.7500E-02  0.7500E-02
    -39.100  0.0000E+00  0.0000E+00  0.7500E-02  0.7500E-02
    -38.920  0.0000E+00  0.0000E+00  0.7500E-02  0.7500E-02
    -38.741  0.0000E+00  0.0000E+00  0.7500E-02  0.7500E-02
    -38.561  0.0000E+00  0.0000E+00  0.7500E-02  0.7500E-02
    -38.381  0.0000E+00  0.0000E+00  0.7500E-02  0.7500E-02
    -38.202  0.0000E+00  0.0000E+00  0.7500E-02  0.7500E-02
    -38.022  0.0000E+00  0.0000E+00  0.7500E-02  0.7500E-02
    -37.842  0.0000E+00  0.0000E+00  0.7500E-02  0.7500E-02
    -37.663  0.0000E+00  0.0000E+00  0.7500E-02  0.7500E-02
    -37.483  0.0000E+00  0.0000E+00  0.7500E-02  0.7500E-02
    -37.303  0.0000E+00  0.0000E+00  0.7500E-02  0.7500E-02
    -37.124  0.0000E+00  0.0000E+00  0.7500E-02  0.7500E-02
    -36.944  0.0000E+00  0.0000E+00  0.7500E-02  0.7500E-02
    -36.764  0.0000E+00  0.0000E+00  0.7500E-02  0.7500E-02
    -36.585  0.0000E+00  0.0000E+00  0.7500E-02  0.7500E-02
    -36.405  0.0000E+00  0.0000E+00  0.7500E-02  0.7500E-02
    -36.225  0.0000E+00  0.0000E+00  0.7500E-02  0.7500E-02
    -36.045  0.0000E+00  0.0000E+00  0.7500E-02  0.7500E-02
    -35.866  0.0000E+00  0.0000E+00  0.7500E-02  0.7500E-02
    -35.686  0.0000E+00  0.0000E+00  0.7500E-02  0.7500E-02
    -35.506  0.0000E+00  0.0000E+00  0.7500E-02  0.7500E-02
    -35.327  0.0000E+00  0.0000E+00  0.7500E-02  0.7500E-02
    -35.147  0.0000E+00  0.0000E+00  0.7500E-02  0.7500E-02
    -34.967  0.0000E+00  0.0000E+00  0.7500E-02  0.7500E-02
    -34.788  0.0000E+00  0.0000E+00  0.7500E-02  0.7500E-02
    -34.608  0.0000E+00  0.0000E+00  0.7500E-02  0.7500E-02
    -34.428  0.0000E+00  0.0000E+00  0.7500E-02  0.7500E-02
    -34.249  0.0000E+00  0.0000E+00  0.7500E-02  0.7500E-02
    -34.069  0.0000E+00  0.0000E+00  0.7500E-02  0.7500E-02
    -33.889  0.0000E+00  0.0000E+00  0.7500E-02  0.7500E-02
    -33.710  0.0000E+00  0.0000E+00  0.7500E-02  0.7500E-02
    -33.530  0.0000E+00  0.0000E+00  0.7500E-02  0.7500E-02
    -33.350  0.0000E+00  0.0000E+00  0.7500E-02  0.7500E-02
    -33.171  0.0000E+00  0.0000E+00  0.7500E-02  0.7500E-02
    -32.991  0.0000E+00  0.0000E+00  0.7500E-02  0.7500E-02
    -32.811  0.0000E+00  0.0000E+00  0.7500E-02  0.7500E-02
    -32.631  0.0000E+00  0.0000E+00  0.7500E-02  0.7500E-02
    -32.452  0.0000E+00  0.0000E+00  0.7500E-02  0.7500E-02
    -32.272  0.0000E+00  0.0000E+00  0.7500E-02  0.7500E-02
    -32.092  0.0000E+00  0.0000E+00  0.7500E-02  0.7500E-02
    -31.913  0.0000E+00  0.0000E+00  0.7500E-02  0.7500E-02
    -31.733  0.0000E+00  0.0000E+00  0.7500E-02  0.7500E-02
    -31.553  0.0000E+00  0.0000E+00  0.7500E-02  0.7500E-02
    -31.374  0.0000E+00  0.0000E+00  0.7500E-02  0.7500E-02
    -31.194  0.0000E+00  0.0000E+00  0.7500E-02  0.7500E-02
    -31.014  0.0000E+00  0.0000E+00  0.7500E-02  0.7500E-02
    -30.835  0.0000E+00  0.0000E+00  0.7500E-02  0.7500E-02
    -30.655  0.0000E+00  0.0000E+00  0.7500E-02  0.7500E-02
    -30.475  0.0000E+00  0.0000E+00  0.7500E-02  0.7500E-02
    -30.296  0.0000E+00  0.0000E+00  0.7500E-02  0.7500E-02
    -30.116  0.0000E+00  0.0000E+00  0.7500E-02  0.7500E-02
    -29.936  0.0000E+00  0.0000E+00  0.7500E-02  0.7500E-02
    -29.756  0.0000E+00  0.0000E+00  0.7500E-02  0.7500E-02
    -29.577  0.0000E+00  0.0000E+00  0.7500E-02  0.7500E-02
    -29.397  0.0000E+00  0.0000E+00  0.7500E-02  0.7500E-02
    -29.217  0.0000E+00  0.0000E+00  0.7500E-02  0.7500E-02
    -29.038  0.0000E+00  0.0000E+00  0.7500E-02  0.7500E-02
    -28.858  0.0000E+00  0.0000E+00  0.7500E-02  0.7500E-02
    -28.678  0.0000E+00  0.0000E+00  0.7500E-02  0.7500E-02
    -28.499  0.0000E+00  0.0000E+00  0.7500E-02  0.7500E-02
    -28.319  0.0000E+00  0.0000E+00  0.7500E-02  0.7500E-02
    -28.139  0.0000E+00  0.0000E+00  0.7500E-02  0.7500E-02
    -27.960  0.0000E+00  0.0000E+00  0.7500E-02  0.7500E-02
    -27.780  0.0000E+00  0.0000E+00  0.7500E-02  0.7500E-02
    -27.600  0.0000E+00  0.0000E+00  0.7500E-02  0.7500E-02
    -27.421  0.0000E+00  0.0000E+00  0.7500E-02  0.7500E-02
    -27.241  0.0000E+00  0.0000E+00  0.7500E-02  0.7500E-02
    -27.061  0.0000E+00  0.0000E+00  0.7500E-02  0.7500E-02
    -26.882  0.0000E+00  0.0000E+00  0.7500E-02  0.7500E-02
    -26.702  0.0000E+00  0.0000E+00  0.7500E-02  0.7500E-02
    -26.522  0.0000E+00  0.0000E+00  0.7500E-02  0.7500E-02
    -26.342  0.0000E+00  0.0000E+00  0.7500E-02  0.7500E-02
    -26.163  0.0000E+00  0.0000E+00  0.7500E-02  0.7500E-02
    -25.983  0.0000E+00  0.0000E+00  0.7500E-02  0.7500E-02
    -25.803  0.0000E+00  0.0000E+00  0.7500E-02  0.7500E-02
    -25.624  0.0000E+00  0.0000E+00  0.7500E-02  0.7500E-02
    -25.444  0.0000E+00  0.0000E+00  0.7500E-02  0.7500E-02
    -25.264  0.0000E+00  0.0000E+00  0.7500E-02  0.7500E-02
    -25.085  0.0000E+00  0.0000E+00  0.7500E-02  0.7500E-02
    -24.905  0.0000E+00  0.0000E+00  0.7500E-02  0.7500E-02
    -24.725  0.0000E+00  0.0000E+00  0.7500E-02  0.7500E-02
    -24.546  0.2108E-10  0.1389E-10  0.7500E-02  0.7500E-02
    -24.366  0.4884E-05  0.3800E-05  0.7501E-02  0.7501E-02
    -24.186  0.2754E-02  0.2499E-02  0.7996E-02  0.7950E-02
    -24.007  0.1053E-01  0.1069E-01  0.9887E-02  0.9870E-02
    -23.827  0.6285E-03  0.7240E-03  0.1000E-01  0.1000E-01
    -23.647  0.1593E-06  0.2152E-06  0.1000E-01  0.1000E-01
    -23.467  0.8608E-13  0.1376E-12  0.1000E-01  0.1000E-01
    -23.288  0.0000E+00  0.0000E+00  0.1000E-01  0.1000E-01
    -23.108  0.0000E+00  0.0000E+00  0.1000E-01  0.1000E-01
    -22.928  0.0000E+00  0.0000E+00  0.1000E-01  0.1000E-01
    -22.749  0.0000E+00  0.0000E+00  0.1000E-01  0.1000E-01
    -22.569  0.0000E+00  0.0000E+00  0.1000E-01  0.1000E-01
    -22.389  0.0000E+00  0.0000E+00  0.1000E-01  0.1000E-01
    -22.210  0.0000E+00  0.0000E+00  0.1000E-01  0.1000E-01
    -22.030  0.1390E-14  0.1004E-14  0.1000E-01  0.1000E-01
    -21.850  0.7605E-08  0.6089E-08  0.1000E-01  0.1000E-01
    -21.671  0.9682E-04  0.8560E-04  0.1002E-01  0.1002E-01
    -21.491  0.6005E-02  0.5765E-02  0.1110E-01  0.1105E-01
    -21.311  0.1270E-01  0.1276E-01  0.1338E-01  0.1334E-01
    -21.132  0.1233E-01  0.1201E-01  0.1559E-01  0.1550E-01
    -20.952  0.1696E-01  0.1699E-01  0.1864E-01  0.1855E-01
    -20.772  0.1090E-01  0.1112E-01  0.2060E-01  0.2055E-01
    -20.592  0.1200E-01  0.1185E-01  0.2276E-01  0.2268E-01
    -20.413  0.1761E-01  0.1746E-01  0.2592E-01  0.2582E-01
    -20.233  0.1063E-01  0.1091E-01  0.2783E-01  0.2778E-01
    -20.053  0.9461E-02  0.9172E-02  0.2953E-01  0.2943E-01
    -19.874  0.1750E-01  0.1753E-01  0.3268E-01  0.3258E-01
    -19.694  0.1409E-01  0.1415E-01  0.3521E-01  0.3512E-01
    -19.514  0.1506E-01  0.1502E-01  0.3791E-01  0.3782E-01
    -19.335  0.1105E-01  0.1087E-01  0.3990E-01  0.3977E-01
    -19.155  0.1033E-01  0.1032E-01  0.4176E-01  0.4163E-01
    -18.975  0.1864E-01  0.1844E-01  0.4511E-01  0.4494E-01
    -18.796  0.1535E-01  0.1576E-01  0.4786E-01  0.4777E-01
    -18.616  0.1100E-01  0.1125E-01  0.4984E-01  0.4979E-01
    -18.436  0.1507E-01  0.1456E-01  0.5255E-01  0.5241E-01
    -18.257  0.1540E-01  0.1503E-01  0.5532E-01  0.5511E-01
    -18.077  0.1613E-01  0.1652E-01  0.5821E-01  0.5808E-01
    -17.897  0.1004E-01  0.1018E-01  0.6002E-01  0.5991E-01
    -17.718  0.1455E-01  0.1456E-01  0.6263E-01  0.6252E-01
    -17.538  0.1671E-01  0.1650E-01  0.6563E-01  0.6549E-01
    -17.358  0.1426E-01  0.1452E-01  0.6820E-01  0.6810E-01
    -17.178  0.1581E-01  0.1544E-01  0.7104E-01  0.7087E-01
    -16.999  0.1554E-01  0.1580E-01  0.7383E-01  0.7371E-01
    -16.819  0.1622E-01  0.1576E-01  0.7674E-01  0.7654E-01
    -16.639  0.2139E-01  0.2191E-01  0.8059E-01  0.8048E-01
    -16.460  0.9878E-02  0.9553E-02  0.8236E-01  0.8220E-01
    -16.280  0.1222E-01  0.1266E-01  0.8456E-01  0.8447E-01
    -16.100  0.1396E-01  0.1356E-01  0.8707E-01  0.8691E-01
    -15.921  0.1541E-01  0.1543E-01  0.8983E-01  0.8968E-01
    -15.741  0.1122E-01  0.1153E-01  0.9185E-01  0.9175E-01
    -15.561  0.7836E-02  0.7444E-02  0.9326E-01  0.9309E-01
    -15.382  0.9764E-02  0.9902E-02  0.9501E-01  0.9487E-01
    -15.202  0.1392E-01  0.1367E-01  0.9751E-01  0.9732E-01
    -15.022  0.1283E-01  0.1317E-01  0.9982E-01  0.9969E-01
    -14.843  0.1867E-01  0.1850E-01  0.1032E+00  0.1030E+00
    -14.663  0.1600E-01  0.1603E-01  0.1060E+00  0.1059E+00
    -14.483  0.1666E-01  0.1686E-01  0.1090E+00  0.1089E+00
    -14.303  0.1455E-01  0.1448E-01  0.1117E+00  0.1115E+00
    -14.124  0.1327E-01  0.1350E-01  0.1140E+00  0.1140E+00
    -13.944  0.1495E-01  0.1460E-01  0.1167E+00  0.1166E+00
    -13.764  0.1998E-01  0.1977E-01  0.1203E+00  0.1201E+00
    -13.585  0.1157E-01  0.1196E-01  0.1224E+00  0.1223E+00
    -13.405  0.1489E-01  0.1456E-01  0.1251E+00  0.1249E+00
    -13.225  0.1357E-01  0.1370E-01  0.1275E+00  0.1274E+00
    -13.046  0.1284E-01  0.1324E-01  0.1298E+00  0.1297E+00
    -12.866  0.1315E-01  0.1284E-01  0.1322E+00  0.1320E+00
    -12.686  0.1792E-01  0.1783E-01  0.1354E+00  0.1352E+00
    -12.507  0.1664E-01  0.1649E-01  0.1384E+00  0.1382E+00
    -12.327  0.1211E-01  0.1295E-01  0.1406E+00  0.1405E+00
    -12.147  0.5507E-02  0.5455E-02  0.1416E+00  0.1415E+00
    -11.968  0.1473E-01  0.1394E-01  0.1442E+00  0.1440E+00
    -11.788  0.2885E-01  0.2898E-01  0.1494E+00  0.1492E+00
    -11.608  0.2089E-01  0.2086E-01  0.1531E+00  0.1530E+00
    -11.429  0.1764E-01  0.1792E-01  0.1563E+00  0.1562E+00
    -11.249  0.5652E-02  0.5972E-02  0.1573E+00  0.1573E+00
    -11.069  0.1856E-01  0.1797E-01  0.1607E+00  0.1605E+00
    -10.889  0.2077E-01  0.2109E-01  0.1644E+00  0.1643E+00
    -10.710  0.1377E-01  0.1395E-01  0.1669E+00  0.1668E+00
    -10.530  0.1628E-01  0.1579E-01  0.1698E+00  0.1696E+00
    -10.350  0.2915E-01  0.2884E-01  0.1750E+00  0.1748E+00
    -10.171  0.2274E-01  0.2343E-01  0.1791E+00  0.1790E+00
     -9.991  0.2562E-01  0.2531E-01  0.1837E+00  0.1836E+00
     -9.811  0.2172E-01  0.2188E-01  0.1876E+00  0.1875E+00
     -9.632  0.2232E-01  0.2199E-01  0.1916E+00  0.1915E+00
     -9.452  0.3208E-01  0.3223E-01  0.1974E+00  0.1972E+00
     -9.272  0.2928E-01  0.2946E-01  0.2027E+00  0.2025E+00
     -9.093  0.2654E-01  0.2619E-01  0.2074E+00  0.2072E+00
     -8.913  0.3870E-01  0.3879E-01  0.2144E+00  0.2142E+00
     -8.733  0.3568E-01  0.3561E-01  0.2208E+00  0.2206E+00
     -8.554  0.4531E-01  0.4456E-01  0.2289E+00  0.2286E+00
     -8.374  0.4889E-01  0.4948E-01  0.2377E+00  0.2375E+00
     -8.194  0.3480E-01  0.3533E-01  0.2440E+00  0.2439E+00
     -8.014  0.2841E-01  0.2767E-01  0.2491E+00  0.2488E+00
     -7.835  0.3183E-01  0.3247E-01  0.2548E+00  0.2547E+00
     -7.655  0.2829E-01  0.2808E-01  0.2599E+00  0.2597E+00
     -7.475  0.3368E-01  0.3366E-01  0.2659E+00  0.2658E+00
     -7.296  0.3381E-01  0.3374E-01  0.2720E+00  0.2718E+00
     -7.116  0.3062E-01  0.3140E-01  0.2775E+00  0.2775E+00
     -6.936  0.3186E-01  0.3175E-01  0.2832E+00  0.2832E+00
     -6.757  0.2227E-01  0.2191E-01  0.2872E+00  0.2871E+00
     -6.577  0.2033E-01  0.2097E-01  0.2909E+00  0.2909E+00
     -6.397  0.1976E-01  0.2055E-01  0.2944E+00  0.2946E+00
     -6.218  0.3394E-01  0.3426E-01  0.3005E+00  0.3007E+00
     -6.038  0.3145E-01  0.3013E-01  0.3062E+00  0.3061E+00
     -5.858  0.3009E-01  0.2993E-01  0.3116E+00  0.3115E+00
     -5.679  0.2217E-01  0.2457E-01  0.3156E+00  0.3159E+00
     -5.499  0.1634E-01  0.1523E-01  0.3185E+00  0.3187E+00
     -5.319  0.1898E-01  0.1920E-01  0.3219E+00  0.3221E+00
     -5.140  0.1651E-01  0.1758E-01  0.3249E+00  0.3253E+00
     -4.960  0.2085E-01  0.2870E-01  0.3286E+00  0.3304E+00
     -4.780  0.3123E-01  0.2845E-01  0.3343E+00  0.3355E+00
     -4.600  0.3952E-01  0.3659E-01  0.3414E+00  0.3421E+00
     -4.421  0.1908E-01  0.1513E-01  0.3448E+00  0.3448E+00
     -4.241  0.3528E-02  0.4797E-02  0.3454E+00  0.3457E+00
     -4.061  0.9192E-02  0.1268E-01  0.3471E+00  0.3480E+00
     -3.882  0.1623E-01  0.2751E-01  0.3500E+00  0.3529E+00
     -3.702  0.1491E-01  0.1308E-01  0.3527E+00  0.3553E+00
     -3.522  0.1614E-01  0.7929E-02  0.3556E+00  0.3567E+00
     -3.343  0.1605E-01  0.1643E-01  0.3585E+00  0.3596E+00
     -3.163  0.8615E-02  0.1719E-01  0.3600E+00  0.3627E+00
     -2.983  0.7380E-02  0.5930E-02  0.3613E+00  0.3638E+00
     -2.804  0.2868E-02  0.9628E-02  0.3618E+00  0.3655E+00
     -2.624  0.1840E-03  0.5946E-02  0.3619E+00  0.3666E+00
     -2.444  0.8759E-06  0.1519E-02  0.3619E+00  0.3669E+00
     -2.265  0.8448E-03  0.1428E-02  0.3620E+00  0.3671E+00
     -2.085  0.9453E-02  0.6338E-02  0.3637E+00  0.3683E+00
     -1.905  0.9438E-02  0.3017E-02  0.3654E+00  0.3688E+00
     -1.725  0.1178E-02  0.6698E-02  0.3656E+00  0.3700E+00
     -1.546  0.2714E-02  0.1727E-01  0.3661E+00  0.3731E+00
     -1.366  0.7839E-02  0.1588E-01  0.3675E+00  0.3760E+00
     -1.186  0.3304E-02  0.1021E-01  0.3681E+00  0.3778E+00
     -1.007  0.6568E-02  0.3177E-02  0.3693E+00  0.3784E+00
     -0.827  0.2700E-01  0.1429E-01  0.3742E+00  0.3809E+00
     -0.647  0.2744E-01  0.1865E-01  0.3791E+00  0.3843E+00
     -0.468  0.2770E-01  0.1505E-01  0.3841E+00  0.3870E+00
     -0.288  0.2205E-01  0.1612E-01  0.3880E+00  0.3899E+00
     -0.108  0.1701E-01  0.1366E-01  0.3911E+00  0.3923E+00
      0.071  0.1143E-01  0.9523E-02  0.3931E+00  0.3941E+00
      0.251  0.1916E-01  0.2298E-01  0.3966E+00  0.3982E+00
      0.431  0.2660E-01  0.1871E-01  0.4014E+00  0.4016E+00
      0.610  0.1743E-01  0.1527E-01  0.4045E+00  0.4043E+00
      0.790  0.6530E-02  0.1098E-01  0.4057E+00  0.4063E+00
      0.970  0.9741E-02  0.1723E-01  0.4074E+00  0.4094E+00
      1.149  0.2133E-01  0.1326E-01  0.4112E+00  0.4117E+00
      1.329  0.1549E-01  0.1807E-01  0.4140E+00  0.4150E+00
      1.509  0.1758E-01  0.1654E-01  0.4172E+00  0.4180E+00
      1.689  0.2388E-01  0.2457E-01  0.4215E+00  0.4224E+00
      1.868  0.2605E-01  0.2751E-01  0.4262E+00  0.4273E+00
      2.048  0.3245E-01  0.3295E-01  0.4320E+00  0.4332E+00
      2.228  0.2647E-01  0.2933E-01  0.4367E+00  0.4385E+00
      2.407  0.1799E-01  0.2142E-01  0.4400E+00  0.4424E+00
      2.587  0.3920E-01  0.3759E-01  0.4470E+00  0.4491E+00
      2.767  0.5293E-01  0.4779E-01  0.4565E+00  0.4577E+00
      2.946  0.1888E-01  0.1250E-01  0.4599E+00  0.4600E+00
      3.126  0.4178E-03  0.2582E-03  0.4600E+00  0.4600E+00
      3.306  0.7630E-07  0.3686E-07  0.4600E+00  0.4600E+00
      3.485  0.4081E-13  0.1360E-13  0.4600E+00  0.4600E+00
      3.665  0.0000E+00  0.0000E+00  0.4600E+00  0.4600E+00
      3.845  0.0000E+00  0.0000E+00  0.4600E+00  0.4600E+00
      4.024  0.0000E+00  0.0000E+00  0.4600E+00  0.4600E+00
      4.204  0.0000E+00  0.0000E+00  0.4600E+00  0.4600E+00
      4.384  0.0000E+00  0.0000E+00  0.4600E+00  0.4600E+00
      4.564  0.0000E+00  0.0000E+00  0.4600E+00  0.4600E+00
      4.743  0.0000E+00  0.0000E+00  0.4600E+00  0.4600E+00
      4.923  0.0000E+00  0.0000E+00  0.4600E+00  0.4600E+00
      5.103  0.0000E+00  0.0000E+00  0.4600E+00  0.4600E+00
      5.282  0.0000E+00  0.0000E+00  0.4600E+00  0.4600E+00
