       N       E                     dE             d eps       ncg     rms          rms(c)
DAV:   1     0.248238878755E+04    0.24824E+04   -0.10799E+05  3352   0.107E+03
DAV:   2    -0.227098571849E+03   -0.27095E+04   -0.25874E+04  4224   0.280E+02
DAV:   3    -0.687162234128E+03   -0.46006E+03   -0.45730E+03  3568   0.122E+02
DAV:   4    -0.704026662695E+03   -0.16864E+02   -0.16726E+02  3592   0.286E+01
DAV:   5    -0.704569786888E+03   -0.54312E+00   -0.54128E+00  4032   0.434E+00    0.469E+01
RMM:   6    -0.730606754639E+03   -0.26037E+02   -0.51665E+02  4039   0.387E+01    0.837E+01
RMM:   7    -0.662729424452E+03    0.67877E+02   -0.62017E+01  3068   0.136E+01    0.324E+01
RMM:   8    -0.662633145445E+03    0.96279E-01   -0.23276E+01  3098   0.709E+00    0.285E+01
RMM:   9    -0.647336295137E+03    0.15297E+02   -0.20098E+01  2973   0.842E+00    0.119E+01
RMM:  10    -0.647784096877E+03   -0.44780E+00   -0.34121E+00  2992   0.320E+00    0.147E+01
RMM:  11    -0.646659117921E+03    0.11250E+01   -0.43301E-01  3134   0.109E+00    0.795E+00
RMM:  12    -0.646523412995E+03    0.13570E+00   -0.16050E-01  2944   0.950E-01    0.647E+00
RMM:  13    -0.646638595806E+03   -0.11518E+00   -0.33485E-02  2982   0.364E-01    0.728E+00
RMM:  14    -0.646363280830E+03    0.27531E+00   -0.42851E-02  2965   0.497E-01    0.574E+00
RMM:  15    -0.646511366915E+03   -0.14809E+00   -0.34809E-02  2980   0.281E-01    0.734E+00
RMM:  16    -0.646448955217E+03    0.62412E-01   -0.53981E-02  2967   0.760E-01    0.672E+00
RMM:  17    -0.646351721655E+03    0.97234E-01   -0.44675E-02  2972   0.319E-01    0.282E+00
RMM:  18    -0.646461823832E+03   -0.11010E+00   -0.21861E-02  2944   0.411E-01    0.431E+00
RMM:  19    -0.646424534612E+03    0.37289E-01   -0.18509E-02  2969   0.402E-01    0.327E+00
RMM:  20    -0.646434511809E+03   -0.99772E-02   -0.29840E-03  3067   0.976E-02    0.289E+00
RMM:  21    -0.646447559567E+03   -0.13048E-01   -0.97864E-03  2959   0.176E-01    0.213E+00
RMM:  22    -0.646454886575E+03   -0.73270E-02   -0.11612E-02  2975   0.167E-01    0.172E+00
RMM:  23    -0.646484171757E+03   -0.29285E-01   -0.94402E-03  3008   0.190E-01    0.343E+00
RMM:  24    -0.646454686065E+03    0.29486E-01   -0.81927E-03  2955   0.251E-01    0.365E+00
RMM:  25    -0.646406366458E+03    0.48320E-01   -0.16862E-02  2976   0.191E-01    0.242E+00
RMM:  26    -0.646421892221E+03   -0.15526E-01   -0.51310E-03  2961   0.148E-01    0.191E+00
RMM:  27    -0.646439177376E+03   -0.17285E-01   -0.34876E-03  2968   0.109E-01    0.260E+00
RMM:  28    -0.646440468458E+03   -0.12911E-02   -0.26945E-03  2951   0.765E-02    0.390E+00
RMM:  29    -0.646412096712E+03    0.28372E-01   -0.50861E-03  2966   0.148E-01    0.391E+00
RMM:  30    -0.646421043475E+03   -0.89468E-02   -0.18551E-03  2958   0.523E-02    0.423E+00
RMM:  31    -0.646422528724E+03   -0.14852E-02   -0.41006E-04  2394   0.396E-02    0.441E+00
RMM:  32    -0.646418209851E+03    0.43189E-02   -0.10907E-03  2853   0.458E-02    0.440E+00
RMM:  33    -0.646420052648E+03   -0.18428E-02   -0.20452E-03  2945   0.519E-02    0.440E+00
RMM:  34    -0.646423727478E+03   -0.36748E-02   -0.97855E-04  2514   0.354E-02    0.438E+00
RMM:  35    -0.646426467471E+03   -0.27400E-02   -0.23035E-04  2139   0.218E-02    0.441E+00
RMM:  36    -0.646429638378E+03   -0.31709E-02   -0.32589E-04  2238   0.224E-02    0.441E+00
RMM:  37    -0.646432993880E+03   -0.33555E-02   -0.78618E-03  2944   0.129E-01    0.412E+00
RMM:  38    -0.646432656529E+03    0.33735E-03   -0.27017E-03  2943   0.612E-02    0.385E+00
RMM:  39    -0.646434814649E+03   -0.21581E-02   -0.69011E-04  2690   0.424E-02    0.356E+00
RMM:  40    -0.646439526606E+03   -0.47120E-02   -0.19265E-04  2310   0.375E-02    0.340E+00
RMM:  41    -0.646440357027E+03   -0.83042E-03   -0.30313E-04  2324   0.295E-02    0.316E+00
RMM:  42    -0.646442871165E+03   -0.25141E-02   -0.11567E-04  2033   0.281E-02    0.298E+00
RMM:  43    -0.646446168813E+03   -0.32976E-02   -0.10938E-04  2098   0.283E-02    0.285E+00
RMM:  44    -0.646446917634E+03   -0.74882E-03   -0.30622E-03  2945   0.855E-02    0.311E+00
RMM:  45    -0.646447318928E+03   -0.40129E-03   -0.33023E-03  2990   0.723E-02    0.343E+00
RMM:  46    -0.646447459364E+03   -0.14044E-03   -0.12224E-03  2880   0.451E-02    0.371E+00
RMM:  47    -0.646444096020E+03    0.33633E-02   -0.25525E-04  2186   0.311E-02    0.385E+00
RMM:  48    -0.646439236485E+03    0.48595E-02   -0.10247E-03  2929   0.526E-02    0.380E+00
RMM:  49    -0.646439288543E+03   -0.52058E-04   -0.28344E-04  2165   0.202E-02    0.367E+00
RMM:  50    -0.646436613315E+03    0.26752E-02   -0.17016E-04  2244   0.219E-02
   1 F= -.65283581E+03 E0= -.65280102E+03  d E =-.652836E+03  mag=     0.0522
       N       E                     dE             d eps       ncg     rms          rms(c)
DAV:   1    -0.646453362718E+03   -0.14074E-01   -0.64020E+00  3256   0.720E+00    0.328E+00
RMM:   2    -0.647534551528E+03   -0.10812E+01   -0.10365E+00  3032   0.186E+00    0.118E+01
RMM:   3    -0.646642118103E+03    0.89243E+00   -0.67184E-01  3142   0.124E+00    0.486E+00
RMM:   4    -0.646614205338E+03    0.27913E-01   -0.63408E-02  3145   0.533E-01    0.517E+00
RMM:   5    -0.646565601737E+03    0.48604E-01   -0.52445E-02  3004   0.323E-01    0.447E+00
RMM:   6    -0.646558745112E+03    0.68566E-02   -0.23745E-02  3092   0.197E-01    0.433E+00
RMM:   7    -0.646547815407E+03    0.10930E-01   -0.42727E-03  3191   0.794E-02    0.442E+00
RMM:   8    -0.646489260504E+03    0.58555E-01   -0.38225E-02  2987   0.341E-01    0.317E+00
RMM:   9    -0.646433602241E+03    0.55658E-01   -0.55307E-02  2986   0.347E-01    0.216E+00
RMM:  10    -0.646498108272E+03   -0.64506E-01   -0.31567E-02  3012   0.211E-01    0.191E+00
RMM:  11    -0.646507057233E+03   -0.89490E-02   -0.18910E-02  3065   0.166E-01    0.180E+00
RMM:  12    -0.646519505360E+03   -0.12448E-01   -0.67545E-03  3267   0.878E-02    0.181E+00
RMM:  13    -0.646538123520E+03   -0.18618E-01   -0.30851E-03  3085   0.834E-02    0.176E+00
RMM:  14    -0.646593731877E+03   -0.55608E-01   -0.26065E-02  3016   0.242E-01    0.162E+00
RMM:  15    -0.646712577953E+03   -0.11885E+00   -0.25715E-01  2978   0.730E-01    0.279E+00
RMM:  16    -0.646607522681E+03    0.10506E+00   -0.73935E-02  3002   0.521E-01    0.233E+00
RMM:  17    -0.646397711954E+03    0.20981E+00   -0.19723E-01  2977   0.643E-01    0.204E+00
RMM:  18    -0.646003470923E+03    0.39424E+00   -0.35222E-01  3043   0.816E-01    0.308E+00
RMM:  19    -0.645884921716E+03    0.11855E+00   -0.83126E-02  3282   0.344E-01    0.349E+00
RMM:  20    -0.645972409240E+03   -0.87488E-01   -0.90294E-03  3232   0.105E-01    0.336E+00
RMM:  21    -0.645450087467E+03    0.52232E+00   -0.10860E-01  2965   0.427E-01    0.419E+00
RMM:  22    -0.644944529283E+03    0.50556E+00   -0.10072E-01  3042   0.404E-01    0.479E+00
RMM:  23    -0.645153243584E+03   -0.20871E+00   -0.16264E-02  3162   0.180E-01    0.439E+00
RMM:  24    -0.645695663666E+03   -0.54242E+00   -0.97915E-02  2969   0.389E-01    0.353E+00
RMM:  25    -0.646656192370E+03   -0.96053E+00   -0.10509E+00  2966   0.114E+00    0.783E-01
RMM:  26    -0.646718722706E+03   -0.62530E-01   -0.28868E-01  3313   0.360E-01    0.160E+00
RMM:  27    -0.646705051256E+03    0.13671E-01   -0.22399E-02  3315   0.141E-01    0.180E+00
RMM:  28    -0.646745000369E+03   -0.39949E-01   -0.24956E-02  3053   0.176E-01    0.197E+00
RMM:  29    -0.646756148520E+03   -0.11148E-01   -0.13931E-02  3168   0.133E-01    0.190E+00
RMM:  30    -0.646829124611E+03   -0.72976E-01   -0.41250E-02  3049   0.279E-01    0.191E+00
RMM:  31    -0.646885186870E+03   -0.56062E-01   -0.36098E-02  3142   0.227E-01    0.201E+00
RMM:  32    -0.646905129679E+03   -0.19943E-01   -0.14982E-02  3339   0.133E-01    0.205E+00
RMM:  33    -0.646897260752E+03    0.78689E-02   -0.21942E-03  3010   0.596E-02    0.209E+00
RMM:  34    -0.646897815620E+03   -0.55487E-03   -0.78170E-04  2392   0.213E-02    0.212E+00
RMM:  35    -0.646871630994E+03    0.26185E-01   -0.23323E-03  2970   0.757E-02    0.215E+00
RMM:  36    -0.646849362394E+03    0.22269E-01   -0.14941E-03  2946   0.545E-02    0.219E+00
RMM:  37    -0.646843928994E+03    0.54334E-02   -0.62086E-04  2523   0.293E-02    0.217E+00
RMM:  38    -0.646835160292E+03    0.87687E-02   -0.45358E-04  2531   0.254E-02    0.217E+00
RMM:  39    -0.646835607894E+03   -0.44760E-03   -0.98466E-05  2081   0.142E-02    0.216E+00
RMM:  40    -0.646837329056E+03   -0.17212E-02   -0.32582E-04  2688   0.248E-02    0.217E+00
RMM:  41    -0.646830141900E+03    0.71872E-02   -0.21175E-04  2247   0.196E-02    0.219E+00
RMM:  42    -0.646848166383E+03   -0.18024E-01   -0.52724E-04  2705   0.378E-02    0.213E+00
RMM:  43    -0.646903328369E+03   -0.55162E-01   -0.70785E-03  2960   0.120E-01    0.198E+00
RMM:  44    -0.646996784597E+03   -0.93456E-01   -0.33925E-02  2995   0.256E-01    0.151E+00
RMM:  45    -0.647003039752E+03   -0.62552E-02   -0.10453E-02  3273   0.109E-01    0.148E+00
RMM:  46    -0.646999593676E+03    0.34461E-02   -0.12320E-03  2722   0.363E-02    0.151E+00
RMM:  47    -0.646981262168E+03    0.18332E-01   -0.12786E-03  2902   0.587E-02    0.170E+00
RMM:  48    -0.646982455054E+03   -0.11929E-02   -0.23576E-03  2963   0.689E-02    0.155E+00
RMM:  49    -0.646990969230E+03   -0.85142E-02   -0.67199E-04  2937   0.414E-02    0.145E+00
RMM:  50    -0.647003139089E+03   -0.12170E-01   -0.25213E-03  3008   0.755E-02
   2 F= -.65340364E+03 E0= -.65338456E+03  d E =-.567836E+00  mag=    -1.4766
       N       E                     dE             d eps       ncg     rms          rms(c)
DAV:   1    -0.647022612849E+03   -0.31644E-01   -0.16946E+00  3264   0.365E+00    0.174E+00
RMM:   2    -0.647086822761E+03   -0.64210E-01   -0.27427E-01  3014   0.907E-01    0.231E+00
RMM:   3    -0.647042598033E+03    0.44225E-01   -0.10566E-01  3128   0.493E-01    0.833E-01
RMM:   4    -0.647022122124E+03    0.20476E-01   -0.14916E-02  3160   0.189E-01    0.319E-01
RMM:   5    -0.647025155101E+03   -0.30330E-02   -0.67364E-03  3049   0.116E-01    0.160E-01
RMM:   6    -0.647039334754E+03   -0.14180E-01   -0.25184E-03  2992   0.570E-02    0.982E-02
RMM:   7    -0.647056561351E+03   -0.17227E-01   -0.25724E-03  2790   0.440E-02    0.403E-02
RMM:   8    -0.647065069914E+03   -0.85086E-02   -0.11282E-03  2301   0.252E-02    0.307E-02
RMM:   9    -0.647067575841E+03   -0.25059E-02   -0.18654E-04  2242   0.120E-02    0.297E-02
RMM:  10    -0.647069135006E+03   -0.15592E-02   -0.17914E-04  2192   0.126E-02    0.193E-02
RMM:  11    -0.647069507330E+03   -0.37232E-03   -0.20277E-05  1851   0.627E-03    0.128E-02
RMM:  12    -0.647069560690E+03   -0.53360E-04   -0.14896E-05  1538   0.437E-03    0.261E-03
RMM:  13    -0.647069781608E+03   -0.22092E-03   -0.20431E-05  1642   0.443E-03    0.593E-03
RMM:  14    -0.647069897321E+03   -0.11571E-03   -0.70230E-06  1195   0.277E-03    0.293E-03
RMM:  15    -0.647069967743E+03   -0.70421E-04   -0.64842E-06  1166   0.265E-03    0.180E-03
RMM:  16    -0.647069997961E+03   -0.30219E-04   -0.40307E-06  1074   0.231E-03    0.969E-04
RMM:  17    -0.647070018736E+03   -0.20774E-04   -0.11690E-06   853   0.171E-03    0.616E-04
RMM:  18    -0.647070035520E+03   -0.16784E-04   -0.98547E-07   852   0.167E-03    0.596E-04
RMM:  19    -0.647070038192E+03   -0.26719E-05   -0.33888E-07   680   0.149E-03
   3 F= -.65346991E+03 E0= -.65345194E+03  d E =-.634102E+00  mag=    -1.6493
       N       E                     dE             d eps       ncg     rms          rms(c)
DAV:   1    -0.647076039269E+03   -0.60037E-02   -0.19183E-01  3408   0.124E+00    0.171E-01
RMM:   2    -0.647077333802E+03   -0.12945E-02   -0.13068E-02  3012   0.232E-01    0.369E-01
RMM:   3    -0.647076028405E+03    0.13054E-02   -0.15959E-03  3208   0.713E-02    0.849E-02
RMM:   4    -0.647075804082E+03    0.22432E-03   -0.22747E-04  2843   0.280E-02    0.566E-02
RMM:   5    -0.647075710450E+03    0.93632E-04   -0.12349E-04  2644   0.217E-02    0.211E-02
RMM:   6    -0.647075897540E+03   -0.18709E-03   -0.19768E-05  1875   0.945E-03    0.790E-03
RMM:   7    -0.647076135431E+03   -0.23789E-03   -0.97158E-06  1796   0.521E-03    0.416E-03
RMM:   8    -0.647076262293E+03   -0.12686E-03   -0.53691E-06  1379   0.323E-03    0.174E-03
RMM:   9    -0.647076338605E+03   -0.76312E-04   -0.28361E-06  1186   0.236E-03    0.124E-03
RMM:  10    -0.647076367253E+03   -0.28647E-04   -0.12704E-06   979   0.191E-03    0.664E-04
RMM:  11    -0.647076374560E+03   -0.73076E-05   -0.11183E-06  1006   0.186E-03
   4 F= -.65347602E+03 E0= -.65345847E+03  d E =-.640207E+00  mag=    -1.6783
       N       E                     dE             d eps       ncg     rms          rms(c)
DAV:   1    -0.647080069946E+03   -0.37027E-02   -0.34199E-01  3240   0.165E+00    0.222E-01
RMM:   2    -0.647082361906E+03   -0.22920E-02   -0.22680E-02  3012   0.306E-01    0.475E-01
RMM:   3    -0.647080203892E+03    0.21580E-02   -0.26746E-03  3241   0.925E-02    0.113E-01
RMM:   4    -0.647079873322E+03    0.33057E-03   -0.38178E-04  2975   0.364E-02    0.758E-02
RMM:   5    -0.647079746081E+03    0.12724E-03   -0.21412E-04  2818   0.284E-02    0.280E-02
RMM:   6    -0.647080014023E+03   -0.26794E-03   -0.33367E-05  1969   0.121E-02    0.101E-02
RMM:   7    -0.647080346026E+03   -0.33200E-03   -0.14077E-05  1838   0.617E-03    0.519E-03
RMM:   8    -0.647080527252E+03   -0.18123E-03   -0.81001E-06  1656   0.384E-03    0.211E-03
RMM:   9    -0.647080622566E+03   -0.95314E-04   -0.37523E-06  1246   0.250E-03    0.149E-03
RMM:  10    -0.647080664195E+03   -0.41629E-04   -0.18167E-06  1064   0.197E-03    0.891E-04
RMM:  11    -0.647080678206E+03   -0.14010E-04   -0.13334E-06  1002   0.186E-03    0.404E-04
RMM:  12    -0.647080680532E+03   -0.23268E-05   -0.28489E-07   664   0.149E-03
   5 F= -.65348000E+03 E0= -.65346317E+03  d E =-.644190E+00  mag=    -1.7157
       N       E                     dE             d eps       ncg     rms          rms(c)
DAV:   1    -0.647080961176E+03   -0.28297E-03   -0.20618E-02  3392   0.405E-01    0.536E-02
RMM:   2    -0.647081054690E+03   -0.93514E-04   -0.13349E-03  3001   0.746E-02    0.113E-01
RMM:   3    -0.647080933472E+03    0.12122E-03   -0.15007E-04  2148   0.224E-02    0.273E-02
RMM:   4    -0.647080915328E+03    0.18144E-04   -0.22746E-05  1911   0.104E-02    0.181E-02
RMM:   5    -0.647080901620E+03    0.13708E-04   -0.14207E-05  1807   0.809E-03    0.666E-03
RMM:   6    -0.647080930365E+03   -0.28745E-04   -0.27160E-06  1702   0.427E-03    0.270E-03
RMM:   7    -0.647080964899E+03   -0.34534E-04   -0.11588E-06  1266   0.243E-03    0.129E-03
RMM:   8    -0.647080988380E+03   -0.23482E-04   -0.70970E-07   924   0.181E-03    0.686E-04
RMM:   9    -0.647080998416E+03   -0.10036E-04   -0.33004E-07   722   0.155E-03    0.341E-04
RMM:  10    -0.647081004538E+03   -0.61216E-05   -0.21766E-07   632   0.148E-03
   6 F= -.65348024E+03 E0= -.65346361E+03  d E =-.644432E+00  mag=    -1.7243
