 vasp.5.4.4.18Apr17-6-g9f103f2a35 (build Jan 14 2022 15:04:31) complex          
  
 executed on             LinuxIFC date 2023.01.23  17:52:23
 running on   48 total cores
 distrk:  each k-point on   48 cores,    1 groups
 distr:  one band on NCORES_PER_BAND=  12 cores,    4 groups


--------------------------------------------------------------------------------------------------------


 INCAR:
 POTCAR:    PAW_PBE C 08Apr2002                   
 POTCAR:    PAW_PBE N 08Apr2002                   
 POTCAR:    PAW_PBE C 08Apr2002                   
 POTCAR:    PAW_PBE Cr_pv 02Aug2007               
 POTCAR:    PAW_PBE C 08Apr2002                   
   SHA256 =  253f7b50bb8d59471dbedb8285d89021f4a42ed1a2c5d38a03a736e69125dd95 C/
   COPYR  = (c) Copyright 08Apr2002 Georg Kresse                                
   COPYR  = This file is part of the software VASP. Any use, copying, and all ot
   COPYR  = If you do not have a valid VASP license, you may not use, copy or di
   VRHFIN =C: s2p2                                                              
   LEXCH  = PE                                                                  
   EATOM  =   147.1560 eV,   10.8157 Ry                                         
                                                                                
   TITEL  = PAW_PBE C 08Apr2002                                                 
   LULTRA =        F    use ultrasoft PP ?                                      
   IUNSCR =        1    unscreen: 0-lin 1-nonlin 2-no                           
   RPACOR =    1.200    partial core radius                                     
   POMASS =   12.011; ZVAL   =    4.000    mass and valenz                      
   RCORE  =    1.500    outmost cutoff radius                                   
   RWIGS  =    1.630; RWIGS  =    0.863    wigner-seitz radius (au A)           
   ENMAX  =  400.000; ENMIN  =  300.000 eV                                      
   ICORE  =        2    local potential                                         
   LCOR   =        T    correct aug charges                                     
   LPAW   =        T    paw PP                                                  
   EAUG   =  644.873                                                            
   DEXC   =    0.000                                                            
   RMAX   =    1.529    core radius for proj-oper                               
   RAUG   =    1.300    factor for augmentation sphere                          
   RDEP   =    1.501    radius for radial grids                                 
   RDEPT  =    1.300    core radius for aug-charge                              
                                                                                
   Atomic configuration                                                         
    4 entries                                                                   
     n  l   j            E        occ.                                          
     1  0  0.50      -273.3789   2.0000                                         
     2  0  0.50       -13.7508   2.0000                                         
     2  1  0.50        -5.2854   2.0000                                         
     3  2  1.50        -5.4423   0.0000                                         
   Description                                                                  
     l       E           TYP  RCUT    TYP  RCUT                                 
     0    -13.7508458     23  1.200                                             
     0     -8.2022199     23  1.200                                             
     1     -5.2854383     23  1.500                                             
     1     34.0145650     23  1.500                                             
     2     -5.4423304      7  1.500                                             
  local pseudopotential read in
  partial core-charges read in
  partial kinetic energy density read in
  atomic valenz-charges read in
  non local Contribution for L=           0  read in
    real space projection operators read in
  non local Contribution for L=           0  read in
    real space projection operators read in
  non local Contribution for L=           1  read in
    real space projection operators read in
  non local Contribution for L=           1  read in
    real space projection operators read in
    PAW grid and wavefunctions read in
 
   number of l-projection  operators is LMAX  =           4
   number of lm-projection operators is LMMAX =           8
 
 POTCAR:    PAW_PBE N 08Apr2002                   
   SHA256 =  e053789ff3a61a86a1b75d8a110fcc91f86041011e7b0817c7c99e4e8a6349d7 N/
   COPYR  = (c) Copyright 08Apr2002 Georg Kresse                                
   COPYR  = This file is part of the software VASP. Any use, copying, and all ot
   COPYR  = If you do not have a valid VASP license, you may not use, copy or di
   VRHFIN =N: s2p3                                                              
   LEXCH  = PE                                                                  
   EATOM  =   264.5486 eV,   19.4438 Ry                                         
                                                                                
   TITEL  = PAW_PBE N 08Apr2002                                                 
   LULTRA =        F    use ultrasoft PP ?                                      
   IUNSCR =        1    unscreen: 0-lin 1-nonlin 2-no                           
   RPACOR =    1.200    partial core radius                                     
   POMASS =   14.001; ZVAL   =    5.000    mass and valenz                      
   RCORE  =    1.500    outmost cutoff radius                                   
   RWIGS  =    1.400; RWIGS  =    0.741    wigner-seitz radius (au A)           
   ENMAX  =  400.000; ENMIN  =  300.000 eV                                      
   ICORE  =        2    local potential                                         
   LCOR   =        T    correct aug charges                                     
   LPAW   =        T    paw PP                                                  
   EAUG   =  627.112                                                            
   DEXC   =    0.000                                                            
   RMAX   =    1.529    core radius for proj-oper                               
   RAUG   =    1.300    factor for augmentation sphere                          
   RDEP   =    1.514    radius for radial grids                                 
   RDEPT  =    1.338    core radius for aug-charge                              
                                                                                
   Atomic configuration                                                         
    4 entries                                                                   
     n  l   j            E        occ.                                          
     1  0  0.50      -384.7179   2.0000                                         
     2  0  0.50       -18.5828   2.0000                                         
     2  1  0.50        -7.0898   3.0000                                         
     3  2  1.50        -6.8029   0.0000                                         
   Description                                                                  
     l       E           TYP  RCUT    TYP  RCUT                                 
     0    -18.5828119     23  1.200                                             
     0    -13.5018863     23  1.200                                             
     1     -7.0897853     23  1.500                                             
     1      9.5240782     23  1.500                                             
     2     -6.8029130      7  1.500                                             
  local pseudopotential read in
  partial core-charges read in
  partial kinetic energy density read in
  atomic valenz-charges read in
  non local Contribution for L=           0  read in
    real space projection operators read in
  non local Contribution for L=           0  read in
    real space projection operators read in
  non local Contribution for L=           1  read in
    real space projection operators read in
  non local Contribution for L=           1  read in
    real space projection operators read in
    PAW grid and wavefunctions read in
 
   number of l-projection  operators is LMAX  =           4
   number of lm-projection operators is LMMAX =           8
 
 POTCAR:    PAW_PBE C 08Apr2002                   
   SHA256 =  253f7b50bb8d59471dbedb8285d89021f4a42ed1a2c5d38a03a736e69125dd95 C/
   COPYR  = (c) Copyright 08Apr2002 Georg Kresse                                
   COPYR  = This file is part of the software VASP. Any use, copying, and all ot
   COPYR  = If you do not have a valid VASP license, you may not use, copy or di
   VRHFIN =C: s2p2                                                              
   LEXCH  = PE                                                                  
   EATOM  =   147.1560 eV,   10.8157 Ry                                         
                                                                                
   TITEL  = PAW_PBE C 08Apr2002                                                 
   LULTRA =        F    use ultrasoft PP ?                                      
   IUNSCR =        1    unscreen: 0-lin 1-nonlin 2-no                           
   RPACOR =    1.200    partial core radius                                     
   POMASS =   12.011; ZVAL   =    4.000    mass and valenz                      
   RCORE  =    1.500    outmost cutoff radius                                   
   RWIGS  =    1.630; RWIGS  =    0.863    wigner-seitz radius (au A)           
   ENMAX  =  400.000; ENMIN  =  300.000 eV                                      
   ICORE  =        2    local potential                                         
   LCOR   =        T    correct aug charges                                     
   LPAW   =        T    paw PP                                                  
   EAUG   =  644.873                                                            
   DEXC   =    0.000                                                            
   RMAX   =    1.529    core radius for proj-oper                               
   RAUG   =    1.300    factor for augmentation sphere                          
   RDEP   =    1.501    radius for radial grids                                 
   RDEPT  =    1.300    core radius for aug-charge                              
                                                                                
   Atomic configuration                                                         
    4 entries                                                                   
     n  l   j            E        occ.                                          
     1  0  0.50      -273.3789   2.0000                                         
     2  0  0.50       -13.7508   2.0000                                         
     2  1  0.50        -5.2854   2.0000                                         
     3  2  1.50        -5.4423   0.0000                                         
   Description                                                                  
     l       E           TYP  RCUT    TYP  RCUT                                 
     0    -13.7508458     23  1.200                                             
     0     -8.2022199     23  1.200                                             
     1     -5.2854383     23  1.500                                             
     1     34.0145650     23  1.500                                             
     2     -5.4423304      7  1.500                                             
  local pseudopotential read in
  partial core-charges read in
  partial kinetic energy density read in
  atomic valenz-charges read in
  non local Contribution for L=           0  read in
    real space projection operators read in
  non local Contribution for L=           0  read in
    real space projection operators read in
  non local Contribution for L=           1  read in
    real space projection operators read in
  non local Contribution for L=           1  read in
    real space projection operators read in
    PAW grid and wavefunctions read in
 
   number of l-projection  operators is LMAX  =           4
   number of lm-projection operators is LMMAX =           8
 
 POTCAR:    PAW_PBE Cr_pv 02Aug2007               
   SHA256 =  c9a7df34d3cdbacf1090e328ef39c0b420964e11c23f63548d1ac9dd218cdba0 Cr
   COPYR  = (c) Copyright 02Aug2007 Georg Kresse                                
   COPYR  = This file is part of the software VASP. Any use, copying, and all ot
   COPYR  = If you do not have a valid VASP license, you may not use, copy or di
   VRHFIN =Cr : p6d5s1                                                          
   LEXCH  = PE                                                                  
   EATOM  =  1647.9177 eV,  121.1185 Ry                                         
                                                                                
   TITEL  = PAW_PBE Cr_pv 02Aug2007                                             
   LULTRA =        F    use ultrasoft PP ?                                      
   IUNSCR =        1    unscreen: 0-lin 1-nonlin 2-no                           
   RPACOR =    2.080    partial core radius                                     
   POMASS =   51.996; ZVAL   =   12.000    mass and valenz                      
   RCORE  =    2.300    outmost cutoff radius                                   
   RWIGS  =    2.500; RWIGS  =    1.323    wigner-seitz radius (au A)           
   ENMAX  =  265.681; ENMIN  =  199.261 eV                                      
   ICORE  =        3    local potential                                         
   LCOR   =        T    correct aug charges                                     
   LPAW   =        T    paw PP                                                  
   EAUG   =  519.424                                                            
   DEXC   =    0.000                                                            
   RMAX   =    2.356    core radius for proj-oper                               
   RAUG   =    1.300    factor for augmentation sphere                          
   RDEP   =    2.447    radius for radial grids                                 
   RDEPT  =    1.882    core radius for aug-charge                              
                                                                                
   Atomic configuration                                                         
    8 entries                                                                   
     n  l   j            E        occ.                                          
     1  0  0.50     -5880.4963   2.0000                                         
     2  0  0.50      -667.0865   2.0000                                         
     2  1  1.50      -560.6250   6.0000                                         
     3  0  0.50       -73.9860   2.0000                                         
     3  1  1.50       -45.4378   6.0000                                         
     3  2  2.50        -2.9137   5.0000                                         
     4  0  0.50        -4.0071   1.0000                                         
     4  3  2.50        -1.3606   0.0000                                         
   Description                                                                  
     l       E           TYP  RCUT    TYP  RCUT                                 
     1    -45.4377911     23  2.000                                             
     1      1.3605826     23  2.000                                             
     2     -2.9136672     23  2.300                                             
     2     -4.2742498     23  2.300                                             
     0     -4.0071320     23  2.300                                             
     0      9.4498803     23  2.300                                             
     3      2.7211652     23  2.300                                             
  local pseudopotential read in
  partial core-charges read in
  partial kinetic energy density read in
  atomic valenz-charges read in
  non local Contribution for L=           1  read in
    real space projection operators read in
  non local Contribution for L=           1  read in
    real space projection operators read in
  non local Contribution for L=           2  read in
    real space projection operators read in
  non local Contribution for L=           2  read in
    real space projection operators read in
  non local Contribution for L=           0  read in
    real space projection operators read in
  non local Contribution for L=           0  read in
    real space projection operators read in
    PAW grid and wavefunctions read in
 
   number of l-projection  operators is LMAX  =           6
   number of lm-projection operators is LMMAX =          18
 
 Optimization of the real space projectors (new method)

 maximal supplied QI-value         = 25.13
 optimisation between [QCUT,QGAM] = [ 10.56, 21.36] = [ 31.20,127.80] Ry 
 Optimized for a Real-space Cutoff    1.32 Angstroem

   l    n(q)    QCUT    max X(q) W(low)/X(q) W(high)/X(q)  e(spline) 
   0      8    10.556   115.676    0.17E-03    0.39E-03    0.26E-06
   0      8    10.556    87.132    0.17E-03    0.39E-03    0.26E-06
   1      8    10.556     4.429    0.24E-03    0.31E-03    0.16E-06
   1      8    10.556     2.733    0.17E-03    0.22E-03    0.19E-06
 Optimization of the real space projectors (new method)

 maximal supplied QI-value         = 25.13
 optimisation between [QCUT,QGAM] = [ 10.56, 21.36] = [ 31.20,127.80] Ry 
 Optimized for a Real-space Cutoff    1.40 Angstroem

   l    n(q)    QCUT    max X(q) W(low)/X(q) W(high)/X(q)  e(spline) 
   0      9    10.556    79.467    0.20E-03    0.22E-03    0.30E-06
   0      9    10.556    66.151    0.20E-03    0.22E-03    0.30E-06
   1      8    10.556    12.181    0.10E-03    0.78E-03    0.19E-05
   1      8    10.556     8.434    0.11E-03    0.81E-03    0.19E-05
 Optimization of the real space projectors (new method)

 maximal supplied QI-value         = 25.13
 optimisation between [QCUT,QGAM] = [ 10.56, 21.36] = [ 31.20,127.80] Ry 
 Optimized for a Real-space Cutoff    1.32 Angstroem

   l    n(q)    QCUT    max X(q) W(low)/X(q) W(high)/X(q)  e(spline) 
   0      8    10.556   115.676    0.17E-03    0.39E-03    0.26E-06
   0      8    10.556    87.132    0.17E-03    0.39E-03    0.26E-06
   1      8    10.556     4.429    0.24E-03    0.31E-03    0.16E-06
   1      8    10.556     2.733    0.17E-03    0.22E-03    0.19E-06
 Optimization of the real space projectors (new method)

 maximal supplied QI-value         = 16.25
 optimisation between [QCUT,QGAM] = [ 10.73, 21.45] = [ 32.22,128.87] Ry 
 Optimized for a Real-space Cutoff    1.53 Angstroem

   l    n(q)    QCUT    max X(q) W(low)/X(q) W(high)/X(q)  e(spline) 
   1      9    10.726     3.262    0.64E-04    0.35E-04    0.11E-06
   1      9    10.726     5.741    0.13E-03    0.48E-04    0.19E-06
   2      9    10.726    60.438    0.12E-03    0.29E-04    0.13E-06
   2      9    10.726    55.380    0.12E-03    0.29E-04    0.13E-06
   0     10    10.726    80.273    0.43E-04    0.74E-05    0.81E-07
   0     10    10.726    36.654    0.34E-04    0.61E-05    0.73E-07
  PAW_PBE C 08Apr2002                   :
 energy of atom  1       EATOM= -147.1560
 kinetic energy error for atom=    0.0132 (will be added to EATOM!!)
  PAW_PBE N 08Apr2002                   :
 energy of atom  2       EATOM= -264.5486
 kinetic energy error for atom=    0.0298 (will be added to EATOM!!)
  PAW_PBE C 08Apr2002                   :
 energy of atom  3       EATOM= -147.1560
 kinetic energy error for atom=    0.0132 (will be added to EATOM!!)
  PAW_PBE Cr_pv 02Aug2007               :
 energy of atom  4       EATOM=-1647.9177
 kinetic energy error for atom=    0.0134 (will be added to EATOM!!)
 
 
 POSCAR: POSCAR-clean                            
  positions in direct lattice
  velocities in cartesian coordinates
 exchange correlation table for  LEXCH =        8
   RHO(1)=    0.500       N(1)  =     2000
   RHO(2)=  100.500       N(2)  =     4000

 VTST: version 3.2, (02/03/18)

 CHAIN: initializing optimizer
 
 OPT: Using VASP Conjugate-Gradient optimizer
 CHAIN: Read ICHAIN            0
 
 POSCAR: POSCAR-clean                            
  positions in direct lattice
  velocities in cartesian coordinates
 


--------------------------------------------------------------------------------------------------------


 ion  position               nearest neighbor table
   1  0.001  0.001  0.498-   2 1.41  60 1.42  70 1.43
   2  0.056  0.111  0.498-  13 1.41   1 1.41  15 1.42
   3  0.168  0.002  0.498-   4 1.42  62 1.42  60 1.43
   4  0.223  0.113  0.498-   3 1.42  15 1.42  17 1.44
   5  0.334  0.002  0.498-   6 1.42  62 1.43  64 1.43
   6  0.390  0.113  0.498-   5 1.42  19 1.43  17 1.44
   7  0.500  1.000  0.498-   8 1.42  64 1.42  66 1.43
   8  0.556  0.111  0.498-   7 1.42  21 1.43  19 1.44
   9  0.666  0.998  0.498-  10 1.42  66 1.43  68 1.43
  10  0.722  0.109  0.498-   9 1.42  23 1.43  21 1.43
  11  0.832  0.998  0.498-  12 1.42  70 1.42  68 1.43
  12  0.889  0.109  0.498-  11 1.42  13 1.43  23 1.43
  13  1.000  0.165  0.498-   2 1.41  14 1.42  12 1.43
  14  0.055  0.276  0.498-  13 1.42  27 1.42  25 1.43
  15  0.166  0.168  0.498-   2 1.42  16 1.42   4 1.42
  16  0.222  0.279  0.500-  27 1.42  15 1.42  29 1.45
  17  0.335  0.170  0.499-  18 1.42   6 1.44   4 1.44
  18  0.391  0.281  0.503-  17 1.42  29 1.43  31 1.44
  19  0.501  0.168  0.498-  20 1.42   6 1.43   8 1.44
  20  0.557  0.280  0.500-  19 1.42  33 1.42  31 1.44
  21  0.667  0.166  0.498-  22 1.42   8 1.43  10 1.43
  22  0.723  0.277  0.498-  21 1.42  35 1.42  33 1.43
  23  0.833  0.165  0.498-  24 1.42  10 1.43  12 1.43
  24  0.888  0.276  0.498-  23 1.42  25 1.42  35 1.42
  25  0.999  0.332  0.498-  24 1.42  26 1.43  14 1.43
  26  0.054  0.443  0.499-  39 1.41  37 1.42  25 1.43
  27  0.165  0.333  0.500-  28 1.41  16 1.42  14 1.42
  28  0.219  0.444  0.502-  41 1.41  27 1.41  39 1.42
  29  0.335  0.337  0.503-  30 1.42  18 1.43  16 1.45
  30  0.387  0.448  0.510-  41 1.40  29 1.42  71 2.01
  31  0.503  0.338  0.504-  32 1.42  18 1.44  20 1.44
  32  0.561  0.449  0.510-  43 1.41  31 1.42  71 2.00
  33  0.668  0.333  0.500-  34 1.42  20 1.42  22 1.43
  34  0.725  0.444  0.501-  43 1.41  33 1.42  45 1.42
  35  0.833  0.332  0.498-  22 1.42  36 1.42  24 1.42
  36  0.890  0.444  0.498-  45 1.42  37 1.42  35 1.42
  37  0.000  0.500  0.498-  36 1.42  26 1.42  38 1.43
  38  0.056  0.611  0.498-  49 1.42  47 1.42  37 1.43
  39  0.164  0.500  0.500-  26 1.41  28 1.42  40 1.42
  40  0.220  0.611  0.500-  49 1.42  51 1.42  39 1.42
  41  0.329  0.499  0.505-  30 1.40  28 1.41  42 1.44
  42  0.385  0.612  0.505-  53 1.41  51 1.41  41 1.44
  43  0.671  0.499  0.505-  32 1.41  34 1.41  44 1.44
  44  0.727  0.612  0.505-  55 1.41  57 1.41  43 1.44
  45  0.835  0.500  0.500-  36 1.42  34 1.42  46 1.42
  46  0.891  0.611  0.500-  47 1.41  57 1.42  45 1.42
  47  0.001  0.668  0.498-  46 1.41  38 1.42  48 1.43
  48  0.057  0.779  0.498-  61 1.42  47 1.43  59 1.43
  49  0.166  0.667  0.499-  40 1.42  38 1.42  50 1.42
  50  0.222  0.779  0.498-  61 1.42  49 1.42  63 1.42
  51  0.331  0.667  0.502-  42 1.41  52 1.42  40 1.42
  52  0.388  0.778  0.500-  51 1.42  65 1.42  63 1.43
  53  0.495  0.663  0.510-  42 1.41  54 1.42  71 1.99
  54  0.553  0.773  0.503-  53 1.42  67 1.44  65 1.44
  55  0.669  0.663  0.510-  44 1.41  56 1.42  71 2.00
  56  0.721  0.774  0.504-  55 1.42  67 1.44  69 1.45
  57  0.837  0.667  0.501-  44 1.41  46 1.42  58 1.42
  58  0.891  0.779  0.500-  57 1.42  69 1.42  59 1.42
  59  0.001  0.835  0.498-  58 1.42  60 1.42  48 1.43
  60  0.057  0.947  0.498-   1 1.42  59 1.42   3 1.43
  61  0.167  0.835  0.498-  48 1.42  50 1.42  62 1.42
  62  0.223  0.946  0.498-   3 1.42  61 1.42   5 1.43
  63  0.333  0.834  0.498-  64 1.42  50 1.42  52 1.43
  64  0.389  0.946  0.498-  63 1.42   7 1.42   5 1.43
  65  0.499  0.832  0.500-  66 1.42  52 1.42  54 1.44
  66  0.555  0.943  0.498-  65 1.42   9 1.43   7 1.43
  67  0.665  0.830  0.502-  68 1.42  56 1.44  54 1.44
  68  0.721  0.941  0.499-  67 1.42  11 1.43   9 1.43
  69  0.834  0.832  0.500-  58 1.42  70 1.43  56 1.45
  70  0.889  0.944  0.498-  11 1.42  69 1.43   1 1.43
  71  0.528  0.556  0.554-  53 1.99  32 2.00  55 2.00  30 2.01
 

IMPORTANT INFORMATION: All symmetrisations will be switched off!
NOSYMM: (Re-)initialisation of all symmetry stuff for point group C_1.

 
 
 KPOINTS: K-Points                                

Automatic generation of k-mesh.
Space group operators:
 irot       det(A)        alpha          n_x          n_y          n_z        tau_x        tau_y        tau_z
    1     1.000000     0.000000     1.000000     0.000000     0.000000     0.000000     0.000000     0.000000
 
 Subroutine IBZKPT returns following result:
 ===========================================
 
 Found      4 irreducible k-points:
 
 Following reciprocal coordinates:
            Coordinates               Weight
  0.000000  0.000000  0.000000      1.000000
  0.500000  0.000000  0.000000      1.000000
 -0.000000  0.500000  0.000000      1.000000
  0.500000  0.500000  0.000000      1.000000
 
 Following cartesian coordinates:
            Coordinates               Weight
  0.000000  0.000000  0.000000      1.000000
  0.033646  0.019597  0.000000      1.000000
 -0.000004  0.039195  0.000000      1.000000
  0.033642  0.058792  0.000000      1.000000
 


--------------------------------------------------------------------------------------------------------




 Dimension of arrays:
   k-points           NKPTS =      4   k-points in BZ     NKDIM =      4   number of bands    NBANDS=    184
   number of dos      NEDOS =    301   number of ions     NIONS =     71
   non local maximal  LDIM  =      6   non local SUM 2l+1 LMDIM =     18
   total plane-waves  NPLWV = ******
   max r-space proj   IRMAX =   6643   max aug-charges    IRDMAX=  15613
   dimension x,y,z NGX =   108 NGY =  108 NGZ =  108
   dimension x,y,z NGXF=   216 NGYF=  216 NGZF=  216
   support grid    NGXF=   216 NGYF=  216 NGZF=  216
   ions per type =               1   1  68   1
   NGX,Y,Z   is equivalent  to a cutoff of  12.08, 12.16, 11.97 a.u.
   NGXF,Y,Z  is equivalent  to a cutoff of  24.17, 24.33, 23.94 a.u.

 SYSTEM =  unknown system                          
 POSCAR =  POSCAR-clean                            

 Startparameter for this run:
   NWRITE =      2    write-flag & timer
   PREC   = accura    normal or accurate (medium, high low for compatibility)
   ISTART =      0    job   : 0-new  1-cont  2-samecut
   ICHARG =      2    charge: 1-file 2-atom 10-const
   ISPIN  =      2    spin polarized calculation?
   LNONCOLLINEAR =      F non collinear calculations
   LSORBIT =      F    spin-orbit coupling
   INIWAV =      1    electr: 0-lowe 1-rand  2-diag
   LASPH  =      F    aspherical Exc in radial PAW
   METAGGA=      F    non-selfconsistent MetaGGA calc.

 Electronic Relaxation 1
   ENCUT  =  440.0 eV  32.34 Ry    5.69 a.u.  25.42 25.25 25.66*2*pi/ulx,y,z
   ENINI  =  440.0     initial cutoff
   ENAUG  =  644.9 eV  augmentation charge cutoff
   NELM   =     50;   NELMIN=  2; NELMDL= -5     # of ELM steps 
   EDIFF  = 0.1E-04   stopping-criterion for ELM
   LREAL  =      T    real-space projection
   NLSPLINE    = F    spline interpolate recip. space projectors
   LCOMPAT=      F    compatible to vasp.4.4
   GGA_COMPAT  = T    GGA compatible to vasp.4.4-vasp.4.6
   LMAXPAW     = -100 max onsite density
   LMAXMIX     =    2 max onsite mixed and CHGCAR
   VOSKOWN=      0    Vosko Wilk Nusair interpolation
   ROPT   =   -0.00025  -0.00025  -0.00025  -0.00025
 Ionic relaxation
   EDIFFG = -.5E-01   stopping-criterion for IOM
   NSW    =    400    number of steps for IOM
   NBLOCK =      1;   KBLOCK =    400    inner block; outer block 
   IBRION =      2    ionic relax: 0-MD 1-quasi-New 2-CG
   NFREE  =      1    steps in history (QN), initial steepest desc. (CG)
   ISIF   =      2    stress and relaxation
   IWAVPR =     11    prediction:  0-non 1-charg 2-wave 3-comb
   ISYM   =      0    0-nonsym 1-usesym 2-fastsym
   LCORR  =      T    Harris-Foulkes like correction to forces

   POTIM  = 0.3000    time-step for ionic-motion
   TEIN   =    0.0    initial temperature
   TEBEG  =    0.0;   TEEND  =   0.0 temperature during run
   SMASS  =  -3.00    Nose mass-parameter (am)
   estimated Nose-frequenzy (Omega)   =  0.10E-29 period in steps =****** mass=  -0.505E-26a.u.
   SCALEE = 1.0000    scale energy and forces
   NPACO  =    256;   APACO  = 16.0  distance and # of slots for P.C.
   PSTRESS=    0.0 pullay stress

  Mass of Ions in am
   POMASS =  12.01 14.00 12.01 52.00
  Ionic Valenz
   ZVAL   =   4.00  5.00  4.00 12.00
  Atomic Wigner-Seitz radii
   RWIGS  =  -1.00 -1.00 -1.00 -1.00
  virtual crystal weights 
   VCA    =   1.00  1.00  1.00  1.00
   NELECT =     293.0000    total number of electrons
   NUPDOWN=      -1.0000    fix difference up-down

 DOS related values:
   EMIN   =  10.00;   EMAX   =-10.00  energy-range for DOS
   EFERMI =   0.00
   ISMEAR =     0;   SIGMA  =   0.10  broadening in eV -4-tet -1-fermi 0-gaus

 Electronic relaxation 2 (details)
   IALGO  =     68    algorithm
   LDIAG  =      T    sub-space diagonalisation (order eigenvalues)
   LSUBROT=      F    optimize rotation matrix (better conditioning)
   TURBO    =      0    0=normal 1=particle mesh
   IRESTART =      0    0=no restart 2=restart with 2 vectors
   NREBOOT  =      0    no. of reboots
   NMIN     =      0    reboot dimension
   EREF     =   0.00    reference energy to select bands
   IMIX   =      4    mixing-type and parameters
     AMIX     =   0.40;   BMIX     =  1.00
     AMIX_MAG =   1.60;   BMIX_MAG =  1.00
     AMIN     =   0.10
     WC   =   100.;   INIMIX=   1;  MIXPRE=   1;  MAXMIX= -45

 Intra band minimization:
   WEIMIN = 0.0010     energy-eigenvalue tresh-hold
   EBREAK =  0.14E-07  absolut break condition
   DEPER  =   0.30     relativ break condition  

   TIME   =   0.40     timestep for ELM

  volume/ion in A,a.u.               =      40.05       270.26
  Fermi-wavevector in a.u.,A,eV,Ry     =   0.767505  1.450374  8.014694  0.589063
  Thomas-Fermi vector in A             =   1.868075
 
 Write flags
   LWAVE        =      F    write WAVECAR
   LDOWNSAMPLE  =      F    k-point downsampling of WAVECAR
   LCHARG       =      F    write CHGCAR
   LVTOT        =      F    write LOCPOT, total local potential
   LVHAR        =      F    write LOCPOT, Hartree potential only
   LELF         =      F    write electronic localiz. function (ELF)
   LORBIT       =      0    0 simple, 1 ext, 2 COOP (PROOUT), +10 PAW based schemes


 Dipole corrections
   LMONO  =      F    monopole corrections only (constant potential shift)
   LDIPOL =      F    correct potential (dipole corrections)
   IDIPOL =      0    1-x, 2-y, 3-z, 4-all directions 
   EPSILON=  1.0000000 bulk dielectric constant

 Exchange correlation treatment:
   GGA     =    --    GGA type
   LEXCH   =     8    internal setting for exchange type
   VOSKOWN=      0    Vosko Wilk Nusair interpolation
   LHFCALC =     F    Hartree Fock is set to
   LHFONE  =     F    Hartree Fock one center treatment
   AEXX    =    0.0000 exact exchange contribution

 Linear response parameters
   LEPSILON=     F    determine dielectric tensor
   LRPA    =     F    only Hartree local field effects (RPA)
   LNABLA  =     F    use nabla operator in PAW spheres
   LVEL    =     F    velocity operator in full k-point grid
   LINTERFAST=   F  fast interpolation
   KINTER  =     0    interpolate to denser k-point grid
   CSHIFT  =0.1000    complex shift for real part using Kramers Kronig
   OMEGAMAX=  -1.0    maximum frequency
   DEG_THRESHOLD= 0.2000000E-02 threshold for treating states as degnerate
   RTIME   =   -0.100 relaxation time in fs
  (WPLASMAI=    0.000 imaginary part of plasma frequency in eV, 0.658/RTIME)
   DFIELD  = 0.0000000 0.0000000 0.0000000 field for delta impulse in time
 
 Orbital magnetization related:
   ORBITALMAG=     F  switch on orbital magnetization
   LCHIMAG   =     F  perturbation theory with respect to B field
   DQ        =  0.001000  dq finite difference perturbation B field
   LLRAUG    =     F  two centre corrections for induced B field



--------------------------------------------------------------------------------------------------------


 conjugate gradient relaxation of ions
 charge density and potential will be updated during run
 spin polarized calculation
 RMM-DIIS sequential band-by-band and
  variant of blocked Davidson during initial phase
 perform sub-space diagonalisation
    before iterative eigenvector-optimisation
 modified Broyden-mixing scheme, WC =      100.0
 initial mixing is a Kerker type mixing with AMIX =  0.4000 and BMIX =      1.0000
 Hartree-type preconditioning will be used
 using additional bands           37
 real space projection scheme for non local part
 use partial core corrections
 calculate Harris-corrections to forces 
   (improved forces if not selfconsistent)
 use gradient corrections 
 use of overlap-Matrix (Vanderbilt PP)
 Gauss-broadening in eV      SIGMA  =   0.10


--------------------------------------------------------------------------------------------------------


  energy-cutoff  :      440.00
  volume of cell :     2843.47
      direct lattice vectors                 reciprocal lattice vectors
    14.859800864  0.001585983  0.000000000     0.067291470  0.039194507  0.000000000
    -7.429900432 12.756096762  0.000000000    -0.000008366  0.078389013  0.000000000
     0.000000000  0.000000000 15.000000000     0.000000000  0.000000000  0.066666667

  length of vectors
    14.859800949 14.762161936 15.000000000     0.077873944  0.078389014  0.066666667


 
 k-points in units of 2pi/SCALE and weight: K-Points                                
   0.00000000  0.00000000  0.00000000       0.250
   0.03364573  0.01959725  0.00000000       0.250
  -0.00000418  0.03919451  0.00000000       0.250
   0.03364155  0.05879176  0.00000000       0.250
 
 k-points in reciprocal lattice and weights: K-Points                                
   0.00000000  0.00000000  0.00000000       0.250
   0.50000000  0.00000000  0.00000000       0.250
  -0.00000000  0.50000000  0.00000000       0.250
   0.50000000  0.50000000  0.00000000       0.250
 
 position of ions in fractional coordinates (direct lattice) 
   0.00056871  0.00084209  0.49770159
   0.05575992  0.11142040  0.49776467
   0.16803958  0.00189911  0.49752522
   0.22251467  0.11309206  0.49822911
   0.33426986  0.00218056  0.49774268
   0.38967718  0.11343210  0.49837815
   0.50005652  0.99988271  0.49773040
   0.55586791  0.11138723  0.49764984
   0.66595397  0.99796269  0.49824934
   0.72205373  0.10924745  0.49753976
   0.83212380  0.99775766  0.49839169
   0.88860906  0.10893077  0.49772558
   0.99974978  0.16504451  0.49781578
   0.05467147  0.27598554  0.49848074
   0.16622806  0.16751102  0.49841054
   0.22192428  0.27890902  0.50006357
   0.33461096  0.17035118  0.49937338
   0.39058552  0.28134566  0.50253418
   0.50078114  0.16812238  0.49841694
   0.55685725  0.27965012  0.50005183
   0.66683986  0.16552157  0.49752419
   0.72261235  0.27669797  0.49803649
   0.83331358  0.16500621  0.49760718
   0.88845834  0.27625260  0.49775371
   0.99897474  0.33155617  0.49831350
   0.05438827  0.44340416  0.49878276
   0.16544198  0.33299781  0.49999781
   0.21907587  0.44374353  0.50166631
   0.33463179  0.33706487  0.50345505
   0.38691586  0.44792336  0.50956227
   0.50264175  0.33785449  0.50358338
   0.56128966  0.44850866  0.50978309
   0.66770591  0.33287491  0.49965675
   0.72498551  0.44392229  0.50119803
   0.83344097  0.33220669  0.49791143
   0.88959540  0.44377191  0.49826011
   0.00001262  0.49963224  0.49829243
   0.05576615  0.61133677  0.49828144
   0.16444272  0.49972797  0.50030715
   0.22025198  0.61117316  0.50029997
   0.32895770  0.49907437  0.50520886
   0.38527613  0.61176568  0.50522486
   0.67060555  0.49933216  0.50516729
   0.72693080  0.61193469  0.50518460
   0.83542764  0.49984060  0.49955116
   0.89116962  0.61138332  0.49954954
   0.00132196  0.66755529  0.49824463
   0.05666732  0.77929894  0.49789851
   0.16612460  0.66728554  0.49876753
   0.22231247  0.77891556  0.49831854
   0.33083711  0.66709391  0.50168436
   0.38813602  0.77829950  0.50001145
   0.49462570  0.66257626  0.50961879
   0.55323277  0.77331060  0.50338109
   0.66869374  0.66302734  0.50995497
   0.72099028  0.77379481  0.50355213
   0.83664557  0.66732732  0.50120566
   0.89057512  0.77857505  0.49965125
   0.00126784  0.83506271  0.49802390
   0.05696349  0.94669355  0.49752124
   0.16736369  0.83477903  0.49774575
   0.22319102  0.94640889  0.49761093
   0.33325770  0.83449906  0.49849638
   0.38922393  0.94575582  0.49782651
   0.49900518  0.83153199  0.50005072
   0.55498542  0.94315649  0.49837192
   0.66513076  0.82970586  0.50247414
   0.72082262  0.94112133  0.49937900
   0.83358224  0.83217273  0.50003132
   0.88924288  0.94411822  0.49844672
   0.52796460  0.55569167  0.55445820
 
 position of ions in cartesian coordinates  (Angst):
   0.00219433  0.01074264  7.46552383
   0.00073885  1.42137785  7.46647005
   2.48292452  0.02449169  7.46287836
   2.46626102  1.44296613  7.47343663
   4.95098228  0.02834554  7.46614022
   4.94773607  1.44756890  7.47567223
   0.00171133 12.75539365  7.46595593
   7.43249048  1.42174789  7.46474765
   2.48117999 12.73116489  7.47374014
   9.91787691  1.39471624  7.46309640
   4.95195394 12.72881293  7.47587539
  12.39520898  1.39094072  7.46588371
  13.62981834  2.10690926  7.46723669
  -1.23813786  3.52058492  7.47721105
   1.22552571  2.13705038  7.47615809
   1.22548440  3.55814244  7.50095348
   3.70655999  2.17354681  7.49060065
   3.71365283  3.58949196  7.53801267
   6.19237544  2.14537963  7.47625403
   6.19701522  3.56812717  7.50077749
   8.67929875  2.11246679  7.46286281
   8.68203719  3.53073218  7.47054742
  11.15689410  2.10615676  7.46410772
  11.14978467  3.52531393  7.46630558
  12.38113637  4.23094698  7.47470250
  -2.48624985  5.65619262  7.48174137
  -0.01570576  4.24801470  7.49996717
  -0.04154637  5.66078286  7.52499462
   2.46820336  4.30016278  7.55182578
   2.42146669  5.71436741  7.64343411
   4.95893113  4.31050169  7.55375066
   5.00827791  5.72211011  7.64674636
   7.44874932  4.24724359  7.49485129
   7.47484196  5.66386551  7.51797043
   9.91650426  4.23898249  7.46867141
   9.92202939  5.66220826  7.47390171
  -3.71203028  6.37335716  7.47438648
  -3.71349748  7.79835949  7.47422162
  -1.26934295  6.37483915  7.50460725
  -1.26805524  7.79653334  7.50449962
   1.18017304  6.36676267  7.57813284
   1.17976840  7.80435329  7.57837294
   6.25507670  6.37059287  7.57750938
   6.25543303  7.80705104  7.57776894
   8.70052253  6.37734006  7.49326744
   8.70008581  7.80027820  7.49324305
  -4.94022535  8.51540198  7.47366944
  -4.94804838  9.94090257  7.46847765
  -2.48928662  8.51222239  7.48151288
  -2.48374610  9.93627487  7.47477811
  -0.04026778  8.51003919  7.52526542
  -0.01506378  9.92867928  7.50017175
   2.42716375  8.45267131  7.64428191
   2.47530805  9.86530230  7.55071641
   5.01042865  8.45870145  7.64932457
   4.96455352  9.87174498  7.55328190
   7.47421104  8.51381876  7.51808494
   7.44903391  9.93299105  7.49476878
  -6.18559300 10.65214280  7.47035849
  -6.18737269 12.07620487  7.46281866
  -3.71533397 10.64878751  7.46618622
  -3.71514981 12.07283741  7.46416396
  -1.24810196 10.64547933  7.47744573
  -1.24308146 12.06476999  7.46739759
   1.23691772 10.60789395  7.50076075
   1.23941404 12.03187571  7.47557875
   3.71907867 10.58486316  7.53711211
   3.71884287 12.00617798  7.49068503
   6.20390562 10.61659794  7.50046974
   6.19926778 12.04467363  7.47670074
   3.71671500  7.08929400  8.31687296
 


--------------------------------------------------------------------------------------------------------


 k-point  1 :   0.0000 0.0000 0.0000  plane waves:   59589
 k-point  2 :   0.5000 0.0000 0.0000  plane waves:   59570
 k-point  3 :  -0.0000 0.5000 0.0000  plane waves:   59634
 k-point  4 :   0.5000 0.5000 0.0000  plane waves:   59558

 maximum and minimum number of plane-waves per node :      4987     4940

 maximum number of plane-waves:     59634
 maximum index in each direction: 
   IXMAX=   25   IYMAX=   25   IZMAX=   25
   IXMIN=  -25   IYMIN=  -25   IZMIN=  -25


 real space projection operators:
  total allocation   :      18897.11 KBytes
  max/ min on nodes  :       1622.06       1539.77


 parallel 3D FFT for wavefunctions:
    minimum data exchange during FFTs selected (reduces bandwidth)
 parallel 3D FFT for charge:
    minimum data exchange during FFTs selected (reduces bandwidth)


 total amount of memory used by VASP MPI-rank0   111612. kBytes
=======================================================================

   base      :      30000. kBytes
   nonlr-proj:       9927. kBytes
   fftplans  :      10852. kBytes
   grid      :      30996. kBytes
   one-center:        186. kBytes
   wavefun   :      29651. kBytes
 
     INWAV:  cpu time    0.0000: real time    0.0000
 Broyden mixing: mesh for mixing (old mesh)
   NGX = 51   NGY = 51   NGZ = 51
  (NGX  =216   NGY  =216   NGZ  =216)
  gives a total of 132651 points

 initial charge density was supplied:
 charge density of overlapping atoms calculated
 number of electron     293.0000000 magnetization       1.0000000
 keeping initial charge density in first step


--------------------------------------------------------------------------------------------------------


 Maximum index for non-local projection operator          550
 Maximum index for augmentation-charges          326 (set IRDMAX)


--------------------------------------------------------------------------------------------------------


 First call to EWALD:  gamma=   0.125
 Maximum number of real-space cells 3x 3x 3
 Maximum number of reciprocal cells 3x 3x 3

    FEWALD:  cpu time    0.0035: real time    0.0043


--------------------------------------- Iteration      1(   1)  ---------------------------------------


    POTLOK:  cpu time    0.3866: real time    0.4197
    SETDIJ:  cpu time    0.0134: real time    0.0136
     EDDAV:  cpu time   11.4886: real time   11.6091
       DOS:  cpu time    0.0014: real time    0.0014
    --------------------------------------------
      LOOP:  cpu time   11.8900: real time   12.0438

 eigenvalue-minimisations  :  3352
 total energy-change (2. order) : 0.2482389E+04  (-0.1079925E+05)
 number of electron     293.0000000 magnetization       1.0000000
 augmentation part      293.0000000 magnetization       1.0000000

 Free energy of the ion-electron system (eV)
  ---------------------------------------------------
  alpha Z        PSCENC =       157.21188181
  Ewald energy   TEWEN  =     30440.51299134
  -Hartree energ DENC   =    -39602.76689575
  -exchange      EXHF   =         0.00000000
  -V(xc)+E(xc)   XCENC  =       982.90954558
  PAW double counting   =      9000.30529238    -9089.18527416
  entropy T*S    EENTRO =        -0.11822407
  eigenvalues    EBANDS =     -1471.75786281
  atomic energy  EATOM  =     12065.27733323
  Solvation  Ediel_sol  =         0.00000000
  ---------------------------------------------------
  free energy    TOTEN  =      2482.38878755 eV

  energy without entropy =     2482.50701162  energy(sigma->0) =     2482.44789958


--------------------------------------------------------------------------------------------------------




--------------------------------------- Iteration      1(   2)  ---------------------------------------


     EDDAV:  cpu time   14.5353: real time   14.7604
       DOS:  cpu time    0.0010: real time    0.0010
    --------------------------------------------
      LOOP:  cpu time   14.5363: real time   14.7613

 eigenvalue-minimisations  :  4224
 total energy-change (2. order) :-0.2709487E+04  (-0.2587353E+04)
 number of electron     293.0000000 magnetization       1.0000000
 augmentation part      293.0000000 magnetization       1.0000000

 Free energy of the ion-electron system (eV)
  ---------------------------------------------------
  alpha Z        PSCENC =       157.21188181
  Ewald energy   TEWEN  =     30440.51299134
  -Hartree energ DENC   =    -39602.76689575
  -exchange      EXHF   =         0.00000000
  -V(xc)+E(xc)   XCENC  =       982.90954558
  PAW double counting   =      9000.30529238    -9089.18527416
  entropy T*S    EENTRO =        -0.01350797
  eigenvalues    EBANDS =     -4181.34993832
  atomic energy  EATOM  =     12065.27733323
  Solvation  Ediel_sol  =         0.00000000
  ---------------------------------------------------
  free energy    TOTEN  =      -227.09857185 eV

  energy without entropy =     -227.08506388  energy(sigma->0) =     -227.09181787


--------------------------------------------------------------------------------------------------------




--------------------------------------- Iteration      1(   3)  ---------------------------------------


     EDDAV:  cpu time   12.7654: real time   12.8977
       DOS:  cpu time    0.0010: real time    0.0010
    --------------------------------------------
      LOOP:  cpu time   12.7663: real time   12.8987

 eigenvalue-minimisations  :  3568
 total energy-change (2. order) :-0.4600637E+03  (-0.4573013E+03)
 number of electron     293.0000000 magnetization       1.0000000
 augmentation part      293.0000000 magnetization       1.0000000

 Free energy of the ion-electron system (eV)
  ---------------------------------------------------
  alpha Z        PSCENC =       157.21188181
  Ewald energy   TEWEN  =     30440.51299134
  -Hartree energ DENC   =    -39602.76689575
  -exchange      EXHF   =         0.00000000
  -V(xc)+E(xc)   XCENC  =       982.90954558
  PAW double counting   =      9000.30529238    -9089.18527416
  entropy T*S    EENTRO =        -0.02584332
  eigenvalues    EBANDS =     -4641.40126525
  atomic energy  EATOM  =     12065.27733323
  Solvation  Ediel_sol  =         0.00000000
  ---------------------------------------------------
  free energy    TOTEN  =      -687.16223413 eV

  energy without entropy =     -687.13639081  energy(sigma->0) =     -687.14931247


--------------------------------------------------------------------------------------------------------




--------------------------------------- Iteration      1(   4)  ---------------------------------------


     EDDAV:  cpu time   12.8160: real time   12.9828
       DOS:  cpu time    0.0010: real time    0.0010
    --------------------------------------------
      LOOP:  cpu time   12.8169: real time   12.9838

 eigenvalue-minimisations  :  3592
 total energy-change (2. order) :-0.1686443E+02  (-0.1672603E+02)
 number of electron     293.0000000 magnetization       1.0000000
 augmentation part      293.0000000 magnetization       1.0000000

 Free energy of the ion-electron system (eV)
  ---------------------------------------------------
  alpha Z        PSCENC =       157.21188181
  Ewald energy   TEWEN  =     30440.51299134
  -Hartree energ DENC   =    -39602.76689575
  -exchange      EXHF   =         0.00000000
  -V(xc)+E(xc)   XCENC  =       982.90954558
  PAW double counting   =      9000.30529238    -9089.18527416
  entropy T*S    EENTRO =        -0.02904751
  eigenvalues    EBANDS =     -4658.26248962
  atomic energy  EATOM  =     12065.27733323
  Solvation  Ediel_sol  =         0.00000000
  ---------------------------------------------------
  free energy    TOTEN  =      -704.02666269 eV

  energy without entropy =     -703.99761519  energy(sigma->0) =     -704.01213894


--------------------------------------------------------------------------------------------------------




--------------------------------------- Iteration      1(   5)  ---------------------------------------


     EDDAV:  cpu time   14.1136: real time   14.2912
       DOS:  cpu time    0.0010: real time    0.0010
    CHARGE:  cpu time    0.4934: real time    0.5075
    MIXING:  cpu time    0.0076: real time    0.0085
    --------------------------------------------
      LOOP:  cpu time   14.6156: real time   14.8082

 eigenvalue-minimisations  :  4032
 total energy-change (2. order) :-0.5431242E+00  (-0.5412771E+00)
 number of electron     292.9999984 magnetization       0.7737790
 augmentation part       11.6617438 magnetization       0.7632958

 Broyden mixing:
  rms(total) = 0.46858E+01    rms(broyden)= 0.46853E+01
  rms(prec ) = 0.54436E+01
  weight for this iteration     100.00

 Free energy of the ion-electron system (eV)
  ---------------------------------------------------
  alpha Z        PSCENC =       157.21188181
  Ewald energy   TEWEN  =     30440.51299134
  -Hartree energ DENC   =    -39602.76689575
  -exchange      EXHF   =         0.00000000
  -V(xc)+E(xc)   XCENC  =       982.90954558
  PAW double counting   =      9000.30529238    -9089.18527416
  entropy T*S    EENTRO =        -0.02980325
  eigenvalues    EBANDS =     -4658.80485807
  atomic energy  EATOM  =     12065.27733323
  Solvation  Ediel_sol  =         0.00000000
  ---------------------------------------------------
  free energy    TOTEN  =      -704.56978689 eV

  energy without entropy =     -704.53998364  energy(sigma->0) =     -704.55488526


--------------------------------------------------------------------------------------------------------




--------------------------------------- Iteration      1(   6)  ---------------------------------------


    POTLOK:  cpu time    0.3828: real time    0.3937
    SETDIJ:  cpu time    0.0125: real time    0.0131
    EDDIAG:  cpu time    2.0805: real time    2.1073
  RMM-DIIS:  cpu time   11.4835: real time   11.5691
    ORTHCH:  cpu time    0.2334: real time    0.2339
       DOS:  cpu time    0.0009: real time    0.0009
    CHARGE:  cpu time    0.4557: real time    0.4655
    MIXING:  cpu time    0.0073: real time    0.0104
    --------------------------------------------
      LOOP:  cpu time   14.6566: real time   14.7939

 eigenvalue-minimisations  :  4039
 total energy-change (2. order) :-0.2603697E+02  (-0.5166500E+02)
 number of electron     292.9999980 magnetization       0.7138898
 augmentation part       17.2924249 magnetization       1.0479833

 Broyden mixing:
  rms(total) = 0.83726E+01    rms(broyden)= 0.83722E+01
  rms(prec ) = 0.92401E+01
  weight for this iteration     100.00

 eigenvalues of (default mixing * dielectric matrix)
  average eigenvalue GAMMA=   0.2166
  0.2166

 Free energy of the ion-electron system (eV)
  ---------------------------------------------------
  alpha Z        PSCENC =       157.21188181
  Ewald energy   TEWEN  =     30440.51299134
  -Hartree energ DENC   =    -39895.94464996
  -exchange      EXHF   =         0.00000000
  -V(xc)+E(xc)   XCENC  =       996.72600468
  PAW double counting   =     15331.03807470   -15419.67508909
  entropy T*S    EENTRO =        -0.03742589
  eigenvalues    EBANDS =     -4405.71587547
  atomic energy  EATOM  =     12065.27733323
  Solvation  Ediel_sol  =         0.00000000
  ---------------------------------------------------
  free energy    TOTEN  =      -730.60675464 eV

  energy without entropy =     -730.56932875  energy(sigma->0) =     -730.58804170


--------------------------------------------------------------------------------------------------------




--------------------------------------- Iteration      1(   7)  ---------------------------------------


    POTLOK:  cpu time    0.3890: real time    0.3981
    SETDIJ:  cpu time    0.0122: real time    0.0122
    EDDIAG:  cpu time    2.0343: real time    2.0501
  RMM-DIIS:  cpu time    8.8270: real time    8.8989
    ORTHCH:  cpu time    0.5670: real time    0.5681
       DOS:  cpu time    0.0009: real time    0.0009
    CHARGE:  cpu time    0.4886: real time    0.4971
    MIXING:  cpu time    0.0085: real time    0.0096
    --------------------------------------------
      LOOP:  cpu time   12.3274: real time   12.4350

 eigenvalue-minimisations  :  3068
 total energy-change (2. order) : 0.6787733E+02  (-0.6201733E+01)
 number of electron     292.9999980 magnetization       0.6162064
 augmentation part       15.2811211 magnetization       0.6316323

 Broyden mixing:
  rms(total) = 0.32398E+01    rms(broyden)= 0.32394E+01
  rms(prec ) = 0.38875E+01
  weight for this iteration     100.00

 eigenvalues of (default mixing * dielectric matrix)
  average eigenvalue GAMMA=   0.4640
  0.4640  0.4640

 Free energy of the ion-electron system (eV)
  ---------------------------------------------------
  alpha Z        PSCENC =       157.21188181
  Ewald energy   TEWEN  =     30440.51299134
  -Hartree energ DENC   =    -40017.77107853
  -exchange      EXHF   =         0.00000000
  -V(xc)+E(xc)   XCENC  =      1001.32722431
  PAW double counting   =     16960.75165303   -17056.16293632
  entropy T*S    EENTRO =        -0.00039739
  eigenvalues    EBANDS =     -4213.87609594
  atomic energy  EATOM  =     12065.27733323
  Solvation  Ediel_sol  =         0.00000000
  ---------------------------------------------------
  free energy    TOTEN  =      -662.72942445 eV

  energy without entropy =     -662.72902706  energy(sigma->0) =     -662.72922575


--------------------------------------------------------------------------------------------------------




--------------------------------------- Iteration      1(   8)  ---------------------------------------


    POTLOK:  cpu time    0.3979: real time    0.4036
    SETDIJ:  cpu time    0.0165: real time    0.0165
    EDDIAG:  cpu time    2.0497: real time    2.0646
  RMM-DIIS:  cpu time    8.8762: real time    8.9380
    ORTHCH:  cpu time    0.5813: real time    0.6177
       DOS:  cpu time    0.0009: real time    0.0009
    CHARGE:  cpu time    0.4852: real time    0.4945
    MIXING:  cpu time    0.0090: real time    0.0094
    --------------------------------------------
      LOOP:  cpu time   12.4168: real time   12.5452

 eigenvalue-minimisations  :  3098
 total energy-change (2. order) : 0.9627901E-01  (-0.2327601E+01)
 number of electron     292.9999983 magnetization       0.3455347
 augmentation part       11.2320570 magnetization       0.2945586

 Broyden mixing:
  rms(total) = 0.28500E+01    rms(broyden)= 0.28492E+01
  rms(prec ) = 0.34903E+01
  weight for this iteration     100.00

 eigenvalues of (default mixing * dielectric matrix)
  average eigenvalue GAMMA=   0.8530
  1.8797  0.3397  0.3397

 Free energy of the ion-electron system (eV)
  ---------------------------------------------------
  alpha Z        PSCENC =       157.21188181
  Ewald energy   TEWEN  =     30440.51299134
  -Hartree energ DENC   =    -40198.28802478
  -exchange      EXHF   =         0.00000000
  -V(xc)+E(xc)   XCENC  =      1008.01593282
  PAW double counting   =     19935.42371913   -20034.87117582
  entropy T*S    EENTRO =        -0.02827819
  eigenvalues    EBANDS =     -4035.88752500
  atomic energy  EATOM  =     12065.27733323
  Solvation  Ediel_sol  =         0.00000000
  ---------------------------------------------------
  free energy    TOTEN  =      -662.63314545 eV

  energy without entropy =     -662.60486726  energy(sigma->0) =     -662.61900635


--------------------------------------------------------------------------------------------------------




--------------------------------------- Iteration      1(   9)  ---------------------------------------


    POTLOK:  cpu time    0.3766: real time    0.3802
    SETDIJ:  cpu time    0.0157: real time    0.0157
    EDDIAG:  cpu time    2.0583: real time    2.0729
  RMM-DIIS:  cpu time    8.4708: real time    8.5280
    ORTHCH:  cpu time    0.4744: real time    0.4803
       DOS:  cpu time    0.0009: real time    0.0009
    CHARGE:  cpu time    0.4572: real time    0.4655
    MIXING:  cpu time    0.0090: real time    0.0091
    --------------------------------------------
      LOOP:  cpu time   11.8629: real time   11.9527

 eigenvalue-minimisations  :  2973
 total energy-change (2. order) : 0.1529685E+02  (-0.2009807E+01)
 number of electron     292.9999984 magnetization       0.2544985
 augmentation part       12.1454030 magnetization       0.2736883

 Broyden mixing:
  rms(total) = 0.11944E+01    rms(broyden)= 0.11939E+01
  rms(prec ) = 0.13548E+01
  weight for this iteration     100.00

 eigenvalues of (default mixing * dielectric matrix)
  average eigenvalue GAMMA=   0.9129
  2.2291  0.7183  0.3521  0.3521

 Free energy of the ion-electron system (eV)
  ---------------------------------------------------
  alpha Z        PSCENC =       157.21188181
  Ewald energy   TEWEN  =     30440.51299134
  -Hartree energ DENC   =    -40506.50094851
  -exchange      EXHF   =         0.00000000
  -V(xc)+E(xc)   XCENC  =      1020.94144275
  PAW double counting   =     28448.55484309   -28550.76860772
  entropy T*S    EENTRO =        -0.00212037
  eigenvalues    EBANDS =     -3722.56311076
  atomic energy  EATOM  =     12065.27733323
  Solvation  Ediel_sol  =         0.00000000
  ---------------------------------------------------
  free energy    TOTEN  =      -647.33629514 eV

  energy without entropy =     -647.33417477  energy(sigma->0) =     -647.33523495


--------------------------------------------------------------------------------------------------------




--------------------------------------- Iteration      1(  10)  ---------------------------------------


    POTLOK:  cpu time    0.3917: real time    0.3951
    SETDIJ:  cpu time    0.0149: real time    0.0150
    EDDIAG:  cpu time    2.0622: real time    2.0770
  RMM-DIIS:  cpu time    8.5450: real time    8.6046
    ORTHCH:  cpu time    0.3100: real time    0.3108
       DOS:  cpu time    0.0008: real time    0.0008
    CHARGE:  cpu time    0.5109: real time    0.5197
    MIXING:  cpu time    0.0089: real time    0.0089
    --------------------------------------------
      LOOP:  cpu time   11.8445: real time   11.9320

 eigenvalue-minimisations  :  2992
 total energy-change (2. order) :-0.4478017E+00  (-0.3412134E+00)
 number of electron     292.9999982 magnetization       0.2016476
 augmentation part       13.7869202 magnetization       0.2286015

 Broyden mixing:
  rms(total) = 0.14689E+01    rms(broyden)= 0.14670E+01
  rms(prec ) = 0.18279E+01
  weight for this iteration     100.00

 eigenvalues of (default mixing * dielectric matrix)
  average eigenvalue GAMMA=   0.9265
  2.3469  1.1094  0.3481  0.3481  0.4798

 Free energy of the ion-electron system (eV)
  ---------------------------------------------------
  alpha Z        PSCENC =       157.21188181
  Ewald energy   TEWEN  =     30440.51299134
  -Hartree energ DENC   =    -40550.51860534
  -exchange      EXHF   =         0.00000000
  -V(xc)+E(xc)   XCENC  =      1021.90785405
  PAW double counting   =     30028.18689851   -30129.25670111
  entropy T*S    EENTRO =        -0.00372008
  eigenvalues    EBANDS =     -3681.10202930
  atomic energy  EATOM  =     12065.27733323
  Solvation  Ediel_sol  =         0.00000000
  ---------------------------------------------------
  free energy    TOTEN  =      -647.78409688 eV

  energy without entropy =     -647.78037680  energy(sigma->0) =     -647.78223684


--------------------------------------------------------------------------------------------------------




--------------------------------------- Iteration      1(  11)  ---------------------------------------


    POTLOK:  cpu time    0.3976: real time    0.4014
    SETDIJ:  cpu time    0.0126: real time    0.0129
    EDDIAG:  cpu time    2.0430: real time    2.0655
  RMM-DIIS:  cpu time    8.8757: real time    8.9382
    ORTHCH:  cpu time    0.2698: real time    0.2704
       DOS:  cpu time    0.0010: real time    0.0010
    CHARGE:  cpu time    0.4746: real time    0.4811
    MIXING:  cpu time    0.0097: real time    0.0098
    --------------------------------------------
      LOOP:  cpu time   12.0840: real time   12.1804

 eigenvalue-minimisations  :  3134
 total energy-change (2. order) : 0.1124979E+01  (-0.4330146E-01)
 number of electron     292.9999983 magnetization       0.1353489
 augmentation part       12.5138938 magnetization       0.1248471

 Broyden mixing:
  rms(total) = 0.79536E+00    rms(broyden)= 0.79263E+00
  rms(prec ) = 0.84972E+00
  weight for this iteration     100.00

 eigenvalues of (default mixing * dielectric matrix)
  average eigenvalue GAMMA=   0.9602
  2.1566  1.9235  0.6299  0.3460  0.3460  0.3590

 Free energy of the ion-electron system (eV)
  ---------------------------------------------------
  alpha Z        PSCENC =       157.21188181
  Ewald energy   TEWEN  =     30440.51299134
  -Hartree energ DENC   =    -40583.04383367
  -exchange      EXHF   =         0.00000000
  -V(xc)+E(xc)   XCENC  =      1022.31230496
  PAW double counting   =     30684.22936826   -30784.62472652
  entropy T*S    EENTRO =        -0.02259043
  eigenvalues    EBANDS =     -3648.51184690
  atomic energy  EATOM  =     12065.27733323
  Solvation  Ediel_sol  =         0.00000000
  ---------------------------------------------------
  free energy    TOTEN  =      -646.65911792 eV

  energy without entropy =     -646.63652749  energy(sigma->0) =     -646.64782271


--------------------------------------------------------------------------------------------------------




--------------------------------------- Iteration      1(  12)  ---------------------------------------


    POTLOK:  cpu time    0.3850: real time    0.3883
    SETDIJ:  cpu time    0.0124: real time    0.0125
    EDDIAG:  cpu time    2.0588: real time    2.0797
  RMM-DIIS:  cpu time    8.3709: real time    8.4274
    ORTHCH:  cpu time    0.3297: real time    0.3665
       DOS:  cpu time    0.0011: real time    0.0011
    CHARGE:  cpu time    0.4489: real time    0.4559
    MIXING:  cpu time    0.0086: real time    0.0087
    --------------------------------------------
      LOOP:  cpu time   11.6155: real time   11.7402

 eigenvalue-minimisations  :  2944
 total energy-change (2. order) : 0.1357049E+00  (-0.1605027E-01)
 number of electron     292.9999983 magnetization       0.1585196
 augmentation part       12.9400081 magnetization      -0.1657200

 Broyden mixing:
  rms(total) = 0.64660E+00    rms(broyden)= 0.64536E+00
  rms(prec ) = 0.67819E+00
  weight for this iteration     100.00

 eigenvalues of (default mixing * dielectric matrix)
  average eigenvalue GAMMA=   0.8598
  2.1122  2.1122  0.5385  0.3479  0.3479  0.3730  0.1870

 Free energy of the ion-electron system (eV)
  ---------------------------------------------------
  alpha Z        PSCENC =       157.21188181
  Ewald energy   TEWEN  =     30440.51299134
  -Hartree energ DENC   =    -40607.56695880
  -exchange      EXHF   =         0.00000000
  -V(xc)+E(xc)   XCENC  =      1021.86390955
  PAW double counting   =     31112.79955140   -31211.72217086
  entropy T*S    EENTRO =        -0.06122567
  eigenvalues    EBANDS =     -3624.83872500
  atomic energy  EATOM  =     12065.27733323
  Solvation  Ediel_sol  =         0.00000000
  ---------------------------------------------------
  free energy    TOTEN  =      -646.52341299 eV

  energy without entropy =     -646.46218733  energy(sigma->0) =     -646.49280016


--------------------------------------------------------------------------------------------------------




--------------------------------------- Iteration      1(  13)  ---------------------------------------


    POTLOK:  cpu time    0.3955: real time    0.4039
    SETDIJ:  cpu time    0.0121: real time    0.0122
    EDDIAG:  cpu time    2.0882: real time    2.1026
  RMM-DIIS:  cpu time    8.5045: real time    8.5681
    ORTHCH:  cpu time    0.1827: real time    0.1831
       DOS:  cpu time    0.0009: real time    0.0009
    CHARGE:  cpu time    0.4466: real time    0.4547
    MIXING:  cpu time    0.0096: real time    0.0096
    --------------------------------------------
      LOOP:  cpu time   11.6402: real time   11.7350

 eigenvalue-minimisations  :  2982
 total energy-change (2. order) :-0.1151828E+00  (-0.3348456E-02)
 number of electron     292.9999983 magnetization       0.0409909
 augmentation part       12.9890067 magnetization      -0.3979344

 Broyden mixing:
  rms(total) = 0.72802E+00    rms(broyden)= 0.72774E+00
  rms(prec ) = 0.76712E+00
  weight for this iteration     100.00

 eigenvalues of (default mixing * dielectric matrix)
  average eigenvalue GAMMA=   0.8893
  2.1912  2.1912  0.3464  0.3464  0.6831  0.5782  0.3324  0.4456

 Free energy of the ion-electron system (eV)
  ---------------------------------------------------
  alpha Z        PSCENC =       157.21188181
  Ewald energy   TEWEN  =     30440.51299134
  -Hartree energ DENC   =    -40611.04420623
  -exchange      EXHF   =         0.00000000
  -V(xc)+E(xc)   XCENC  =      1021.88989423
  PAW double counting   =     31125.59088311   -31224.38824526
  entropy T*S    EENTRO =        -0.03313432
  eigenvalues    EBANDS =     -3621.65599372
  atomic energy  EATOM  =     12065.27733323
  Solvation  Ediel_sol  =         0.00000000
  ---------------------------------------------------
  free energy    TOTEN  =      -646.63859581 eV

  energy without entropy =     -646.60546148  energy(sigma->0) =     -646.62202865


--------------------------------------------------------------------------------------------------------




--------------------------------------- Iteration      1(  14)  ---------------------------------------


    POTLOK:  cpu time    0.4321: real time    0.4366
    SETDIJ:  cpu time    0.0165: real time    0.0166
    EDDIAG:  cpu time    2.0437: real time    2.0581
  RMM-DIIS:  cpu time    8.3963: real time    8.4575
    ORTHCH:  cpu time    0.3845: real time    0.3854
       DOS:  cpu time    0.0011: real time    0.0011
    CHARGE:  cpu time    0.4758: real time    0.4840
    MIXING:  cpu time    0.0081: real time    0.0082
    --------------------------------------------
      LOOP:  cpu time   11.7582: real time   11.8477

 eigenvalue-minimisations  :  2965
 total energy-change (2. order) : 0.2753150E+00  (-0.4285135E-02)
 number of electron     292.9999983 magnetization      -0.0748905
 augmentation part       12.9695629 magnetization      -0.2858984

 Broyden mixing:
  rms(total) = 0.57373E+00    rms(broyden)= 0.57329E+00
  rms(prec ) = 0.61440E+00
  weight for this iteration     100.00

 eigenvalues of (default mixing * dielectric matrix)
  average eigenvalue GAMMA=   0.8274
  2.1666  2.1666  0.5546  0.6451  0.6451  0.3462  0.3462  0.3290  0.2475

 Free energy of the ion-electron system (eV)
  ---------------------------------------------------
  alpha Z        PSCENC =       157.21188181
  Ewald energy   TEWEN  =     30440.51299134
  -Hartree energ DENC   =    -40614.85461292
  -exchange      EXHF   =         0.00000000
  -V(xc)+E(xc)   XCENC  =      1021.92906263
  PAW double counting   =     31231.24884165   -31329.91594645
  entropy T*S    EENTRO =        -0.08001917
  eigenvalues    EBANDS =     -3617.69281294
  atomic energy  EATOM  =     12065.27733323
  Solvation  Ediel_sol  =         0.00000000
  ---------------------------------------------------
  free energy    TOTEN  =      -646.36328083 eV

  energy without entropy =     -646.28326166  energy(sigma->0) =     -646.32327124


--------------------------------------------------------------------------------------------------------




--------------------------------------- Iteration      1(  15)  ---------------------------------------


    POTLOK:  cpu time    0.4017: real time    0.4053
    SETDIJ:  cpu time    0.0124: real time    0.0125
    EDDIAG:  cpu time    2.1585: real time    2.1818
  RMM-DIIS:  cpu time    8.3523: real time    8.4100
    ORTHCH:  cpu time    0.2394: real time    0.2400
       DOS:  cpu time    0.0010: real time    0.0010
    CHARGE:  cpu time    0.4778: real time    0.4857
    MIXING:  cpu time    0.0102: real time    0.0102
    --------------------------------------------
      LOOP:  cpu time   11.6534: real time   11.7466

 eigenvalue-minimisations  :  2980
 total energy-change (2. order) :-0.1480861E+00  (-0.3480879E-02)
 number of electron     292.9999983 magnetization       0.0125110
 augmentation part       13.0220773 magnetization       0.4147819

 Broyden mixing:
  rms(total) = 0.73373E+00    rms(broyden)= 0.73070E+00
  rms(prec ) = 0.77998E+00
  weight for this iteration     100.00

 eigenvalues of (default mixing * dielectric matrix)
  average eigenvalue GAMMA=   0.8488
  2.2078  2.2078  0.5251  0.7363  0.7363  0.3460  0.3460  0.5254  0.5254  0.3324

 Free energy of the ion-electron system (eV)
  ---------------------------------------------------
  alpha Z        PSCENC =       157.21188181
  Ewald energy   TEWEN  =     30440.51299134
  -Hartree energ DENC   =    -40624.85304780
  -exchange      EXHF   =         0.00000000
  -V(xc)+E(xc)   XCENC  =      1022.11793742
  PAW double counting   =     31216.66883997   -31315.40647191
  entropy T*S    EENTRO =        -0.03920917
  eigenvalues    EBANDS =     -3608.00162181
  atomic energy  EATOM  =     12065.27733323
  Solvation  Ediel_sol  =         0.00000000
  ---------------------------------------------------
  free energy    TOTEN  =      -646.51136691 eV

  energy without entropy =     -646.47215775  energy(sigma->0) =     -646.49176233


--------------------------------------------------------------------------------------------------------




--------------------------------------- Iteration      1(  16)  ---------------------------------------


    POTLOK:  cpu time    0.4020: real time    0.4059
    SETDIJ:  cpu time    0.0124: real time    0.0126
    EDDIAG:  cpu time    2.0429: real time    2.0588
  RMM-DIIS:  cpu time    8.5198: real time    8.5850
    ORTHCH:  cpu time    0.2175: real time    0.2180
       DOS:  cpu time    0.0010: real time    0.0010
    CHARGE:  cpu time    0.4476: real time    0.4551
    MIXING:  cpu time    0.0097: real time    0.0103
    --------------------------------------------
      LOOP:  cpu time   11.6529: real time   11.7467

 eigenvalue-minimisations  :  2967
 total energy-change (2. order) : 0.6241170E-01  (-0.5398089E-02)
 number of electron     292.9999983 magnetization       0.1159147
 augmentation part       12.9288741 magnetization       0.5207595

 Broyden mixing:
  rms(total) = 0.67205E+00    rms(broyden)= 0.67194E+00
  rms(prec ) = 0.69732E+00
  weight for this iteration     100.00

 eigenvalues of (default mixing * dielectric matrix)
  average eigenvalue GAMMA=   0.8214
  2.2162  2.2162  0.4865  0.8104  0.8104  0.4888  0.4888  0.3459  0.3459  0.4940
  0.3322

 Free energy of the ion-electron system (eV)
  ---------------------------------------------------
  alpha Z        PSCENC =       157.21188181
  Ewald energy   TEWEN  =     30440.51299134
  -Hartree energ DENC   =    -40638.45312768
  -exchange      EXHF   =         0.00000000
  -V(xc)+E(xc)   XCENC  =      1022.27615945
  PAW double counting   =     31191.41882575   -31290.09220057
  entropy T*S    EENTRO =        -0.05024608
  eigenvalues    EBANDS =     -3594.55057246
  atomic energy  EATOM  =     12065.27733323
  Solvation  Ediel_sol  =         0.00000000
  ---------------------------------------------------
  free energy    TOTEN  =      -646.44895522 eV

  energy without entropy =     -646.39870914  energy(sigma->0) =     -646.42383218


--------------------------------------------------------------------------------------------------------




--------------------------------------- Iteration      1(  17)  ---------------------------------------


    POTLOK:  cpu time    0.4020: real time    0.4064
    SETDIJ:  cpu time    0.0124: real time    0.0124
    EDDIAG:  cpu time    2.0042: real time    2.0202
  RMM-DIIS:  cpu time    8.3646: real time    8.4238
    ORTHCH:  cpu time    0.3505: real time    0.3512
       DOS:  cpu time    0.0029: real time    0.0030
    CHARGE:  cpu time    0.4507: real time    0.4567
    MIXING:  cpu time    0.0098: real time    0.0098
    --------------------------------------------
      LOOP:  cpu time   11.5970: real time   11.6836

 eigenvalue-minimisations  :  2972
 total energy-change (2. order) : 0.9723356E-01  (-0.4467482E-02)
 number of electron     292.9999983 magnetization       0.0850544
 augmentation part       12.7201108 magnetization       0.0798380

 Broyden mixing:
  rms(total) = 0.28189E+00    rms(broyden)= 0.27863E+00
  rms(prec ) = 0.29079E+00
  weight for this iteration     100.00

 eigenvalues of (default mixing * dielectric matrix)
  average eigenvalue GAMMA=   0.8349
  2.2048  2.2048  0.4725  0.9110  0.9110  0.6067  0.6067  0.3459  0.3459  0.5377
  0.5377  0.3337

 Free energy of the ion-electron system (eV)
  ---------------------------------------------------
  alpha Z        PSCENC =       157.21188181
  Ewald energy   TEWEN  =     30440.51299134
  -Hartree energ DENC   =    -40657.82736465
  -exchange      EXHF   =         0.00000000
  -V(xc)+E(xc)   XCENC  =      1022.50403852
  PAW double counting   =     31143.43613969   -31242.03348998
  entropy T*S    EENTRO =        -0.07599674
  eigenvalues    EBANDS =     -3575.35725487
  atomic energy  EATOM  =     12065.27733323
  Solvation  Ediel_sol  =         0.00000000
  ---------------------------------------------------
  free energy    TOTEN  =      -646.35172166 eV

  energy without entropy =     -646.27572492  energy(sigma->0) =     -646.31372329


--------------------------------------------------------------------------------------------------------




--------------------------------------- Iteration      1(  18)  ---------------------------------------


    POTLOK:  cpu time    0.4099: real time    0.4142
    SETDIJ:  cpu time    0.0119: real time    0.0119
    EDDIAG:  cpu time    2.0989: real time    2.1168
  RMM-DIIS:  cpu time    8.2484: real time    8.3135
    ORTHCH:  cpu time    0.1885: real time    0.1889
       DOS:  cpu time    0.0011: real time    0.0011
    CHARGE:  cpu time    0.4498: real time    0.4569
    MIXING:  cpu time    0.0089: real time    0.0089
    --------------------------------------------
      LOOP:  cpu time   11.4173: real time   11.5121

 eigenvalue-minimisations  :  2944
 total energy-change (2. order) :-0.1101022E+00  (-0.2186090E-02)
 number of electron     292.9999983 magnetization       0.0343182
 augmentation part       12.8230509 magnetization      -0.2573623

 Broyden mixing:
  rms(total) = 0.43086E+00    rms(broyden)= 0.42946E+00
  rms(prec ) = 0.43896E+00
  weight for this iteration     100.00

 eigenvalues of (default mixing * dielectric matrix)
  average eigenvalue GAMMA=   0.8301
  2.2283  2.2283  0.4717  0.7036  0.7036  0.7974  0.7974  0.3460  0.3460  0.6855
  0.6855  0.3337  0.4640

 Free energy of the ion-electron system (eV)
  ---------------------------------------------------
  alpha Z        PSCENC =       157.21188181
  Ewald energy   TEWEN  =     30440.51299134
  -Hartree energ DENC   =    -40678.41453172
  -exchange      EXHF   =         0.00000000
  -V(xc)+E(xc)   XCENC  =      1022.69309807
  PAW double counting   =     31084.19708998   -31182.75375467
  entropy T*S    EENTRO =        -0.06344620
  eigenvalues    EBANDS =     -3555.12248568
  atomic energy  EATOM  =     12065.27733323
  Solvation  Ediel_sol  =         0.00000000
  ---------------------------------------------------
  free energy    TOTEN  =      -646.46182383 eV

  energy without entropy =     -646.39837763  energy(sigma->0) =     -646.43010073


--------------------------------------------------------------------------------------------------------




--------------------------------------- Iteration      1(  19)  ---------------------------------------


    POTLOK:  cpu time    0.4139: real time    0.4181
    SETDIJ:  cpu time    0.0123: real time    0.0124
    EDDIAG:  cpu time    2.0438: real time    2.0594
  RMM-DIIS:  cpu time    8.3830: real time    8.4459
    ORTHCH:  cpu time    0.1391: real time    0.1395
       DOS:  cpu time    0.0010: real time    0.0010
    CHARGE:  cpu time    0.4666: real time    0.4738
    MIXING:  cpu time    0.0094: real time    0.0094
    --------------------------------------------
      LOOP:  cpu time   11.4691: real time   11.5595

 eigenvalue-minimisations  :  2969
 total energy-change (2. order) : 0.3728922E-01  (-0.1850895E-02)
 number of electron     292.9999983 magnetization       0.0331424
 augmentation part       12.7060927 magnetization      -0.1923858

 Broyden mixing:
  rms(total) = 0.32743E+00    rms(broyden)= 0.32728E+00
  rms(prec ) = 0.33366E+00
  weight for this iteration     100.00

 eigenvalues of (default mixing * dielectric matrix)
  average eigenvalue GAMMA=   0.8867
  2.2310  2.2310  1.0709  1.5512  0.4706  0.6668  0.6668  0.3460  0.3460  0.7047
  0.7047  0.5449  0.5449  0.3338

 Free energy of the ion-electron system (eV)
  ---------------------------------------------------
  alpha Z        PSCENC =       157.21188181
  Ewald energy   TEWEN  =     30440.51299134
  -Hartree energ DENC   =    -40694.32364081
  -exchange      EXHF   =         0.00000000
  -V(xc)+E(xc)   XCENC  =      1022.80649392
  PAW double counting   =     31061.17714681   -31159.57177098
  entropy T*S    EENTRO =        -0.05855161
  eigenvalues    EBANDS =     -3539.45641832
  atomic energy  EATOM  =     12065.27733323
  Solvation  Ediel_sol  =         0.00000000
  ---------------------------------------------------
  free energy    TOTEN  =      -646.42453461 eV

  energy without entropy =     -646.36598301  energy(sigma->0) =     -646.39525881


--------------------------------------------------------------------------------------------------------




--------------------------------------- Iteration      1(  20)  ---------------------------------------


    POTLOK:  cpu time    0.4023: real time    0.4065
    SETDIJ:  cpu time    0.0123: real time    0.0124
    EDDIAG:  cpu time    2.0353: real time    2.0522
  RMM-DIIS:  cpu time    8.6531: real time    8.7186
    ORTHCH:  cpu time    0.2356: real time    0.2366
       DOS:  cpu time    0.0011: real time    0.0011
    CHARGE:  cpu time    0.4524: real time    0.4592
    MIXING:  cpu time    0.0101: real time    0.0102
    --------------------------------------------
      LOOP:  cpu time   11.8023: real time   11.8967

 eigenvalue-minimisations  :  3067
 total energy-change (2. order) :-0.9977198E-02  (-0.2983954E-03)
 number of electron     292.9999983 magnetization      -0.0143320
 augmentation part       12.7112079 magnetization      -0.2048837

 Broyden mixing:
  rms(total) = 0.28861E+00    rms(broyden)= 0.28856E+00
  rms(prec ) = 0.29482E+00
  weight for this iteration     100.00

 eigenvalues of (default mixing * dielectric matrix)
  average eigenvalue GAMMA=   0.8817
  2.5695  2.5695  1.7753  0.4707  0.6723  0.6723  0.9110  0.9110  0.3460  0.3460
  0.5511  0.3342  0.4721  0.4721  0.1528

 Free energy of the ion-electron system (eV)
  ---------------------------------------------------
  alpha Z        PSCENC =       157.21188181
  Ewald energy   TEWEN  =     30440.51299134
  -Hartree energ DENC   =    -40694.54951567
  -exchange      EXHF   =         0.00000000
  -V(xc)+E(xc)   XCENC  =      1022.80314066
  PAW double counting   =     31060.79984893   -31159.19550439
  entropy T*S    EENTRO =        -0.06081934
  eigenvalues    EBANDS =     -3539.23386838
[...]
  Hartree 40001.06847 39976.11540-39212.41456     2.84308     1.52601     0.79967
  E(xc)   -1111.04665 -1110.71740 -1150.17896     0.00080     0.00065    -0.00225
  Local  -83743.26460-83737.14546 86082.25220    -5.61379    -2.94913    -1.43707
  n-local  -289.22212  -286.49712  -269.89484    -0.14052     0.05848     0.01042
  augment    66.62816    64.97555    65.42117    -0.04548    -0.03146    -0.01680
  Kinetic  4383.29786  4370.50979  4984.66398     0.12625    -0.12970    -0.07099
  Fock        0.00000     0.00000     0.00000     0.00000     0.00000     0.00000
  vdW        -1.51866    -1.67363    -0.04128     0.00565     0.00003     0.00010
  -------------------------------------------------------------------------------------
  Total      -1.67351    -1.59445    -3.50719     0.06278    -0.00414     0.00108
  in kB      -0.94295    -0.89841    -1.97616     0.03537    -0.00233     0.00061
  external pressure =       -1.27 kB  Pullay stress =        0.00 kB


 VOLUME and BASIS-vectors are now :
 -----------------------------------------------------------------------------
  energy-cutoff  :      440.00
  volume of cell :     2843.47
      direct lattice vectors                 reciprocal lattice vectors
    14.859800864  0.001585983  0.000000000     0.067291470  0.039194507  0.000000000
    -7.429900432 12.756096762  0.000000000    -0.000008366  0.078389013  0.000000000
     0.000000000  0.000000000 15.000000000     0.000000000  0.000000000  0.066666667

  length of vectors
    14.859800949 14.762161936 15.000000000     0.077873944  0.078389014  0.066666667


 FORCES acting on ions
    electron-ion (+dipol)            ewald-force                    non-local-force                 convergence-correction
 -----------------------------------------------------------------------------------------------
   0.176E+01 0.263E+02 0.761E+01   -.178E+01 -.326E+02 -.763E+01   0.190E-01 0.630E+01 0.330E-01   -.896E-05 -.204E-04 -.157E-04
   -.212E+01 0.790E+00 0.930E+01   0.252E+01 -.643E+00 -.945E+01   -.389E+00 -.154E+00 0.146E+00   0.721E-05 0.197E-04 -.165E-04
   -.710E+01 0.445E+01 0.746E+01   0.784E+01 -.476E+01 -.748E+01   -.757E+00 0.313E+00 0.217E-01   -.358E-06 0.190E-04 -.336E-05
   -.127E+02 -.109E+01 0.767E+01   0.142E+02 0.779E+00 -.769E+01   -.146E+01 0.308E+00 0.185E-01   0.251E-05 0.266E-04 -.365E-04
   -.246E+01 0.135E+01 0.654E+01   0.265E+01 -.123E+01 -.656E+01   -.193E+00 -.116E+00 0.197E-01   -.113E-04 0.256E-04 -.399E-05
   0.766E-01 -.567E+00 0.696E+01   0.104E+00 0.644E+00 -.696E+01   -.174E+00 -.828E-01 0.251E-02   -.136E-04 0.236E-04 -.373E-04
   -.176E+01 0.250E+00 0.762E+01   0.183E+01 -.251E+00 -.765E+01   -.734E-01 0.243E-01 0.258E-01   0.114E-04 -.646E-05 -.162E-04
   0.190E+01 -.544E+00 0.786E+01   -.197E+01 0.572E+00 -.789E+01   0.677E-01 -.355E-01 0.293E-01   -.719E-05 0.160E-04 -.160E-04
   0.468E+00 0.330E+00 0.755E+01   -.599E+00 -.438E+00 -.755E+01   0.140E+00 0.107E+00 0.775E-02   0.179E-04 -.235E-04 -.369E-04
   0.216E+01 -.132E+01 0.734E+01   -.240E+01 0.117E+01 -.737E+01   0.223E+00 0.132E+00 0.250E-01   0.940E-05 -.256E-04 -.331E-05
   0.886E+01 0.372E+01 0.689E+01   -.965E+01 -.426E+01 -.690E+01   0.794E+00 0.544E+00 0.633E-02   -.417E-05 -.289E-04 -.362E-04
   0.103E+02 -.176E+01 0.670E+01   -.117E+02 0.120E+01 -.672E+01   0.140E+01 0.564E+00 0.181E-01   -.229E-05 -.236E-04 -.312E-05
   0.256E+02 -.888E+01 0.687E+01   -.311E+02 0.119E+02 -.689E+01   0.547E+01 -.302E+01 0.245E-01   0.199E-04 -.147E-05 -.815E-05
   0.869E+01 -.591E+01 0.644E+01   -.901E+01 0.727E+01 -.645E+01   0.304E+00 -.134E+01 0.729E-02   0.291E-04 0.606E-05 -.241E-04
   -.213E+02 -.866E+01 0.825E+01   0.267E+02 0.119E+02 -.821E+01   -.546E+01 -.329E+01 -.346E-01   0.923E-05 0.200E-04 -.473E-04
   -.868E+01 -.159E+01 0.992E+01   0.957E+01 0.325E+01 -.998E+01   -.883E+00 -.166E+01 0.591E-01   0.154E-05 -.437E-05 -.109E-03
   -.361E+01 0.679E+01 0.758E+01   0.420E+01 -.609E+01 -.760E+01   -.581E+00 -.739E+00 0.223E-01   -.410E-05 0.267E-04 -.728E-04
   -.391E+01 0.457E+01 0.581E+01   0.418E+01 -.374E+01 -.539E+01   -.280E+00 -.853E+00 -.421E+00   -.213E-05 0.207E-04 -.162E-03
   -.252E+01 0.530E+01 0.831E+01   0.258E+01 -.513E+01 -.832E+01   -.387E-01 -.181E+00 0.139E-01   -.973E-05 0.257E-04 -.480E-04
   0.133E+01 0.651E+01 0.973E+01   -.177E+01 -.626E+01 -.983E+01   0.427E+00 -.254E+00 0.987E-01   -.104E-05 0.541E-05 -.110E-03
   -.976E+00 0.459E+01 0.779E+01   0.878E+00 -.460E+01 -.779E+01   0.861E-01 0.224E-01 0.827E-02   -.152E-04 0.244E-05 -.809E-05
   -.744E+00 0.271E+01 0.791E+01   0.615E+00 -.274E+01 -.793E+01   0.134E+00 0.406E-01 0.276E-01   -.290E-04 0.166E-04 -.245E-04
   0.372E+01 0.272E+01 0.603E+01   -.431E+01 -.248E+01 -.602E+01   0.578E+00 -.240E+00 -.144E-01   0.499E-05 -.276E-04 0.610E-05
   0.400E+01 0.395E+00 0.601E+01   -.427E+01 -.277E+00 -.604E+01   0.278E+00 -.119E+00 0.207E-01   0.473E-06 0.337E-05 0.766E-05
   0.255E+01 -.357E+00 0.517E+01   -.308E+01 0.693E+00 -.516E+01   0.539E+00 -.319E+00 -.169E-01   0.193E-04 -.389E-05 -.654E-05
   0.479E+01 0.304E+01 0.543E+01   -.486E+01 -.282E+01 -.547E+01   0.753E-01 -.200E+00 0.290E-01   0.144E-04 -.526E-05 -.200E-04
   0.431E+01 0.984E+00 0.691E+01   -.410E+01 -.176E+00 -.687E+01   -.225E+00 -.812E+00 -.393E-01   0.152E-04 -.149E-04 -.855E-04
   0.114E+02 0.244E+01 0.608E+01   -.112E+02 -.179E+01 -.621E+01   -.223E+00 -.647E+00 0.126E+00   0.919E-05 0.791E-05 -.125E-03
   -.264E+01 0.146E+02 0.117E+02   0.347E+01 -.132E+02 -.118E+02   -.851E+00 -.133E+01 0.165E+00   0.328E-04 0.381E-05 -.197E-03
   -.102E+02 0.326E+02 0.237E+02   0.167E+02 -.287E+02 -.227E+02   -.651E+01 -.382E+01 -.965E+00   0.404E-04 0.209E-04 -.280E-03
   0.413E+00 0.175E+02 0.110E+02   -.526E+00 -.165E+02 -.113E+02   0.114E+00 -.106E+01 0.243E+00   -.319E-04 0.119E-04 -.198E-03
   0.712E+01 0.341E+02 0.229E+02   -.133E+02 -.305E+02 -.219E+02   0.623E+01 -.361E+01 -.960E+00   -.339E-04 0.258E-04 -.280E-03
   -.408E+01 0.986E+01 0.780E+01   0.386E+01 -.987E+01 -.776E+01   0.230E+00 0.415E-02 -.363E-01   -.150E-04 -.435E-05 -.860E-04
   -.111E+02 0.672E+01 0.753E+01   0.109E+02 -.662E+01 -.766E+01   0.226E+00 -.956E-01 0.132E+00   -.113E-04 0.168E-04 -.124E-03
   -.559E+00 0.276E+01 0.659E+01   0.330E+00 -.270E+01 -.658E+01   0.223E+00 -.697E-01 -.180E-01   -.185E-04 0.613E-05 -.652E-05
   -.236E+01 0.346E+01 0.738E+01   0.229E+01 -.339E+01 -.742E+01   0.874E-01 -.562E-01 0.402E-01   -.230E-04 -.429E-07 -.195E-04
   0.648E-01 -.987E+00 0.618E+01   -.166E+00 0.108E+01 -.620E+01   0.822E-01 -.824E-01 0.169E-01   -.830E-05 -.114E-04 -.976E-05
   0.728E+00 0.259E+00 0.624E+01   -.709E+00 -.267E+00 -.626E+01   -.151E-01 0.483E-02 0.153E-01   -.113E-04 0.122E-04 -.977E-05
   0.554E+01 -.164E+01 0.390E+01   -.558E+01 0.181E+01 -.387E+01   0.449E-01 -.184E+00 -.380E-01   0.356E-04 -.881E-05 -.669E-04
   0.524E+01 -.165E+01 0.400E+01   -.519E+01 0.176E+01 -.396E+01   -.501E-01 -.119E+00 -.364E-01   0.318E-04 -.983E-07 -.669E-04
   0.245E+02 0.578E+01 0.140E+02   -.235E+02 -.608E+01 -.145E+02   -.977E+00 0.294E+00 0.515E+00   0.272E-04 0.111E-04 -.224E-03
   0.247E+02 -.900E+01 0.140E+02   -.238E+02 0.958E+01 -.145E+02   -.880E+00 -.600E+00 0.553E+00   0.352E-04 -.117E-04 -.223E-03
   -.246E+02 0.848E+01 0.135E+02   0.238E+02 -.897E+01 -.140E+02   0.821E+00 0.499E+00 0.512E+00   -.230E-04 0.210E-04 -.223E-03
   -.243E+02 -.737E+01 0.135E+02   0.234E+02 0.778E+01 -.140E+02   0.880E+00 -.387E+00 0.520E+00   -.260E-04 -.752E-05 -.223E-03
   -.546E+01 0.389E+00 0.666E+01   0.535E+01 -.409E+00 -.663E+01   0.121E+00 0.281E-01 -.261E-01   -.344E-04 0.139E-05 -.665E-04
   -.560E+01 0.469E+00 0.667E+01   0.555E+01 -.530E+00 -.664E+01   0.676E-01 0.718E-01 -.267E-01   -.387E-04 0.728E-05 -.661E-04
   -.400E+01 -.360E+01 0.746E+01   0.398E+01 0.348E+01 -.750E+01   0.203E-01 0.897E-01 0.436E-01   -.263E-04 0.303E-05 -.194E-04
   -.151E+01 -.122E+01 0.664E+01   0.160E+01 0.107E+01 -.663E+01   -.955E-01 0.148E+00 -.184E-01   -.282E-04 -.407E-05 -.634E-05
   0.255E+01 -.446E+01 0.552E+01   -.255E+01 0.444E+01 -.555E+01   -.890E-02 0.236E-02 0.265E-01   0.927E-05 0.261E-05 -.199E-04
   0.458E+00 -.282E+01 0.515E+01   -.341E+00 0.278E+01 -.513E+01   -.111E+00 0.486E-01 -.222E-01   0.797E-05 -.206E-05 -.725E-05
   0.116E+02 -.749E+01 0.609E+01   -.114E+02 0.743E+01 -.620E+01   -.238E+00 0.656E-01 0.115E+00   0.143E-04 -.121E-04 -.125E-03
   0.427E+01 -.952E+01 0.687E+01   -.405E+01 0.956E+01 -.683E+01   -.226E+00 -.442E-01 -.376E-01   0.180E-04 0.889E-05 -.865E-04
   -.695E+01 -.349E+02 0.244E+02   0.132E+02 0.313E+02 -.234E+02   -.629E+01 0.355E+01 -.986E+00   0.457E-04 -.220E-04 -.280E-03
   -.256E+00 -.175E+02 0.124E+02   0.481E+00 0.165E+02 -.127E+02   -.223E+00 0.102E+01 0.245E+00   0.419E-04 -.157E-04 -.199E-03
   0.791E+01 -.338E+02 0.216E+02   -.142E+02 0.302E+02 -.205E+02   0.631E+01 0.364E+01 -.105E+01   -.295E-04 -.169E-04 -.280E-03
   0.117E+01 -.160E+02 0.113E+02   -.158E+01 0.149E+02 -.115E+02   0.427E+00 0.116E+01 0.214E+00   -.238E-04 -.117E-04 -.198E-03
   -.113E+02 -.584E+01 0.753E+01   0.111E+02 0.554E+01 -.766E+01   0.239E+00 0.303E+00 0.133E+00   -.118E-04 -.693E-05 -.124E-03
   -.412E+01 -.501E+01 0.780E+01   0.391E+01 0.473E+01 -.775E+01   0.222E+00 0.286E+00 -.437E-01   -.185E-04 0.114E-04 -.846E-04
   -.443E+01 -.218E+00 0.802E+01   0.440E+01 -.418E+00 -.804E+01   0.386E-01 0.611E+00 0.238E-01   -.390E-04 -.141E-04 -.238E-04
   -.640E+01 0.622E+01 0.786E+01   0.746E+01 -.713E+01 -.788E+01   -.106E+01 0.896E+00 0.188E-01   -.256E-04 -.608E-05 -.787E-05
   -.182E+01 -.134E+01 0.605E+01   0.192E+01 0.122E+01 -.608E+01   -.982E-01 0.131E+00 0.231E-01   -.827E-05 -.533E-05 0.722E-05
   -.364E+01 0.723E-01 0.599E+01   0.409E+01 -.273E+00 -.598E+01   -.448E+00 0.192E+00 -.186E-01   -.701E-05 0.263E-04 0.573E-05
   0.135E+01 -.262E+01 0.635E+01   -.126E+01 0.265E+01 -.637E+01   -.865E-01 -.355E-01 0.211E-01   0.275E-04 -.129E-04 -.252E-04
   0.127E+01 -.369E+01 0.677E+01   -.119E+01 0.372E+01 -.678E+01   -.960E-01 -.282E-01 0.633E-02   0.116E-04 0.279E-05 -.873E-05
   -.147E+01 -.653E+01 0.102E+02   0.194E+01 0.627E+01 -.103E+02   -.471E+00 0.261E+00 0.101E+00   0.688E-05 -.115E-05 -.110E-03
   0.246E+01 -.435E+01 0.866E+01   -.250E+01 0.421E+01 -.868E+01   0.434E-01 0.175E+00 0.179E-01   0.189E-04 -.201E-04 -.481E-04
   0.186E+01 -.581E+01 0.626E+01   -.195E+01 0.498E+01 -.583E+01   0.885E-01 0.865E+00 -.441E+00   0.102E-04 -.201E-04 -.163E-03
   0.344E+01 -.381E+01 0.740E+01   -.387E+01 0.315E+01 -.742E+01   0.432E+00 0.675E+00 0.196E-01   0.447E-05 -.268E-04 -.723E-04
   0.433E+01 -.398E+01 0.980E+01   -.488E+01 0.307E+01 -.988E+01   0.543E+00 0.910E+00 0.752E-01   0.377E-05 -.249E-05 -.108E-03
   0.257E+01 0.520E+01 0.804E+01   -.367E+01 -.631E+01 -.803E+01   0.111E+01 0.113E+01 -.546E-03   -.661E-05 -.302E-04 -.467E-04
   -.377E+00 0.611E+00 -.622E+03   0.454E+00 -.419E+00 0.604E+03   -.749E-01 -.198E+00 0.177E+02   0.218E-04 0.134E-04 -.123E-02
 -----------------------------------------------------------------------------------------------
   0.409E+00 0.376E+00 -.171E+02   0.799E-13 0.302E-12 0.341E-12   -.410E+00 -.372E+00 0.171E+02   0.800E-05 0.117E-04 -.669E-02
 
 
 POSITION                                       TOTAL-FORCE (eV/Angst)
 -----------------------------------------------------------------------------------
      0.00218      0.01079      7.46553        -0.003934      0.014594      0.003833
      0.00076      1.42132      7.46647         0.009921     -0.007280      0.003075
      2.48293      0.02452      7.46287        -0.015746      0.008196     -0.002013
      2.46630      1.44295      7.47343         0.003509      0.002917      0.000806
      4.95097      0.02836      7.46613        -0.008239     -0.002998     -0.004612
      4.94771      1.44755      7.47567         0.006608     -0.004950     -0.004157
      7.43162     -0.00066      7.46595         0.004033      0.023783     -0.000358
      7.43248      1.42172      7.46474        -0.006426     -0.008173     -0.000916
      2.48122     12.73117      7.47374         0.009022     -0.002958      0.000783
      9.91788      1.39469      7.46309        -0.008641     -0.012212     -0.001773
      4.95190     12.72883      7.47587         0.011381      0.006379     -0.000752
     12.39522      1.39093      7.46588         0.001051      0.001929     -0.004298
     13.62980      2.10695      7.46723         0.003171     -0.002904     -0.002641
     -1.23810      3.52056      7.47720        -0.005817      0.003215     -0.005230
      1.22550      2.13708      7.47616        -0.025230     -0.029537      0.003318
      1.22553      3.55809      7.50096         0.011072     -0.013313      0.003052
      3.70657      2.17349      7.49059         0.016518     -0.031356     -0.003232
      3.71365      3.58953      7.53800        -0.010171     -0.006968     -0.002039
      6.19240      2.14539      7.47625         0.014852     -0.014522     -0.000363
      6.19697      3.56811      7.50078        -0.021210      0.000928     -0.001297
      8.67928      2.11250      7.46286        -0.013222      0.010839      0.001293
      8.68201      3.53071      7.47054         0.004704      0.000232      0.002840
     11.15687      2.10618      7.46410        -0.019152     -0.003526     -0.004314
     11.14980      3.52529      7.46630         0.009625     -0.002822     -0.006692
     12.38111      4.23100      7.47470         0.005467      0.017371     -0.006676
     -2.48625      5.65615      7.48173         0.013743      0.019234     -0.005994
     -0.01577      4.24805      7.49996        -0.018719     -0.010955      0.000200
     -0.04152      5.66074      7.52501         0.004394     -0.001775     -0.005014
      2.46823      4.30014      7.55185        -0.008949      0.019727      0.015513
      2.42194      5.71461      7.64337        -0.003226     -0.018393      0.031892
      4.95889      4.31047      7.55377        -0.012206      0.009715     -0.000033
      5.00781      5.72235      7.64665         0.001526     -0.012974     -0.007632
      7.44880      4.24725      7.49485         0.011536     -0.015213      0.001931
      7.47482      5.66383      7.51800        -0.005174     -0.001572      0.000505
      9.91652      4.23902      7.46867        -0.005612     -0.005573     -0.000167
      9.92206      5.66215      7.47390         0.012581      0.009961      0.002011
     -3.71205      6.37338      7.47438        -0.019228      0.005253     -0.004163
     -3.71349      7.79835      7.47422         0.003830     -0.001341     -0.003811
     -1.26932      6.37488      7.50460        -0.000133     -0.012487     -0.005446
     -1.26804      7.79647      7.50449        -0.003126     -0.010331     -0.004381
      1.18008      6.36698      7.57815         0.000832     -0.019287      0.009055
      1.17970      7.80410      7.57839         0.020316     -0.006475      0.007258
      6.25514      6.37082      7.57752        -0.026345     -0.000974     -0.001685
      6.25552      7.80685      7.57778        -0.016682      0.033821      0.004270
      8.70051      6.37740      7.49327         0.020997      0.006424      0.004047
      8.70009      7.80023      7.49324         0.017237      0.012624      0.003102
     -4.94021      8.51543      7.47367        -0.003379     -0.029686      0.001505
     -4.94802      9.94086      7.46847        -0.002514      0.006528     -0.002611
     -2.48932      8.51226      7.48150        -0.007679     -0.018291     -0.005759
     -2.48376      9.93624      7.47477         0.005450      0.013645     -0.005606
     -0.04025      8.51008      7.52529         0.001856      0.007458     -0.001034
     -0.01511      9.92867      7.50017        -0.009556     -0.003212      0.000816
      2.42768      8.45240      7.64420        -0.004421      0.010123      0.007202
      2.47536      9.86535      7.55074         0.014872     -0.002892      0.005585
      5.00993      8.45843      7.64925         0.015961      0.012925      0.021447
      4.96452      9.87179      7.55330        -0.003061      0.000549      0.007390
      7.47418      8.51385      7.51811        -0.001919      0.008415      0.000136
      7.44909      9.93300      7.49476         0.010921      0.018213      0.003304
     -6.18563     10.65214      7.47036         0.016470     -0.024282      0.002664
     -6.18738     12.07617      7.46282        -0.004286     -0.009176      0.000641
     -3.71534     10.64881      7.46618        -0.003796      0.008272     -0.004292
     -3.71515     12.07282      7.46416         0.004764     -0.007788     -0.004577
     -1.24806     10.64549      7.47744         0.000897     -0.010467     -0.000615
     -1.24309     12.06475      7.46739        -0.013557      0.002176     -0.002950
      1.23694     10.60792      7.50076         0.007524     -0.004278      0.000650
      1.23942     12.03186      7.47558         0.009699      0.029964      0.000428
      3.71907     10.58481      7.53711         0.003475      0.022595     -0.006056
      3.71886     12.00626      7.49067        -0.001498      0.014005     -0.004940
      6.20388     10.61661      7.50047        -0.008247     -0.006143     -0.000181
      6.19930     12.04466      7.47670         0.008501      0.021291      0.001537
      3.71670      7.08935      8.31717         0.002782     -0.006220     -0.023780
 -----------------------------------------------------------------------------------
    total drift:                               -0.001032      0.004009      0.001788


--------------------------------------------------------------------------------------------------------



  FREE ENERGIE OF THE ION-ELECTRON SYSTEM (eV)
  ---------------------------------------------------
  free  energy   TOTEN  =      -653.48023953 eV

  energy  without entropy=     -653.44697412  energy(sigma->0) =     -653.46360683
 
 d Force = 0.2324816E-03[ 0.837E-04, 0.381E-03]  d Energy = 0.2419287E-03-0.945E-05
 d Force =-0.3807058E+00[-0.381E+00,-0.380E+00]  d Ewald  =-0.3807058E+00 0.103E-07


--------------------------------------------------------------------------------------------------------


    POTLOK:  cpu time    0.4063: real time    0.4076


--------------------------------------------------------------------------------------------------------


 stress matrix after NEB project (eV)
     -1.67351      0.06278      0.00108
      0.06278     -1.59445     -0.00414
      0.00108     -0.00414     -3.50719
  FORCES: max atom, RMS     0.038987    0.018804
  FORCE total and by dimension    0.158448    0.033821
  Stress total and by dimension    4.201339    3.507194


--------------------------------------------------------------------------------------------------------


  
 reached required accuracy - stopping structural energy minimisation
     LOOP+:  cpu time  101.2015: real time  101.9301
    4ORBIT:  cpu time    0.0000: real time    0.0000

 total amount of memory used by VASP MPI-rank0   111612. kBytes
=======================================================================

   base      :      30000. kBytes
   nonlr-proj:       9927. kBytes
   fftplans  :      10852. kBytes
   grid      :      30996. kBytes
   one-center:        186. kBytes
   wavefun   :      29651. kBytes
 
  
  
 General timing and accounting informations for this job:
 ========================================================
  
                  Total CPU time used (sec):     1736.261
                            User time (sec):     1725.889
                          System time (sec):       10.372
                         Elapsed time (sec):     1755.465
  
                   Maximum memory used (kb):      488284.
                   Average memory used (kb):           0.
  
                          Minor page faults:      1878665
                          Major page faults:            0
                 Voluntary context switches:        11906
