       N       E                     dE             d eps       ncg     rms          ort
DAV:   1     0.254798707710E+04    0.25480E+04   -0.11589E+05   768   0.110E+03
DAV:   2    -0.238631128084E+03   -0.27866E+04   -0.26607E+04   768   0.280E+02
DAV:   3    -0.702797525297E+03   -0.46417E+03   -0.46091E+03   768   0.121E+02
DAV:   4    -0.719558716113E+03   -0.16761E+02   -0.16622E+02   768   0.282E+01
DAV:   5    -0.720106184428E+03   -0.54747E+00   -0.54563E+00   768   0.429E+00
SDA:   6    -0.548939930827E+03    0.17117E+03   -0.54563E+00   768   0.502E+03 0.000E+00
CGA:   7    -0.601525696440E+03   -0.52586E+02   -0.25230E+02   768   0.340E+03 0.473E+03
CGA:   8    -0.637466018953E+03   -0.35940E+02   -0.15551E+02   768   0.168E+03 0.305E+03
CGA:   9    -0.651078759212E+03   -0.13613E+02   -0.91000E+01   768   0.368E+02 0.385E+02
CGA:  10    -0.658401888600E+03   -0.73231E+01   -0.72953E+01   768   0.249E+02-0.613E+00
CGA:  11    -0.660314109820E+03   -0.19122E+01   -0.18570E+01   768   0.616E+01 0.703E+00
CGA:  12    -0.661152183726E+03   -0.83807E+00   -0.83917E+00   768   0.655E+01-0.165E-01
CGA:  13    -0.661770856063E+03   -0.61867E+00   -0.45616E+00   768   0.206E+01 0.195E+01
CGA:  14    -0.661917240702E+03   -0.14638E+00   -0.13504E+00   768   0.115E+01 0.123E+00
CGA:  15    -0.662048365700E+03   -0.13112E+00   -0.13022E+00   768   0.204E+01 0.120E-02
CGA:  16    -0.662146345946E+03   -0.97980E-01   -0.69065E-01   768   0.125E+01 0.858E+00
CGA:  17    -0.662218079725E+03   -0.71734E-01   -0.62519E-01   768   0.428E+00 0.239E+00
CGA:  18    -0.662257264384E+03   -0.39185E-01   -0.40532E-01   768   0.706E+00-0.409E-02
CGA:  19    -0.662287117779E+03   -0.29853E-01   -0.17847E-01   768   0.697E+00 0.466E+00
CGA:  20    -0.662338671332E+03   -0.51554E-01   -0.52547E-01   768   0.188E+00-0.327E-02
CGA:  21    -0.662395555462E+03   -0.56884E-01   -0.51078E-01   768   0.447E-01 0.355E-01
CGA:  22    -0.662426899275E+03   -0.31344E-01   -0.26757E-01   768   0.460E-01 0.131E-01
CGA:  23    -0.662436698235E+03   -0.97990E-02   -0.98033E-02   768   0.545E-01-0.114E-03
CGA:  24    -0.662449020415E+03   -0.12322E-01   -0.12484E-01   768   0.157E-01-0.231E-02
CGA:  25    -0.662452220324E+03   -0.31999E-02   -0.31611E-02   768   0.215E-01 0.474E-03
CGA:  26    -0.662455548488E+03   -0.33282E-02   -0.33245E-02   768   0.747E-02-0.927E-04
CGA:  27    -0.662459194758E+03   -0.36463E-02   -0.35808E-02   768   0.625E-02 0.170E-03
CGA:  28    -0.662460400426E+03   -0.12057E-02   -0.12029E-02   768   0.722E-02 0.146E-03
CGA:  29    -0.662462137516E+03   -0.17371E-02   -0.17493E-02   768   0.168E-02-0.145E-03
CGA:  30    -0.662462810602E+03   -0.67309E-03   -0.66061E-03   768   0.122E-02 0.526E-04
CGA:  31    -0.662462981135E+03   -0.17053E-03   -0.17052E-03   768   0.648E-03 0.108E-04
CGA:  32    -0.662463202169E+03   -0.22103E-03   -0.21836E-03   768   0.272E-03 0.177E-04
CGA:  33    -0.662463322847E+03   -0.12068E-03   -0.12010E-03   768   0.328E-03 0.225E-05
CGA:  34    -0.662463366697E+03   -0.43851E-04   -0.43881E-04   768   0.138E-03-0.725E-07
   1 F= -.66899847E+03 E0= -.66898122E+03  d E =-.668998E+03  mag=     1.6902
       N       E                     dE             d eps       ncg     rms          ort
SDA:   1    -0.661395612317E+03    0.10677E+01    0.00000E+00   768   0.351E+01 0.000E+00
CGA:   2    -0.661896429948E+03   -0.50082E+00   -0.50302E+00   768   0.158E+01 0.649E-03
CGA:   3    -0.662197158708E+03   -0.30073E+00   -0.30017E+00   768   0.100E+01-0.142E-01
CGA:   4    -0.662374475527E+03   -0.17732E+00   -0.17778E+00   768   0.342E+00 0.512E-02
CGA:   5    -0.662435687726E+03   -0.61212E-01   -0.61158E-01   768   0.115E+00-0.523E-03
CGA:   6    -0.662457751168E+03   -0.22063E-01   -0.22076E-01   768   0.499E-01 0.402E-03
CGA:   7    -0.662467533099E+03   -0.97819E-02   -0.97781E-02   768   0.261E-01-0.169E-03
CGA:   8    -0.662471832050E+03   -0.42990E-02   -0.43023E-02   768   0.105E-01 0.381E-04
CGA:   9    -0.662473783165E+03   -0.19511E-02   -0.19507E-02   768   0.328E-02-0.406E-05
CGA:  10    -0.662474425548E+03   -0.64238E-03   -0.64245E-03   768   0.117E-02 0.923E-05
CGA:  11    -0.662474629765E+03   -0.20422E-03   -0.20421E-03   768   0.541E-03 0.270E-06
CGA:  12    -0.662474723763E+03   -0.93998E-04   -0.94012E-04   768   0.184E-03 0.873E-06
   2 F= -.66900969E+03 E0= -.66899246E+03  d E =-.112267E-01  mag=     1.6241
       N       E                     dE             d eps       ncg     rms          ort
SDA:   1    -0.662330604582E+03    0.14403E+00    0.00000E+00   768   0.479E+00 0.000E+00
CGA:   2    -0.662401328835E+03   -0.70724E-01   -0.70668E-01   768   0.216E+00-0.328E-03
CGA:   3    -0.662442746332E+03   -0.41417E-01   -0.41424E-01   768   0.133E+00 0.464E-03
CGA:   4    -0.662466644445E+03   -0.23898E-01   -0.23884E-01   768   0.494E-01-0.346E-03
CGA:   5    -0.662475058833E+03   -0.84144E-02   -0.84167E-02   768   0.166E-01 0.178E-04
CGA:   6    -0.662478178297E+03   -0.31195E-02   -0.31191E-02   768   0.747E-02-0.247E-04
CGA:   7    -0.662479555657E+03   -0.13774E-02   -0.13775E-02   768   0.381E-02 0.633E-05
CGA:   8    -0.662480194836E+03   -0.63918E-03   -0.63885E-03   768   0.149E-02-0.883E-05
CGA:   9    -0.662480478312E+03   -0.28348E-03   -0.28347E-03   768   0.482E-03-0.410E-05
CGA:  10    -0.662480569228E+03   -0.90916E-04   -0.90901E-04   768   0.178E-03-0.338E-05
   3 F= -.66901559E+03 E0= -.66899833E+03  d E =-.171261E-01  mag=     1.6387
       N       E                     dE             d eps       ncg     rms          ort
SDA:   1    -0.662159768687E+03    0.32071E+00    0.00000E+00   768   0.120E+01 0.000E+00
CGA:   2    -0.662313814996E+03   -0.15405E+00   -0.15448E+00   768   0.452E+00 0.103E-03
CGA:   3    -0.662401625899E+03   -0.87811E-01   -0.87849E-01   768   0.319E+00-0.395E-02
CGA:   4    -0.662463543259E+03   -0.61917E-01   -0.61892E-01   768   0.136E+00 0.210E-02
CGA:   5    -0.662488430326E+03   -0.24887E-01   -0.24882E-01   768   0.466E-01-0.332E-03
CGA:   6    -0.662496572412E+03   -0.81421E-02   -0.81452E-02   768   0.171E-01 0.111E-03
CGA:   7    -0.662499642829E+03   -0.30704E-02   -0.30700E-02   768   0.852E-02-0.163E-04
CGA:   8    -0.662501047357E+03   -0.14045E-02   -0.14050E-02   768   0.327E-02 0.163E-04
CGA:   9    -0.662501660922E+03   -0.61357E-03   -0.61356E-03   768   0.102E-02 0.363E-05
CGA:  10    -0.662501854360E+03   -0.19344E-03   -0.19343E-03   768   0.398E-03 0.328E-05
CGA:  11    -0.662501920744E+03   -0.66385E-04   -0.66372E-04   768   0.180E-03-0.539E-06
   4 F= -.66903659E+03 E0= -.66901913E+03  d E =-.209943E-01  mag=     1.5933
       N       E                     dE             d eps       ncg     rms          ort
SDA:   1    -0.659463586258E+03    0.30383E+01    0.00000E+00   768   0.112E+02 0.000E+00
CGA:   2    -0.660835122779E+03   -0.13715E+01   -0.13849E+01   768   0.419E+01-0.287E-01
CGA:   3    -0.661619379727E+03   -0.78426E+00   -0.78520E+00   768   0.303E+01-0.122E+00
CGA:   4    -0.662196067870E+03   -0.57669E+00   -0.57526E+00   768   0.117E+01 0.682E-01
CGA:   5    -0.662425200120E+03   -0.22913E+00   -0.22924E+00   768   0.411E+00-0.765E-02
CGA:   6    -0.662498243475E+03   -0.73043E-01   -0.73074E-01   768   0.149E+00 0.324E-02
CGA:   7    -0.662525886624E+03   -0.27643E-01   -0.27644E-01   768   0.779E-01-0.747E-03
CGA:   8    -0.662538376353E+03   -0.12490E-01   -0.12496E-01   768   0.303E-01 0.160E-03
CGA:   9    -0.662544013694E+03   -0.56373E-02   -0.56378E-02   768   0.975E-02-0.809E-04
CGA:  10    -0.662545905015E+03   -0.18913E-02   -0.18912E-02   768   0.380E-02 0.128E-04
CGA:  11    -0.662546566587E+03   -0.66157E-03   -0.66147E-03   768   0.200E-02-0.674E-05
CGA:  12    -0.662546942057E+03   -0.37547E-03   -0.37550E-03   768   0.891E-03-0.245E-05
CGA:  13    -0.662547182492E+03   -0.24044E-03   -0.24078E-03   768   0.727E-03-0.420E-05
CGA:  14    -0.662547327443E+03   -0.14495E-03   -0.14499E-03   768   0.598E-03-0.109E-05
CGA:  15    -0.662547480073E+03   -0.15263E-03   -0.15261E-03   768   0.379E-03-0.155E-06
CGA:  16    -0.662547578109E+03   -0.98036E-04   -0.98017E-04   768   0.325E-03 0.105E-05
   5 F= -.66908170E+03 E0= -.66906513E+03  d E =-.661111E-01  mag=     1.4296
       N       E                     dE             d eps       ncg     rms          ort
SDA:   1    -0.650123581635E+03    0.12424E+02    0.00000E+00   768   0.490E+02 0.000E+00
CGA:   2    -0.655533932287E+03   -0.54104E+01   -0.55834E+01   768   0.184E+02-0.948E+00
CGA:   3    -0.658630698532E+03   -0.30968E+01   -0.30666E+01   768   0.125E+02-0.763E+00
CGA:   4    -0.661062971814E+03   -0.24323E+01   -0.24198E+01   768   0.449E+01 0.625E+00
CGA:   5    -0.662010658814E+03   -0.94769E+00   -0.94688E+00   768   0.163E+01 0.516E-01
CGA:   6    -0.662320165351E+03   -0.30951E+00   -0.30945E+00   768   0.649E+00-0.789E-02
CGA:   7    -0.662440299738E+03   -0.12013E+00   -0.12022E+00   768   0.325E+00 0.115E-01
CGA:   8    -0.662491450232E+03   -0.51150E-01   -0.50970E-01   768   0.150E+00-0.128E-02
CGA:   9    -0.662518061713E+03   -0.26611E-01   -0.26629E-01   768   0.420E-01 0.903E-03
CGA:  10    -0.662527243564E+03   -0.91819E-02   -0.91899E-02   768   0.148E-01-0.188E-03
CGA:  11    -0.662530370831E+03   -0.31273E-02   -0.31265E-02   768   0.903E-02 0.242E-04
CGA:  12    -0.662531726537E+03   -0.13557E-02   -0.13538E-02   768   0.429E-02-0.188E-04
CGA:  13    -0.662532831609E+03   -0.11051E-02   -0.11056E-02   768   0.228E-02-0.538E-05
CGA:  14    -0.662533488446E+03   -0.65684E-03   -0.65828E-03   768   0.237E-02-0.147E-04
CGA:  15    -0.662533866682E+03   -0.37824E-03   -0.37817E-03   768   0.131E-02 0.173E-05
CGA:  16    -0.662534247115E+03   -0.38043E-03   -0.38079E-03   768   0.672E-03-0.375E-05
CGA:  17    -0.662534395206E+03   -0.14809E-03   -0.14807E-03   768   0.591E-03 0.193E-05
CGA:  18    -0.662534499385E+03   -0.10418E-03   -0.10417E-03   768   0.226E-03-0.976E-06
CGA:  19    -0.662534568045E+03   -0.68660E-04   -0.68647E-04   768   0.166E-03 0.357E-06
   6 F= -.66907141E+03 E0= -.66905596E+03  d E =-.558143E-01  mag=     1.3546
       N       E                     dE             d eps       ncg     rms          ort
SDA:   1    -0.657895154896E+03    0.46393E+01    0.00000E+00   768   0.160E+02 0.000E+00
CGA:   2    -0.660088443843E+03   -0.21933E+01   -0.21930E+01   768   0.588E+01-0.845E-01
CGA:   3    -0.661280917795E+03   -0.11925E+01   -0.11922E+01   768   0.414E+01 0.172E-02
CGA:   4    -0.662062833169E+03   -0.78192E+00   -0.78006E+00   768   0.189E+01-0.877E-01
CGA:   5    -0.662378069185E+03   -0.31524E+00   -0.31621E+00   768   0.622E+00 0.767E-02
CGA:   6    -0.662486045035E+03   -0.10798E+00   -0.10762E+00   768   0.263E+00-0.600E-02
CGA:   7    -0.662527884665E+03   -0.41840E-01   -0.41904E-01   768   0.114E+00 0.368E-03
CGA:   8    -0.662548121733E+03   -0.20237E-01   -0.20212E-01   768   0.454E-01-0.619E-03
CGA:   9    -0.662556543936E+03   -0.84222E-02   -0.84237E-02   768   0.151E-01 0.880E-04
CGA:  10    -0.662559089662E+03   -0.25457E-02   -0.25437E-02   768   0.614E-02-0.389E-04
CGA:  11    -0.662560074458E+03   -0.98480E-03   -0.98490E-03   768   0.220E-02 0.658E-06
CGA:  12    -0.662560515706E+03   -0.44125E-03   -0.44128E-03   768   0.940E-03-0.290E-05
CGA:  13    -0.662560698601E+03   -0.18289E-03   -0.18289E-03   768   0.605E-03 0.277E-05
CGA:  14    -0.662560812681E+03   -0.11408E-03   -0.11408E-03   768   0.336E-03 0.718E-06
CGA:  15    -0.662560899976E+03   -0.87295E-04   -0.87213E-04   768   0.271E-03 0.156E-05
   7 F= -.66909556E+03 E0= -.66908063E+03  d E =-.799718E-01  mag=     1.3388
       N       E                     dE             d eps       ncg     rms          ort
SDA:   1    -0.661997032450E+03    0.56378E+00    0.00000E+00   768   0.202E+01 0.000E+00
CGA:   2    -0.662260617799E+03   -0.26359E+00   -0.26440E+00   768   0.881E+00-0.133E-02
CGA:   3    -0.662419608855E+03   -0.15899E+00   -0.15883E+00   768   0.571E+00-0.767E-02
CGA:   4    -0.662524301644E+03   -0.10469E+00   -0.10475E+00   768   0.208E+00 0.441E-02
CGA:   5    -0.662561230565E+03   -0.36929E-01   -0.36915E-01   768   0.718E-01-0.269E-03
CGA:   6    -0.662573728915E+03   -0.12498E-01   -0.12508E-01   768   0.330E-01 0.306E-03
CGA:   7    -0.662579305282E+03   -0.55764E-02   -0.55740E-02   768   0.165E-01-0.286E-04
CGA:   8    -0.662582221217E+03   -0.29159E-02   -0.29168E-02   768   0.630E-02 0.453E-04
CGA:   9    -0.662583432846E+03   -0.12116E-02   -0.12117E-02   768   0.220E-02-0.563E-05
CGA:  10    -0.662583781510E+03   -0.34866E-03   -0.34883E-03   768   0.878E-03 0.465E-05
CGA:  11    -0.662583925763E+03   -0.14425E-03   -0.14425E-03   768   0.289E-03 0.407E-06
CGA:  12    -0.662583982512E+03   -0.56749E-04   -0.56738E-04   768   0.120E-03 0.111E-05
   8 F= -.66911946E+03 E0= -.66910394E+03  d E =-.238980E-01  mag=     1.3506
       N       E                     dE             d eps       ncg     rms          ort
SDA:   1    -0.657320781266E+03    0.52631E+01    0.00000E+00   768   0.191E+02 0.000E+00
CGA:   2    -0.659630041770E+03   -0.23093E+01   -0.23428E+01   768   0.831E+01-0.118E+00
CGA:   3    -0.661071145250E+03   -0.14411E+01   -0.14380E+01   768   0.540E+01-0.220E+00
CGA:   4    -0.662062298662E+03   -0.99115E+00   -0.98970E+00   768   0.176E+01 0.144E+00
CGA:   5    -0.662401856494E+03   -0.33956E+00   -0.33963E+00   768   0.618E+00-0.462E-02
CGA:   6    -0.662517650677E+03   -0.11579E+00   -0.11572E+00   768   0.270E+00 0.891E-02
CGA:   7    -0.662565773297E+03   -0.48123E-01   -0.48098E-01   768   0.161E+00-0.139E-02
CGA:   8    -0.662590640995E+03   -0.24868E-01   -0.24915E-01   768   0.602E-01 0.756E-03
CGA:   9    -0.662602561713E+03   -0.11921E-01   -0.11928E-01   768   0.180E-01-0.262E-03
CGA:  10    -0.662605974230E+03   -0.34125E-02   -0.34120E-02   768   0.789E-02 0.452E-04
CGA:  11    -0.662607129619E+03   -0.11554E-02   -0.11548E-02   768   0.337E-02-0.631E-05
CGA:  12    -0.662607769393E+03   -0.63977E-03   -0.63978E-03   768   0.117E-02 0.114E-05
CGA:  13    -0.662608043130E+03   -0.27374E-03   -0.27393E-03   768   0.845E-03-0.390E-05
CGA:  14    -0.662608173596E+03   -0.13047E-03   -0.13040E-03   768   0.471E-03-0.674E-06
CGA:  15    -0.662608299754E+03   -0.12616E-03   -0.12626E-03   768   0.296E-03-0.148E-05
CGA:  16    -0.662608366499E+03   -0.66745E-04   -0.66726E-04   768   0.278E-03 0.767E-06
   9 F= -.66914711E+03 E0= -.66912798E+03  d E =-.515452E-01  mag=     1.4559
       N       E                     dE             d eps       ncg     rms          ort
SDA:   1    -0.662146885562E+03    0.46141E+00    0.00000E+00   768   0.156E+01 0.000E+00
CGA:   2    -0.662364181753E+03   -0.21730E+00   -0.21801E+00   768   0.917E+00 0.580E-03
CGA:   3    -0.662514716985E+03   -0.15054E+00   -0.15043E+00   768   0.450E+00-0.257E-02
CGA:   4    -0.662596676068E+03   -0.81959E-01   -0.81964E-01   768   0.124E+00 0.186E-02
CGA:   5    -0.662617728911E+03   -0.21053E-01   -0.21049E-01   768   0.407E-01-0.266E-04
CGA:   6    -0.662625101352E+03   -0.73724E-02   -0.73730E-02   768   0.204E-01 0.164E-03
CGA:   7    -0.662628366691E+03   -0.32653E-02   -0.32652E-02   768   0.105E-01 0.161E-04
CGA:   8    -0.662630335471E+03   -0.19688E-02   -0.19685E-02   768   0.462E-02 0.380E-04
CGA:   9    -0.662631267404E+03   -0.93193E-03   -0.93213E-03   768   0.174E-02-0.764E-05
CGA:  10    -0.662631557106E+03   -0.28970E-03   -0.28977E-03   768   0.848E-03 0.311E-05
CGA:  11    -0.662631691160E+03   -0.13405E-03   -0.13405E-03   768   0.269E-03 0.404E-07
CGA:  12    -0.662631746187E+03   -0.55026E-04   -0.55006E-04   768   0.115E-03 0.867E-06
  10 F= -.66917215E+03 E0= -.66915137E+03  d E =-.250436E-01  mag=     1.5250
       N       E                     dE             d eps       ncg     rms          ort
SDA:   1    -0.658285701595E+03    0.43460E+01    0.00000E+00   768   0.144E+02 0.000E+00
CGA:   2    -0.660224684230E+03   -0.19390E+01   -0.19647E+01   768   0.810E+01 0.891E-01
CGA:   3    -0.661613961097E+03   -0.13893E+01   -0.13881E+01   768   0.398E+01-0.790E-01
CGA:   4    -0.662337525311E+03   -0.72356E+00   -0.72324E+00   768   0.102E+01 0.495E-01
CGA:   5    -0.662521289857E+03   -0.18376E+00   -0.18376E+00   768   0.347E+00-0.203E-02
CGA:   6    -0.662588823295E+03   -0.67533E-01   -0.67454E-01   768   0.167E+00 0.365E-02
CGA:   7    -0.662618672489E+03   -0.29849E-01   -0.29846E-01   768   0.955E-01-0.285E-03
CGA:   8    -0.662635502737E+03   -0.16830E-01   -0.16836E-01   768   0.418E-01 0.887E-03
CGA:   9    -0.662643770883E+03   -0.82681E-02   -0.82713E-02   768   0.138E-01-0.126E-03
CGA:  10    -0.662646546980E+03   -0.27761E-02   -0.27747E-02   768   0.624E-02 0.440E-04
CGA:  11    -0.662647523361E+03   -0.97638E-03   -0.97624E-03   768   0.260E-02-0.447E-05
CGA:  12    -0.662648017732E+03   -0.49437E-03   -0.49435E-03   768   0.937E-03 0.153E-05
CGA:  13    -0.662648236103E+03   -0.21837E-03   -0.21849E-03   768   0.593E-03-0.286E-05
CGA:  14    -0.662648338016E+03   -0.10191E-03   -0.10191E-03   768   0.367E-03-0.670E-07
CGA:  15    -0.662648433907E+03   -0.95891E-04   -0.95930E-04   768   0.222E-03-0.737E-06
  11 F= -.66919405E+03 E0= -.66916988E+03  d E =-.469396E-01  mag=     1.8462
       N       E                     dE             d eps       ncg     rms          ort
SDA:   1    -0.662280841677E+03    0.36750E+00    0.00000E+00   768   0.119E+01 0.000E+00
CGA:   2    -0.662453233076E+03   -0.17239E+00   -0.17128E+00   768   0.667E+00-0.368E-02
CGA:   3    -0.662564295609E+03   -0.11106E+00   -0.11115E+00   768   0.337E+00 0.205E-02
CGA:   4    -0.662628076665E+03   -0.63781E-01   -0.63784E-01   768   0.898E-01-0.110E-02
CGA:   5    -0.662643237191E+03   -0.15161E-01   -0.15166E-01   768   0.298E-01 0.839E-04
CGA:   6    -0.662648651046E+03   -0.54139E-02   -0.54131E-02   768   0.144E-01-0.100E-03
CGA:   7    -0.662651069449E+03   -0.24184E-02   -0.24186E-02   768   0.721E-02-0.457E-05
CGA:   8    -0.662652457881E+03   -0.13884E-02   -0.13887E-02   768   0.338E-02-0.225E-04
CGA:   9    -0.662653099620E+03   -0.64174E-03   -0.64170E-03   768   0.120E-02 0.523E-05
CGA:  10    -0.662653312592E+03   -0.21297E-03   -0.21294E-03   768   0.535E-03-0.274E-05
CGA:  11    -0.662653397385E+03   -0.84793E-04   -0.84789E-04   768   0.182E-03-0.324E-06
  12 F= -.66919748E+03 E0= -.66917351E+03  d E =-.503720E-01  mag=     1.7641
       N       E                     dE             d eps       ncg     rms          ort
SDA:   1    -0.662172649236E+03    0.48066E+00    0.00000E+00   768   0.138E+01 0.000E+00
CGA:   2    -0.662438723050E+03   -0.26607E+00   -0.26583E+00   768   0.113E+01 0.174E-01
CGA:   3    -0.662605127429E+03   -0.16640E+00   -0.16620E+00   768   0.375E+00-0.888E-03
CGA:   4    -0.662671429903E+03   -0.66302E-01   -0.66310E-01   768   0.569E-01 0.616E-03
CGA:   5    -0.662682214499E+03   -0.10785E-01   -0.10784E-01   768   0.234E-01 0.322E-04
CGA:   6    -0.662686197848E+03   -0.39833E-02   -0.39842E-02   768   0.833E-02 0.420E-04
CGA:   7    -0.662687667674E+03   -0.14698E-02   -0.14698E-02   768   0.423E-02-0.266E-05
CGA:   8    -0.662688392563E+03   -0.72489E-03   -0.72491E-03   768   0.201E-02-0.144E-05
CGA:   9    -0.662688805335E+03   -0.41277E-03   -0.41285E-03   768   0.838E-03-0.331E-05
CGA:  10    -0.662688988372E+03   -0.18304E-03   -0.18289E-03   768   0.430E-03 0.391E-05
CGA:  11    -0.662689057010E+03   -0.68639E-04   -0.68676E-04   768   0.185E-03 0.147E-05
  13 F= -.66923480E+03 E0= -.66921068E+03  d E =-.373227E-01  mag=     1.8118
       N       E                     dE             d eps       ncg     rms          ort
SDA:   1    -0.659667769670E+03    0.30212E+01    0.00000E+00   768   0.808E+01 0.000E+00
CGA:   2    -0.661277507573E+03   -0.16097E+01   -0.16059E+01   768   0.654E+01 0.134E+00
CGA:   3    -0.662245717843E+03   -0.96821E+00   -0.96927E+00   768   0.210E+01 0.215E-01
CGA:   4    -0.662617689982E+03   -0.37197E+00   -0.37205E+00   768   0.329E+00 0.780E-02
CGA:   5    -0.662681098627E+03   -0.63409E-01   -0.63412E-01   768   0.137E+00-0.115E-03
CGA:   6    -0.662705339814E+03   -0.24241E-01   -0.24245E-01   768   0.504E-01 0.456E-03
CGA:   7    -0.662714684461E+03   -0.93446E-02   -0.93446E-02   768   0.255E-01 0.858E-05
CGA:   8    -0.662719182692E+03   -0.44982E-02   -0.44989E-02   768   0.128E-01 0.585E-04
CGA:   9    -0.662721679207E+03   -0.24965E-02   -0.24966E-02   768   0.511E-02-0.909E-05
CGA:  10    -0.662722842414E+03   -0.11632E-02   -0.11624E-02   768   0.231E-02 0.167E-04
CGA:  11    -0.662723240959E+03   -0.39854E-03   -0.39859E-03   768   0.111E-02 0.306E-05
CGA:  12    -0.662723429579E+03   -0.18862E-03   -0.18867E-03   768   0.335E-03 0.329E-05
CGA:  13    -0.662723504304E+03   -0.74726E-04   -0.74746E-04   768   0.154E-03-0.565E-06
  14 F= -.66927330E+03 E0= -.66924951E+03  d E =-.758165E-01  mag=     1.9174
       N       E                     dE             d eps       ncg     rms          ort
SDA:   1    -0.662089894511E+03    0.63354E+00    0.00000E+00   768   0.173E+01 0.000E+00
CGA:   2    -0.662422628573E+03   -0.33273E+00   -0.33260E+00   768   0.116E+01 0.765E-02
CGA:   3    -0.662627887504E+03   -0.20526E+00   -0.20507E+00   768   0.605E+00-0.109E-01
CGA:   4    -0.662720224624E+03   -0.92337E-01   -0.92419E-01   768   0.128E+00 0.332E-03
CGA:   5    -0.662743460754E+03   -0.23236E-01   -0.23235E-01   768   0.449E-01-0.355E-03
CGA:   6    -0.662752508515E+03   -0.90478E-02   -0.90443E-02   768   0.205E-01 0.118E-03
CGA:   7    -0.662756659121E+03   -0.41506E-02   -0.41521E-02   768   0.111E-01-0.499E-04
CGA:   8    -0.662758675572E+03   -0.20165E-02   -0.20166E-02   768   0.541E-02 0.188E-04
CGA:   9    -0.662759598426E+03   -0.92285E-03   -0.92253E-03   768   0.179E-02-0.149E-04
CGA:  10    -0.662759980269E+03   -0.38184E-03   -0.38180E-03   768   0.638E-03 0.689E-06
CGA:  11    -0.662760099985E+03   -0.11972E-03   -0.11972E-03   768   0.306E-03 0.150E-06
CGA:  12    -0.662760151728E+03   -0.51743E-04   -0.51765E-04   768   0.126E-03 0.127E-05
  15 F= -.66931141E+03 E0= -.66928763E+03  d E =-.381103E-01  mag=     2.0305
       N       E                     dE             d eps       ncg     rms          ort
SDA:   1    -0.661885271370E+03    0.87483E+00    0.00000E+00   768   0.229E+01 0.000E+00
CGA:   2    -0.662327039361E+03   -0.44177E+00   -0.44162E+00   768   0.153E+01 0.110E-01
CGA:   3    -0.662600230243E+03   -0.27319E+00   -0.27289E+00   768   0.786E+00-0.168E-01
CGA:   4    -0.662720653399E+03   -0.12042E+00   -0.12055E+00   768   0.166E+00 0.406E-03
CGA:   5    -0.662750940508E+03   -0.30287E-01   -0.30285E-01   768   0.579E-01-0.470E-03
CGA:   6    -0.662762707566E+03   -0.11767E-01   -0.11765E-01   768   0.258E-01 0.771E-04
CGA:   7    -0.662768345136E+03   -0.56376E-02   -0.56410E-02   768   0.124E-01-0.709E-04
CGA:   8    -0.662770996647E+03   -0.26515E-02   -0.26506E-02   768   0.596E-02 0.199E-04
CGA:   9    -0.662771931747E+03   -0.93510E-03   -0.93430E-03   768   0.248E-02-0.124E-04
CGA:  10    -0.662772398262E+03   -0.46652E-03   -0.46651E-03   768   0.745E-03 0.109E-05
CGA:  11    -0.662772567338E+03   -0.16908E-03   -0.16906E-03   768   0.278E-03 0.462E-06
CGA:  12    -0.662772625160E+03   -0.57822E-04   -0.57800E-04   768   0.182E-03 0.122E-05
  16 F= -.66932551E+03 E0= -.66930211E+03  d E =-.522126E-01  mag=     2.1545
       N       E                     dE             d eps       ncg     rms          ort
SDA:   1    -0.662079889574E+03    0.69268E+00    0.00000E+00   768   0.191E+01 0.000E+00
CGA:   2    -0.662442663986E+03   -0.36277E+00   -0.36278E+00   768   0.112E+01 0.231E-02
CGA:   3    -0.662658622456E+03   -0.21596E+00   -0.21601E+00   768   0.626E+00-0.109E-01
CGA:   4    -0.662750590529E+03   -0.91968E-01   -0.92084E-01   768   0.160E+00-0.178E-03
CGA:   5    -0.662779577607E+03   -0.28987E-01   -0.28982E-01   768   0.577E-01-0.419E-03
CGA:   6    -0.662791549356E+03   -0.11972E-01   -0.11971E-01   768   0.250E-01-0.703E-05
CGA:   7    -0.662797216382E+03   -0.56670E-02   -0.56700E-02   768   0.107E-01-0.549E-04
CGA:   8    -0.662799623530E+03   -0.24071E-02   -0.24070E-02   768   0.392E-02-0.122E-05
CGA:   9    -0.662800379628E+03   -0.75610E-03   -0.75611E-03   768   0.179E-02-0.746E-05
CGA:  10    -0.662800642314E+03   -0.26269E-03   -0.26288E-03   768   0.641E-03 0.234E-05
CGA:  11    -0.662800767608E+03   -0.12529E-03   -0.12529E-03   768   0.193E-03 0.134E-05
CGA:  12    -0.662800817844E+03   -0.50235E-04   -0.50142E-04   768   0.941E-04 0.135E-05
  17 F= -.66935431E+03 E0= -.66933050E+03  d E =-.288024E-01  mag=     2.2072
       N       E                     dE             d eps       ncg     rms          ort
SDA:   1    -0.660482660552E+03    0.23181E+01    0.00000E+00   768   0.622E+01 0.000E+00
CGA:   2    -0.661656205464E+03   -0.11735E+01   -0.11739E+01   768   0.363E+01 0.132E-01
CGA:   3    -0.662357938861E+03   -0.70173E+00   -0.70161E+00   768   0.209E+01-0.742E-01
CGA:   4    -0.662658611982E+03   -0.30067E+00   -0.30162E+00   768   0.520E+00-0.132E-02
CGA:   5    -0.662753276286E+03   -0.94664E-01   -0.94615E-01   768   0.190E+00-0.303E-02
CGA:   6    -0.662792037059E+03   -0.38761E-01   -0.38751E-01   768   0.833E-01 0.263E-03
CGA:   7    -0.662809955677E+03   -0.17919E-01   -0.17938E-01   768   0.410E-01-0.546E-03
CGA:   8    -0.662817209479E+03   -0.72538E-02   -0.72580E-02   768   0.201E-01 0.109E-03
CGA:   9    -0.662820292457E+03   -0.30830E-02   -0.30776E-02   768   0.667E-02-0.422E-04
CGA:  10    -0.662821630639E+03   -0.13382E-02   -0.13380E-02   768   0.200E-02 0.109E-04
CGA:  11    -0.662822046035E+03   -0.41540E-03   -0.41539E-03   768   0.889E-03 0.118E-05
CGA:  12    -0.662822184991E+03   -0.13896E-03   -0.13905E-03   768   0.428E-03 0.261E-05
CGA:  13    -0.662822273720E+03   -0.88729E-04   -0.88714E-04   768   0.180E-03 0.872E-06
  18 F= -.66937673E+03 E0= -.66935175E+03  d E =-.512224E-01  mag=     2.2564
       N       E                     dE             d eps       ncg     rms          ort
SDA:   1    -0.662708814174E+03    0.11337E+00    0.00000E+00   768   0.353E+00 0.000E+00
CGA:   2    -0.662782047440E+03   -0.73233E-01   -0.73248E-01   768   0.227E+00-0.646E-03
CGA:   3    -0.662820143669E+03   -0.38096E-01   -0.38126E-01   768   0.111E+00 0.459E-03
CGA:   4    -0.662836835519E+03   -0.16692E-01   -0.16675E-01   768   0.308E-01-0.429E-04
CGA:   5    -0.662842177834E+03   -0.53423E-02   -0.53439E-02   768   0.110E-01 0.365E-04
CGA:   6    -0.662844200883E+03   -0.20230E-02   -0.20229E-02   768   0.508E-02-0.162E-04
CGA:   7    -0.662845152754E+03   -0.95187E-03   -0.95189E-03   768   0.282E-02 0.137E-06
CGA:   8    -0.662845661744E+03   -0.50899E-03   -0.50889E-03   768   0.127E-02-0.685E-05
CGA:   9    -0.662845911890E+03   -0.25015E-03   -0.25014E-03   768   0.471E-03 0.394E-06
CGA:  10    -0.662845998646E+03   -0.86756E-04   -0.86758E-04   768   0.209E-03 0.435E-06
  19 F= -.66940033E+03 E0= -.66937510E+03  d E =-.235987E-01  mag=     2.2677
       N       E                     dE             d eps       ncg     rms          ort
SDA:   1    -0.662428784398E+03    0.41713E+00    0.00000E+00   768   0.112E+01 0.000E+00
CGA:   2    -0.662661113679E+03   -0.23233E+00   -0.23245E+00   768   0.716E+00-0.349E-02
CGA:   3    -0.662781302258E+03   -0.12019E+00   -0.12032E+00   768   0.352E+00 0.274E-02
CGA:   4    -0.662833587433E+03   -0.52285E-01   -0.52192E-01   768   0.999E-01-0.405E-03
CGA:   5    -0.662850271085E+03   -0.16684E-01   -0.16694E-01   768   0.363E-01 0.208E-03
CGA:   6    -0.662856779963E+03   -0.65089E-02   -0.65077E-02   768   0.174E-01-0.891E-04
CGA:   7    -0.662859907047E+03   -0.31271E-02   -0.31275E-02   768   0.900E-02 0.281E-04
CGA:   8    -0.662861600219E+03   -0.16932E-02   -0.16933E-02   768   0.410E-02-0.250E-04
CGA:   9    -0.662862382225E+03   -0.78201E-03   -0.78196E-03   768   0.165E-02 0.369E-05
CGA:  10    -0.662862663308E+03   -0.28108E-03   -0.28106E-03   768   0.681E-03-0.340E-06
CGA:  11    -0.662862779026E+03   -0.11572E-03   -0.11575E-03   768   0.251E-03 0.231E-05
CGA:  12    -0.662862828063E+03   -0.49038E-04   -0.49036E-04   768   0.119E-03 0.152E-06
  20 F= -.66941683E+03 E0= -.66939111E+03  d E =-.401018E-01  mag=     2.2773
       N       E                     dE             d eps       ncg     rms          ort
SDA:   1    -0.662754140983E+03    0.10864E+00    0.00000E+00   768   0.349E+00 0.000E+00
CGA:   2    -0.662816603968E+03   -0.62463E-01   -0.62454E-01   768   0.199E+00-0.641E-03
CGA:   3    -0.662851761479E+03   -0.35158E-01   -0.35168E-01   768   0.122E+00 0.706E-03
CGA:   4    -0.662870948925E+03   -0.19187E-01   -0.19172E-01   768   0.338E-01-0.151E-03
CGA:   5    -0.662876596875E+03   -0.56480E-02   -0.56498E-02   768   0.117E-01 0.501E-04
CGA:   6    -0.662878736130E+03   -0.21393E-02   -0.21393E-02   768   0.598E-02-0.216E-04
CGA:   7    -0.662879812566E+03   -0.10764E-02   -0.10765E-02   768   0.315E-02 0.348E-05
CGA:   8    -0.662880384964E+03   -0.57240E-03   -0.57239E-03   768   0.135E-02-0.586E-05
CGA:   9    -0.662880645118E+03   -0.26015E-03   -0.26014E-03   768   0.536E-03 0.860E-06
CGA:  10    -0.662880736494E+03   -0.91376E-04   -0.91369E-04   768   0.232E-03-0.455E-06
  21 F= -.66943456E+03 E0= -.66940913E+03  d E =-.177305E-01  mag=     2.3202
       N       E                     dE             d eps       ncg     rms          ort
SDA:   1    -0.661789465710E+03    0.10912E+01    0.00000E+00   768   0.305E+01 0.000E+00
CGA:   2    -0.662341902838E+03   -0.55244E+00   -0.55242E+00   768   0.174E+01-0.155E-01
CGA:   3    -0.662649951891E+03   -0.30805E+00   -0.30816E+00   768   0.106E+01 0.175E-01
CGA:   4    -0.662815612579E+03   -0.16566E+00   -0.16523E+00   768   0.311E+00-0.497E-02
CGA:   5    -0.662864744780E+03   -0.49132E-01   -0.49206E-01   768   0.110E+00 0.128E-02
CGA:   6    -0.662884459253E+03   -0.19714E-01   -0.19715E-01   768   0.542E-01-0.533E-03
CGA:   7    -0.662894324361E+03   -0.98651E-02   -0.98634E-02   768   0.278E-01 0.219E-03
CGA:   8    -0.662899402417E+03   -0.50781E-02   -0.50785E-02   768   0.124E-01-0.918E-04
CGA:   9    -0.662901677735E+03   -0.22753E-02   -0.22751E-02   768   0.500E-02 0.290E-04
CGA:  10    -0.662902530871E+03   -0.85314E-03   -0.85304E-03   768   0.196E-02-0.591E-05
CGA:  11    -0.662902870414E+03   -0.33954E-03   -0.33957E-03   768   0.773E-03 0.335E-05
CGA:  12    -0.662903015367E+03   -0.14495E-03   -0.14496E-03   768   0.360E-03-0.604E-06
CGA:  13    -0.662903086781E+03   -0.71414E-04   -0.71399E-04   768   0.220E-03 0.717E-06
  22 F= -.66945625E+03 E0= -.66943181E+03  d E =-.394184E-01  mag=     2.4224
       N       E                     dE             d eps       ncg     rms          ort
SDA:   1    -0.662791706451E+03    0.11131E+00    0.00000E+00   768   0.357E+00 0.000E+00
CGA:   2    -0.662855400790E+03   -0.63694E-01   -0.63689E-01   768   0.200E+00-0.704E-03
CGA:   3    -0.662889600842E+03   -0.34200E-01   -0.34213E-01   768   0.119E+00 0.640E-03
CGA:   4    -0.662908610661E+03   -0.19010E-01   -0.19001E-01   768   0.346E-01-0.123E-03
CGA:   5    -0.662914312121E+03   -0.57015E-02   -0.57034E-02   768   0.124E-01 0.533E-04
CGA:   6    -0.662916568275E+03   -0.22562E-02   -0.22562E-02   768   0.641E-02-0.274E-04
CGA:   7    -0.662917700466E+03   -0.11322E-02   -0.11322E-02   768   0.324E-02 0.184E-05
CGA:   8    -0.662918295512E+03   -0.59505E-03   -0.59509E-03   768   0.141E-02-0.716E-05
CGA:   9    -0.662918559681E+03   -0.26417E-03   -0.26415E-03   768   0.560E-03 0.179E-05
CGA:  10    -0.662918653224E+03   -0.93542E-04   -0.93547E-04   768   0.238E-03 0.517E-06
  23 F= -.66947146E+03 E0= -.66944708E+03  d E =-.152117E-01  mag=     2.4326
       N       E                     dE             d eps       ncg     rms          ort
SDA:   1    -0.661798967209E+03    0.11196E+01    0.00000E+00   768   0.320E+01 0.000E+00
CGA:   2    -0.662371104525E+03   -0.57214E+00   -0.57213E+00   768   0.184E+01-0.195E-01
CGA:   3    -0.662675878345E+03   -0.30477E+00   -0.30516E+00   768   0.107E+01 0.170E-01
CGA:   4    -0.662848690646E+03   -0.17281E+00   -0.17258E+00   768   0.332E+00-0.495E-02
CGA:   5    -0.662900404854E+03   -0.51714E-01   -0.51790E-01   768   0.118E+00 0.131E-02
CGA:   6    -0.662921781331E+03   -0.21376E-01   -0.21381E-01   768   0.615E-01-0.637E-03
CGA:   7    -0.662932427498E+03   -0.10646E-01   -0.10647E-01   768   0.298E-01 0.235E-03
CGA:   8    -0.662937909421E+03   -0.54819E-02   -0.54832E-02   768   0.134E-01-0.111E-03
CGA:   9    -0.662940304504E+03   -0.23951E-02   -0.23950E-02   768   0.536E-02 0.301E-04
CGA:  10    -0.662941191189E+03   -0.88668E-03   -0.88657E-03   768   0.213E-02-0.410E-05
CGA:  11    -0.662941552644E+03   -0.36146E-03   -0.36150E-03   768   0.778E-03 0.565E-05
CGA:  12    -0.662941693779E+03   -0.14113E-03   -0.14113E-03   768   0.356E-03 0.355E-06
CGA:  13    -0.662941757752E+03   -0.63973E-04   -0.63969E-04   768   0.191E-03 0.105E-05
  24 F= -.66949337E+03 E0= -.66946858E+03  d E =-.371155E-01  mag=     2.4188
       N       E                     dE             d eps       ncg     rms          ort
SDA:   1    -0.662924874533E+03    0.16819E-01    0.00000E+00   768   0.488E-01 0.000E+00
CGA:   2    -0.662933618186E+03   -0.87437E-02   -0.87437E-02   768   0.273E-01-0.448E-04
CGA:   3    -0.662938265882E+03   -0.46477E-02   -0.46481E-02   768   0.164E-01 0.256E-04
CGA:   4    -0.662940870177E+03   -0.26043E-02   -0.26041E-02   768   0.487E-02 0.407E-05
CGA:   5    -0.662941656690E+03   -0.78651E-03   -0.78662E-03   768   0.177E-02 0.281E-05
CGA:   6    -0.662941964534E+03   -0.30784E-03   -0.30784E-03   768   0.910E-03-0.417E-05
CGA:   7    -0.662942128193E+03   -0.16366E-03   -0.16367E-03   768   0.474E-03-0.264E-05
CGA:   8    -0.662942216414E+03   -0.88221E-04   -0.88241E-04   768   0.225E-03-0.172E-05
  25 F= -.66949366E+03 E0= -.66946891E+03  d E =-.374123E-01  mag=     2.4222
       N       E                     dE             d eps       ncg     rms          ort
SDA:   1    -0.662928599042E+03    0.13529E-01    0.00000E+00   768   0.507E-01 0.000E+00
CGA:   2    -0.662939836118E+03   -0.11237E-01   -0.11238E-01   768   0.306E-01-0.182E-04
CGA:   3    -0.662944853884E+03   -0.50178E-02   -0.50183E-02   768   0.142E-01 0.113E-04
CGA:   4    -0.662946918921E+03   -0.20650E-02   -0.20645E-02   768   0.444E-02-0.217E-05
CGA:   5    -0.662947669062E+03   -0.75014E-03   -0.75016E-03   768   0.168E-02-0.219E-06
CGA:   6    -0.662947943884E+03   -0.27482E-03   -0.27478E-03   768   0.797E-03-0.234E-05
CGA:   7    -0.662948081104E+03   -0.13722E-03   -0.13722E-03   768   0.378E-03-0.917E-06
CGA:   8    -0.662948156972E+03   -0.75868E-04   -0.75895E-04   768   0.191E-03-0.976E-06
  26 F= -.66949964E+03 E0= -.66947453E+03  d E =-.597278E-02  mag=     2.3974
       N       E                     dE             d eps       ncg     rms          ort
SDA:   1    -0.662810446702E+03    0.13763E+00    0.00000E+00   768   0.372E+00 0.000E+00
CGA:   2    -0.662893402471E+03   -0.82956E-01   -0.82969E-01   768   0.222E+00-0.217E-03
CGA:   3    -0.662930404533E+03   -0.37002E-01   -0.37010E-01   768   0.102E+00 0.279E-03
CGA:   4    -0.662945559646E+03   -0.15155E-01   -0.15147E-01   768   0.321E-01-0.694E-04
CGA:   5    -0.662950877645E+03   -0.53180E-02   -0.53188E-02   768   0.123E-01 0.259E-04
CGA:   6    -0.662952877694E+03   -0.20000E-02   -0.19995E-02   768   0.601E-02-0.185E-04
CGA:   7    -0.662953880783E+03   -0.10031E-02   -0.10031E-02   768   0.283E-02 0.163E-05
CGA:   8    -0.662954461747E+03   -0.58096E-03   -0.58118E-03   768   0.140E-02-0.570E-05
CGA:   9    -0.662954733849E+03   -0.27210E-03   -0.27208E-03   768   0.711E-03 0.113E-05
CGA:  10    -0.662954847501E+03   -0.11365E-03   -0.11364E-03   768   0.319E-03-0.353E-06
CGA:  11    -0.662954907130E+03   -0.59629E-04   -0.59614E-04   768   0.135E-03 0.156E-05
  27 F= -.66950644E+03 E0= -.66948016E+03  d E =-.127718E-01  mag=     2.2926
       N       E                     dE             d eps       ncg     rms          ort
SDA:   1    -0.662929080299E+03    0.25767E-01    0.00000E+00   768   0.857E-01 0.000E+00
CGA:   2    -0.662944742342E+03   -0.15662E-01   -0.15662E-01   768   0.446E-01 0.166E-04
CGA:   3    -0.662953021094E+03   -0.82788E-02   -0.82794E-02   768   0.263E-01-0.769E-04
CGA:   4    -0.662957185809E+03   -0.41647E-02   -0.41652E-02   768   0.893E-02-0.127E-05
CGA:   5    -0.662958641907E+03   -0.14561E-02   -0.14558E-02   768   0.325E-02-0.871E-05
CGA:   6    -0.662959182881E+03   -0.54097E-03   -0.54102E-03   768   0.163E-02 0.209E-05
CGA:   7    -0.662959458135E+03   -0.27525E-03   -0.27525E-03   768   0.844E-03 0.630E-06
CGA:   8    -0.662959622795E+03   -0.16466E-03   -0.16463E-03   768   0.392E-03 0.185E-05
CGA:   9    -0.662959700065E+03   -0.77270E-04   -0.77286E-04   768   0.202E-03-0.756E-06
  28 F= -.66951133E+03 E0= -.66948475E+03  d E =-.488912E-02  mag=     2.2476
       N       E                     dE             d eps       ncg     rms          ort
SDA:   1    -0.662861521044E+03    0.98102E-01    0.00000E+00   768   0.282E+00 0.000E+00
CGA:   2    -0.662913532174E+03   -0.52011E-01   -0.52010E-01   768   0.147E+00 0.521E-04
CGA:   3    -0.662941244887E+03   -0.27713E-01   -0.27717E-01   768   0.859E-01-0.302E-03
CGA:   4    -0.662955019098E+03   -0.13774E-01   -0.13776E-01   768   0.271E-01 0.473E-05
CGA:   5    -0.662959741802E+03   -0.47227E-02   -0.47224E-02   768   0.101E-01-0.385E-04
CGA:   6    -0.662961501113E+03   -0.17593E-02   -0.17594E-02   768   0.506E-02 0.957E-05
CGA:   7    -0.662962321908E+03   -0.82080E-03   -0.82064E-03   768   0.284E-02-0.268E-05
CGA:   8    -0.662962822664E+03   -0.50076E-03   -0.50076E-03   768   0.116E-02 0.402E-05
CGA:   9    -0.662963071008E+03   -0.24834E-03   -0.24843E-03   768   0.507E-03-0.207E-05
CGA:  10    -0.662963161143E+03   -0.90135E-04   -0.90135E-04   768   0.288E-03 0.474E-07
  29 F= -.66951494E+03 E0= -.66948799E+03  d E =-.850631E-02  mag=     2.1722
       N       E                     dE             d eps       ncg     rms          ort
SDA:   1    -0.662905572556E+03    0.57498E-01    0.00000E+00   768   0.180E+00 0.000E+00
CGA:   2    -0.662937775372E+03   -0.32203E-01   -0.32203E-01   768   0.932E-01 0.356E-04
CGA:   3    -0.662954890563E+03   -0.17115E-01   -0.17117E-01   768   0.544E-01-0.243E-03
CGA:   4    -0.662963607800E+03   -0.87172E-02   -0.87187E-02   768   0.183E-01 0.142E-04
CGA:   5    -0.662966532080E+03   -0.29243E-02   -0.29233E-02   768   0.749E-02-0.240E-04
CGA:   6    -0.662967773251E+03   -0.12412E-02   -0.12413E-02   768   0.378E-02 0.564E-05
CGA:   7    -0.662968408948E+03   -0.63570E-03   -0.63563E-03   768   0.186E-02-0.342E-05
CGA:   8    -0.662968770243E+03   -0.36130E-03   -0.36126E-03   768   0.839E-03 0.161E-05
CGA:   9    -0.662968923918E+03   -0.15368E-03   -0.15368E-03   768   0.425E-03-0.106E-05
CGA:  10    -0.662968991977E+03   -0.68059E-04   -0.68075E-04   768   0.194E-03 0.104E-05
  30 F= -.66952076E+03 E0= -.66949347E+03  d E =-.581596E-02  mag=     2.1005
       N       E                     dE             d eps       ncg     rms          ort
SDA:   1    -0.662517803836E+03    0.45112E+00    0.00000E+00   768   0.129E+01 0.000E+00
CGA:   2    -0.662749951199E+03   -0.23215E+00   -0.23214E+00   768   0.676E+00 0.964E-03
CGA:   3    -0.662873131280E+03   -0.12318E+00   -0.12322E+00   768   0.401E+00-0.481E-02
CGA:   4    -0.662936554923E+03   -0.63424E-01   -0.63462E-01   768   0.133E+00 0.556E-03
CGA:   5    -0.662957919360E+03   -0.21364E-01   -0.21348E-01   768   0.560E-01-0.477E-03
CGA:   6    -0.662966747666E+03   -0.88283E-02   -0.88332E-02   768   0.270E-01 0.104E-03
CGA:   7    -0.662971337146E+03   -0.45895E-02   -0.45887E-02   768   0.130E-01-0.736E-04
CGA:   8    -0.662973827518E+03   -0.24904E-02   -0.24898E-02   768   0.580E-02 0.211E-04
CGA:   9    -0.662974836917E+03   -0.10094E-02   -0.10094E-02   768   0.285E-02-0.109E-04
CGA:  10    -0.662975278012E+03   -0.44110E-03   -0.44115E-03   768   0.111E-02 0.260E-05
CGA:  11    -0.662975493520E+03   -0.21551E-03   -0.21551E-03   768   0.545E-03 0.651E-07
CGA:  12    -0.662975603382E+03   -0.10986E-03   -0.10982E-03   768   0.433E-03 0.208E-05
CGA:  13    -0.662975694675E+03   -0.91293E-04   -0.91241E-04   768   0.336E-03 0.129E-05
  31 F= -.66952737E+03 E0= -.66949997E+03  d E =-.124323E-01  mag=     1.9116
       N       E                     dE             d eps       ncg     rms          ort
SDA:   1    -0.662880648892E+03    0.94954E-01    0.00000E+00   768   0.285E+00 0.000E+00
CGA:   2    -0.662932037522E+03   -0.51389E-01   -0.51390E-01   768   0.152E+00 0.114E-03
CGA:   3    -0.662958449852E+03   -0.26412E-01   -0.26404E-01   768   0.910E-01-0.479E-03
CGA:   4    -0.662973167706E+03   -0.14718E-01   -0.14722E-01   768   0.308E-01 0.446E-04
CGA:   5    -0.662977951342E+03   -0.47836E-02   -0.47807E-02   768   0.134E-01-0.405E-04
CGA:   6    -0.662980006160E+03   -0.20548E-02   -0.20556E-02   768   0.602E-02 0.129E-04
CGA:   7    -0.662981115515E+03   -0.11094E-02   -0.11094E-02   768   0.317E-02-0.457E-05
CGA:   8    -0.662981721350E+03   -0.60584E-03   -0.60579E-03   768   0.165E-02 0.317E-05
CGA:   9    -0.662981996445E+03   -0.27509E-03   -0.27506E-03   768   0.846E-03-0.145E-05
CGA:  10    -0.662982145008E+03   -0.14856E-03   -0.14857E-03   768   0.393E-03 0.106E-05
CGA:  11    -0.662982229919E+03   -0.84912E-04   -0.84892E-04   768   0.294E-03 0.445E-06
  32 F= -.66953388E+03 E0= -.66950718E+03  d E =-.650798E-02  mag=     1.7849
       N       E                     dE             d eps       ncg     rms          ort
SDA:   1    -0.662084181650E+03    0.89796E+00    0.00000E+00   768   0.258E+01 0.000E+00
CGA:   2    -0.662541871036E+03   -0.45769E+00   -0.45778E+00   768   0.140E+01 0.463E-02
CGA:   3    -0.662777970159E+03   -0.23610E+00   -0.23570E+00   768   0.863E+00-0.153E-01
CGA:   4    -0.662913939778E+03   -0.13597E+00   -0.13611E+00   768   0.288E+00 0.181E-02
CGA:   5    -0.662958047979E+03   -0.44108E-01   -0.44030E-01   768   0.120E+00-0.103E-02
CGA:   6    -0.662977254765E+03   -0.19207E-01   -0.19220E-01   768   0.544E-01 0.312E-03
CGA:   7    -0.662986857732E+03   -0.96030E-02   -0.96021E-02   768   0.291E-01-0.180E-03
CGA:   8    -0.662991999730E+03   -0.51420E-02   -0.51421E-02   768   0.139E-01 0.539E-04
CGA:   9    -0.662994356557E+03   -0.23568E-02   -0.23565E-02   768   0.636E-02-0.203E-04
CGA:  10    -0.662995432338E+03   -0.10758E-02   -0.10758E-02   768   0.284E-02 0.365E-05
CGA:  11    -0.662995946889E+03   -0.51455E-03   -0.51455E-03   768   0.157E-02-0.322E-06
CGA:  12    -0.662996265194E+03   -0.31831E-03   -0.31836E-03   768   0.118E-02 0.303E-06
CGA:  13    -0.662996541896E+03   -0.27670E-03   -0.27629E-03   768   0.111E-02 0.551E-05
CGA:  14    -0.662996819001E+03   -0.27710E-03   -0.27765E-03   768   0.118E-02-0.479E-05
CGA:  15    -0.662997088765E+03   -0.26976E-03   -0.26905E-03   768   0.928E-03 0.110E-04
CGA:  16    -0.662997290692E+03   -0.20193E-03   -0.20221E-03   768   0.669E-03-0.481E-05
CGA:  17    -0.662997410021E+03   -0.11933E-03   -0.11936E-03   768   0.338E-03 0.697E-06
CGA:  18    -0.662997478135E+03   -0.68113E-04   -0.68127E-04   768   0.188E-03-0.122E-06
  33 F= -.66954898E+03 E0= -.66952862E+03  d E =-.216063E-01  mag=     1.3787
       N       E                     dE             d eps       ncg     rms          ort
SDA:   1    -0.659357467119E+03    0.36399E+01    0.00000E+00   768   0.104E+02 0.000E+00
CGA:   2    -0.661162191135E+03   -0.18047E+01   -0.18072E+01   768   0.575E+01 0.395E-01
CGA:   3    -0.662101067619E+03   -0.93888E+00   -0.93442E+00   768   0.356E+01-0.960E-01
CGA:   4    -0.662669939030E+03   -0.56887E+00   -0.57014E+00   768   0.110E+01 0.156E-01
CGA:   5    -0.662851290558E+03   -0.18135E+00   -0.18108E+00   768   0.453E+00-0.585E-02
CGA:   6    -0.662925564652E+03   -0.74274E-01   -0.74365E-01   768   0.204E+00 0.205E-02
CGA:   7    -0.662961347850E+03   -0.35783E-01   -0.35767E-01   768   0.112E+00-0.103E-02
CGA:   8    -0.662980313187E+03   -0.18965E-01   -0.18974E-01   768   0.457E-01 0.354E-03
CGA:   9    -0.662988834890E+03   -0.85217E-02   -0.85222E-02   768   0.194E-01-0.790E-04
CGA:  10    -0.662991887669E+03   -0.30528E-02   -0.30541E-02   768   0.791E-02 0.239E-04
CGA:  11    -0.662993204167E+03   -0.13165E-02   -0.13165E-02   768   0.293E-02-0.135E-05
CGA:  12    -0.662993764189E+03   -0.56002E-03   -0.56000E-03   768   0.152E-02 0.343E-05
CGA:  13    -0.662994043515E+03   -0.27933E-03   -0.27931E-03   768   0.962E-03 0.308E-05
CGA:  14    -0.662994258483E+03   -0.21497E-03   -0.21499E-03   768   0.694E-03 0.988E-06
CGA:  15    -0.662994424999E+03   -0.16652E-03   -0.16622E-03   768   0.624E-03 0.361E-05
CGA:  16    -0.662994554251E+03   -0.12925E-03   -0.12929E-03   768   0.421E-03 0.734E-08
CGA:  17    -0.662994650023E+03   -0.95772E-04   -0.95693E-04   768   0.265E-03 0.834E-06
  34 F= -.66954561E+03 E0= -.66953261E+03  d E =-.182397E-01  mag=     1.1546
       N       E                     dE             d eps       ncg     rms          ort
SDA:   1    -0.661714826173E+03    0.12797E+01    0.00000E+00   768   0.359E+01 0.000E+00
CGA:   2    -0.662378996735E+03   -0.66417E+00   -0.66411E+00   768   0.190E+01-0.695E-02
CGA:   3    -0.662705835133E+03   -0.32684E+00   -0.32722E+00   768   0.113E+01 0.112E-01
CGA:   4    -0.662895717501E+03   -0.18988E+00   -0.18966E+00   768   0.360E+00-0.392E-02
CGA:   5    -0.662954484418E+03   -0.58767E-01   -0.58825E-01   768   0.152E+00 0.876E-03
CGA:   6    -0.662978353956E+03   -0.23870E-01   -0.23839E-01   768   0.768E-01-0.379E-03
CGA:   7    -0.662991259447E+03   -0.12905E-01   -0.12912E-01   768   0.352E-01 0.178E-03
CGA:   8    -0.662998080472E+03   -0.68210E-02   -0.68227E-02   768   0.152E-01-0.109E-03
CGA:   9    -0.663000702183E+03   -0.26217E-02   -0.26219E-02   768   0.687E-02 0.103E-04
CGA:  10    -0.663001693988E+03   -0.99181E-03   -0.99118E-03   768   0.241E-02-0.681E-05
CGA:  11    -0.663002126445E+03   -0.43246E-03   -0.43245E-03   768   0.837E-03-0.375E-06
CGA:  12    -0.663002274387E+03   -0.14794E-03   -0.14793E-03   768   0.471E-03-0.281E-05
CGA:  13    -0.663002351548E+03   -0.77160E-04   -0.77142E-04   768   0.222E-03-0.612E-06
  35 F= -.66955367E+03 E0= -.66953780E+03  d E =-.262933E-01  mag=     1.2245
       N       E                     dE             d eps       ncg     rms          ort
SDA:   1    -0.662928937791E+03    0.73337E-01    0.00000E+00   768   0.218E+00 0.000E+00
CGA:   2    -0.662969448545E+03   -0.40511E-01   -0.40510E-01   768   0.128E+00 0.193E-03
CGA:   3    -0.662989682167E+03   -0.20234E-01   -0.20222E-01   768   0.754E-01-0.234E-03
CGA:   4    -0.663001960163E+03   -0.12278E-01   -0.12281E-01   768   0.230E-01 0.472E-04
CGA:   5    -0.663005635099E+03   -0.36749E-02   -0.36742E-02   768   0.946E-02-0.107E-04
CGA:   6    -0.663007212506E+03   -0.15774E-02   -0.15777E-02   768   0.448E-02 0.134E-04
CGA:   7    -0.663007978535E+03   -0.76603E-03   -0.76599E-03   768   0.225E-02-0.610E-06
CGA:   8    -0.663008373943E+03   -0.39541E-03   -0.39542E-03   768   0.100E-02 0.348E-05
CGA:   9    -0.663008548321E+03   -0.17438E-03   -0.17437E-03   768   0.409E-03-0.809E-06
CGA:  10    -0.663008612425E+03   -0.64103E-04   -0.64120E-04   768   0.157E-03 0.659E-06
  36 F= -.66955995E+03 E0= -.66954484E+03  d E =-.628635E-02  mag=     1.2082
       N       E                     dE             d eps       ncg     rms          ort
SDA:   1    -0.662306327796E+03    0.70222E+00    0.00000E+00   768   0.196E+01 0.000E+00
CGA:   2    -0.662670292749E+03   -0.36396E+00   -0.36384E+00   768   0.114E+01 0.589E-02
CGA:   3    -0.662853005642E+03   -0.18271E+00   -0.18252E+00   768   0.673E+00-0.634E-02
CGA:   4    -0.662962480565E+03   -0.10947E+00   -0.10953E+00   768   0.197E+00 0.180E-02
CGA:   5    -0.662995275967E+03   -0.32795E-01   -0.32788E-01   768   0.811E-01-0.364E-03
CGA:   6    -0.663008813096E+03   -0.13537E-01   -0.13540E-01   768   0.380E-01 0.219E-03
CGA:   7    -0.663015527962E+03   -0.67149E-02   -0.67151E-02   768   0.199E-01-0.736E-04
CGA:   8    -0.663019026471E+03   -0.34985E-02   -0.34984E-02   768   0.857E-02 0.399E-04
CGA:   9    -0.663020590557E+03   -0.15641E-02   -0.15641E-02   768   0.350E-02-0.615E-05
CGA:  10    -0.663021151350E+03   -0.56079E-03   -0.56088E-03   768   0.141E-02 0.332E-05
CGA:  11    -0.663021387618E+03   -0.23627E-03   -0.23626E-03   768   0.511E-03-0.776E-06
CGA:  12    -0.663021483166E+03   -0.95547E-04   -0.95528E-04   768   0.258E-03 0.161E-05
  37 F= -.66957288E+03 E0= -.66956039E+03  d E =-.192084E-01  mag=     1.1465
       N       E                     dE             d eps       ncg     rms          ort
SDA:   1    -0.660163904827E+03    0.28575E+01    0.00000E+00   768   0.787E+01 0.000E+00
CGA:   2    -0.661607955000E+03   -0.14441E+01   -0.14432E+01   768   0.457E+01 0.436E-01
CGA:   3    -0.662350223913E+03   -0.74227E+00   -0.74128E+00   768   0.266E+01-0.479E-01
CGA:   4    -0.662789025449E+03   -0.43880E+00   -0.43904E+00   768   0.732E+00 0.119E-01
CGA:   5    -0.662920927758E+03   -0.13190E+00   -0.13193E+00   768   0.286E+00-0.358E-02
CGA:   6    -0.662972136837E+03   -0.51209E-01   -0.51197E-01   768   0.136E+00 0.139E-02
CGA:   7    -0.662996701168E+03   -0.24564E-01   -0.24569E-01   768   0.745E-01-0.647E-03
CGA:   8    -0.663009453881E+03   -0.12753E-01   -0.12754E-01   768   0.299E-01 0.187E-03
CGA:   9    -0.663015338805E+03   -0.58849E-02   -0.58866E-02   768   0.108E-01-0.585E-04
CGA:  10    -0.663017228912E+03   -0.18901E-02   -0.18901E-02   768   0.473E-02 0.132E-04
CGA:  11    -0.663017969086E+03   -0.74017E-03   -0.74013E-03   768   0.168E-02-0.244E-05
CGA:  12    -0.663018317152E+03   -0.34807E-03   -0.34802E-03   768   0.767E-03 0.206E-05
CGA:  13    -0.663018475761E+03   -0.15861E-03   -0.15858E-03   768   0.570E-03 0.409E-06
CGA:  14    -0.663018590435E+03   -0.11467E-03   -0.11466E-03   768   0.357E-03 0.129E-05
CGA:  15    -0.663018690068E+03   -0.99632E-04   -0.99541E-04   768   0.289E-03 0.682E-06
  38 F= -.66957013E+03 E0= -.66956031E+03  d E =-.164605E-01  mag=     1.0866
       N       E                     dE             d eps       ncg     rms          ort
SDA:   1    -0.662066465282E+03    0.95213E+00    0.00000E+00   768   0.260E+01 0.000E+00
CGA:   2    -0.662567583375E+03   -0.50112E+00   -0.50120E+00   768   0.146E+01-0.571E-02
CGA:   3    -0.662810784630E+03   -0.24320E+00   -0.24352E+00   768   0.833E+00 0.818E-02
CGA:   4    -0.662951022036E+03   -0.14024E+00   -0.14013E+00   768   0.244E+00-0.228E-02
CGA:   5    -0.662993098507E+03   -0.42076E-01   -0.42089E-01   768   0.937E-01 0.480E-03
CGA:   6    -0.663009988037E+03   -0.16890E-01   -0.16888E-01   768   0.484E-01-0.281E-03
CGA:   7    -0.663018173522E+03   -0.81855E-02   -0.81880E-02   768   0.243E-01 0.817E-04
CGA:   8    -0.663022535062E+03   -0.43615E-02   -0.43612E-02   768   0.100E-01-0.516E-04
CGA:   9    -0.663024415640E+03   -0.18806E-02   -0.18805E-02   768   0.360E-02 0.688E-05
CGA:  10    -0.663025015971E+03   -0.60033E-03   -0.60021E-03   768   0.152E-02-0.475E-05
CGA:  11    -0.663025252086E+03   -0.23612E-03   -0.23612E-03   768   0.486E-03 0.136E-06
CGA:  12    -0.663025348077E+03   -0.95991E-04   -0.96020E-04   768   0.206E-03-0.176E-05
  39 F= -.66957676E+03 E0= -.66956607E+03  d E =-.230965E-01  mag=     1.1052
       N       E                     dE             d eps       ncg     rms          ort
SDA:   1    -0.662804335397E+03    0.22092E+00    0.00000E+00   768   0.606E+00 0.000E+00
CGA:   2    -0.662939421308E+03   -0.13509E+00   -0.13503E+00   768   0.363E+00 0.818E-03
CGA:   3    -0.662997691484E+03   -0.58270E-01   -0.58236E-01   768   0.186E+00-0.703E-03
CGA:   4    -0.663025748559E+03   -0.28057E-01   -0.28076E-01   768   0.465E-01 0.136E-03
CGA:   5    -0.663033802382E+03   -0.80538E-02   -0.80532E-02   768   0.187E-01-0.286E-04
CGA:   6    -0.663037098256E+03   -0.32959E-02   -0.32960E-02   768   0.877E-02 0.237E-04
CGA:   7    -0.663038625475E+03   -0.15272E-02   -0.15271E-02   768   0.452E-02-0.859E-05
CGA:   8    -0.663039456373E+03   -0.83090E-03   -0.83087E-03   768   0.194E-02 0.390E-05
CGA:   9    -0.663039829791E+03   -0.37342E-03   -0.37344E-03   768   0.791E-03-0.101E-05
CGA:  10    -0.663039963902E+03   -0.13411E-03   -0.13414E-03   768   0.333E-03 0.265E-05
CGA:  11    -0.663040017977E+03   -0.54075E-04   -0.54088E-04   768   0.108E-03 0.764E-06
  40 F= -.66959152E+03 E0= -.66958118E+03  d E =-.147530E-01  mag=     1.1012
       N       E                     dE             d eps       ncg     rms          ort
SDA:   1    -0.662013539935E+03    0.10264E+01    0.00000E+00   768   0.268E+01 0.000E+00
CGA:   2    -0.662605772003E+03   -0.59223E+00   -0.59169E+00   768   0.162E+01 0.833E-02
CGA:   3    -0.662863591772E+03   -0.25782E+00   -0.25751E+00   768   0.827E+00-0.664E-02
CGA:   4    -0.662988990506E+03   -0.12540E+00   -0.12555E+00   768   0.204E+00 0.137E-02
CGA:   5    -0.663024888901E+03   -0.35898E-01   -0.35896E-01   768   0.786E-01-0.412E-03
CGA:   6    -0.663039217616E+03   -0.14329E-01   -0.14328E-01   768   0.374E-01 0.179E-03
CGA:   7    -0.663045842442E+03   -0.66248E-02   -0.66245E-02   768   0.198E-01-0.798E-04
CGA:   8    -0.663049404024E+03   -0.35616E-02   -0.35615E-02   768   0.845E-02 0.320E-04
CGA:   9    -0.663051059728E+03   -0.16557E-02   -0.16559E-02   768   0.325E-02-0.823E-05
CGA:  10    -0.663051641781E+03   -0.58205E-03   -0.58206E-03   768   0.144E-02 0.705E-05
CGA:  11    -0.663051870551E+03   -0.22877E-03   -0.22879E-03   768   0.489E-03 0.111E-05
CGA:  12    -0.663051966303E+03   -0.95752E-04   -0.95719E-04   768   0.195E-03 0.197E-05
  41 F= -.66960363E+03 E0= -.66959392E+03  d E =-.268610E-01  mag=     1.0936
       N       E                     dE             d eps       ncg     rms          ort
SDA:   1    -0.662762506307E+03    0.28936E+00    0.00000E+00   768   0.769E+00 0.000E+00
CGA:   2    -0.662944011510E+03   -0.18151E+00   -0.18147E+00   768   0.467E+00 0.381E-03
CGA:   3    -0.663016667373E+03   -0.72656E-01   -0.72591E-01   768   0.229E+00-0.980E-03
CGA:   4    -0.663051001228E+03   -0.34334E-01   -0.34353E-01   768   0.555E-01 0.130E-03
CGA:   5    -0.663060756139E+03   -0.97549E-02   -0.97547E-02   768   0.198E-01-0.172E-04
CGA:   6    -0.663064327330E+03   -0.35712E-02   -0.35712E-02   768   0.911E-02 0.285E-04
CGA:   7    -0.663065949796E+03   -0.16225E-02   -0.16224E-02   768   0.476E-02-0.713E-05
CGA:   8    -0.663066831305E+03   -0.88151E-03   -0.88148E-03   768   0.225E-02 0.310E-05
CGA:   9    -0.663067275127E+03   -0.44382E-03   -0.44385E-03   768   0.880E-03-0.104E-05
CGA:  10    -0.663067439585E+03   -0.16446E-03   -0.16444E-03   768   0.418E-03 0.337E-05
CGA:  11    -0.663067507677E+03   -0.68092E-04   -0.68108E-04   768   0.150E-03 0.829E-06
  42 F= -.66961953E+03 E0= -.66960984E+03  d E =-.159059E-01  mag=     1.0955
       N       E                     dE             d eps       ncg     rms          ort
SDA:   1    -0.662540974699E+03    0.52646E+00    0.00000E+00   768   0.134E+01 0.000E+00
CGA:   2    -0.662859713458E+03   -0.31874E+00   -0.31868E+00   768   0.805E+00 0.679E-03
CGA:   3    -0.662986714663E+03   -0.12700E+00   -0.12686E+00   768   0.394E+00-0.225E-02
CGA:   4    -0.663045356394E+03   -0.58642E-01   -0.58692E-01   768   0.964E-01 0.295E-03
CGA:   5    -0.663062254726E+03   -0.16898E-01   -0.16897E-01   768   0.345E-01-0.702E-04
CGA:   6    -0.663068546012E+03   -0.62913E-02   -0.62911E-02   768   0.157E-01 0.549E-04
CGA:   7    -0.663071357183E+03   -0.28112E-02   -0.28111E-02   768   0.831E-02-0.180E-04
CGA:   8    -0.663072880153E+03   -0.15230E-02   -0.15229E-02   768   0.388E-02 0.711E-05
CGA:   9    -0.663073647597E+03   -0.76744E-03   -0.76750E-03   768   0.150E-02-0.212E-05
CGA:  10    -0.663073932143E+03   -0.28455E-03   -0.28450E-03   768   0.703E-03 0.472E-05
CGA:  11    -0.663074045199E+03   -0.11306E-03   -0.11307E-03   768   0.254E-03 0.919E-06
CGA:  12    -0.663074094964E+03   -0.49765E-04   -0.49749E-04   768   0.106E-03 0.113E-05
  43 F= -.66962660E+03 E0= -.66961689E+03  d E =-.229727E-01  mag=     1.0989
       N       E                     dE             d eps       ncg     rms          ort
SDA:   1    -0.662634059736E+03    0.43999E+00    0.00000E+00   768   0.112E+01 0.000E+00
CGA:   2    -0.662937579144E+03   -0.30352E+00   -0.30335E+00   768   0.584E+00 0.154E-02
CGA:   3    -0.663031742116E+03   -0.94163E-01   -0.94119E-01   768   0.266E+00-0.729E-03
CGA:   4    -0.663068752020E+03   -0.37010E-01   -0.37045E-01   768   0.630E-01 0.331E-04
CGA:   5    -0.663080070350E+03   -0.11318E-01   -0.11318E-01   768   0.216E-01-0.389E-04
CGA:   6    -0.663083899987E+03   -0.38296E-02   -0.38297E-02   768   0.886E-02 0.511E-05
CGA:   7    -0.663085485757E+03   -0.15858E-02   -0.15857E-02   768   0.467E-02-0.124E-04
CGA:   8    -0.663086330057E+03   -0.84430E-03   -0.84430E-03   768   0.221E-02-0.156E-05
CGA:   9    -0.663086772349E+03   -0.44229E-03   -0.44231E-03   768   0.926E-03-0.813E-06
CGA:  10    -0.663086961840E+03   -0.18949E-03   -0.18940E-03   768   0.451E-03 0.446E-05
CGA:  11    -0.663087034811E+03   -0.72971E-04   -0.73001E-04   768   0.183E-03 0.127E-05
  44 F= -.66963994E+03 E0= -.66963001E+03  d E =-.133390E-01  mag=     1.1109
       N       E                     dE             d eps       ncg     rms          ort
SDA:   1    -0.663014777674E+03    0.72184E-01    0.00000E+00   768   0.181E+00 0.000E+00
CGA:   2    -0.663064056603E+03   -0.49279E-01   -0.49269E-01   768   0.929E-01 0.853E-04
CGA:   3    -0.663079283401E+03   -0.15227E-01   -0.15224E-01   768   0.421E-01-0.489E-04
CGA:   4    -0.663085128825E+03   -0.58454E-02   -0.58474E-02   768   0.102E-01 0.333E-05
CGA:   5    -0.663086943380E+03   -0.18146E-02   -0.18146E-02   768   0.329E-02 0.690E-05
CGA:   6    -0.663087578707E+03   -0.63533E-03   -0.63533E-03   768   0.130E-02-0.256E-06
CGA:   7    -0.663087834929E+03   -0.25622E-03   -0.25627E-03   768   0.722E-03-0.347E-05
CGA:   8    -0.663087960723E+03   -0.12579E-03   -0.12578E-03   768   0.383E-03-0.123E-05
CGA:   9    -0.663088029893E+03   -0.69170E-04   -0.69169E-04   768   0.153E-03-0.141E-06
  45 F= -.66964109E+03 E0= -.66963109E+03  d E =-.144895E-01  mag=     1.1164
       N       E                     dE             d eps       ncg     rms          ort
SDA:   1    -0.662933432147E+03    0.15453E+00    0.00000E+00   768   0.432E+00 0.000E+00
CGA:   2    -0.663026465481E+03   -0.93033E-01   -0.93019E-01   768   0.255E+00 0.229E-03
CGA:   3    -0.663068667404E+03   -0.42202E-01   -0.42182E-01   768   0.116E+00-0.471E-03
CGA:   4    -0.663086630648E+03   -0.17963E-01   -0.17967E-01   768   0.333E-01-0.302E-04
CGA:   5    -0.663092497691E+03   -0.58670E-02   -0.58665E-02   768   0.114E-01-0.325E-04
CGA:   6    -0.663094677249E+03   -0.21796E-02   -0.21795E-02   768   0.493E-02 0.725E-05
CGA:   7    -0.663095642594E+03   -0.96535E-03   -0.96548E-03   768   0.277E-02-0.869E-05
CGA:   8    -0.663096109355E+03   -0.46676E-03   -0.46676E-03   768   0.132E-02-0.188E-05
CGA:   9    -0.663096356074E+03   -0.24672E-03   -0.24673E-03   768   0.451E-03-0.394E-05
CGA:  10    -0.663096449325E+03   -0.93250E-04   -0.93237E-04   768   0.175E-03 0.504E-06
  46 F= -.66965013E+03 E0= -.66964008E+03  d E =-.903992E-02  mag=     1.1164
       N       E                     dE             d eps       ncg     rms          ort
SDA:   1    -0.662856384469E+03    0.23997E+00    0.00000E+00   768   0.647E+00 0.000E+00
CGA:   2    -0.662994894500E+03   -0.13851E+00   -0.13848E+00   768   0.384E+00 0.516E-03
CGA:   3    -0.663058010077E+03   -0.63116E-01   -0.63074E-01   768   0.175E+00-0.974E-03
CGA:   4    -0.663085016096E+03   -0.27006E-01   -0.27014E-01   768   0.503E-01-0.342E-04
CGA:   5    -0.663093797574E+03   -0.87815E-02   -0.87803E-02   768   0.172E-01-0.703E-04
CGA:   6    -0.663097061495E+03   -0.32639E-02   -0.32638E-02   768   0.752E-02 0.125E-04
CGA:   7    -0.663098504667E+03   -0.14432E-02   -0.14434E-02   768   0.421E-02-0.147E-04
CGA:   8    -0.663099224455E+03   -0.71979E-03   -0.71981E-03   768   0.195E-02-0.138E-05
CGA:   9    -0.663099598833E+03   -0.37438E-03   -0.37443E-03   768   0.684E-03-0.537E-05
CGA:  10    -0.663099737647E+03   -0.13881E-03   -0.13880E-03   768   0.280E-03 0.697E-06
CGA:  11    -0.663099782946E+03   -0.45299E-04   -0.45293E-04   768   0.121E-03-0.213E-06
  47 F= -.66965419E+03 E0= -.66964409E+03  d E =-.131049E-01  mag=     1.1153
       N       E                     dE             d eps       ncg     rms          ort
SDA:   1    -0.662822957513E+03    0.27678E+00    0.00000E+00   768   0.781E+00 0.000E+00
CGA:   2    -0.662979647198E+03   -0.15669E+00   -0.15667E+00   768   0.450E+00 0.528E-03
CGA:   3    -0.663055676053E+03   -0.76029E-01   -0.76006E-01   768   0.208E+00-0.914E-03
CGA:   4    -0.663088415340E+03   -0.32739E-01   -0.32743E-01   768   0.618E-01-0.882E-04
CGA:   5    -0.663099443452E+03   -0.11028E-01   -0.11028E-01   768   0.215E-01-0.856E-04
CGA:   6    -0.663103835962E+03   -0.43925E-02   -0.43924E-02   768   0.917E-02-0.680E-06
CGA:   7    -0.663105859210E+03   -0.20232E-02   -0.20244E-02   768   0.451E-02-0.237E-04
CGA:   8    -0.663106704999E+03   -0.84579E-03   -0.84578E-03   768   0.237E-02 0.204E-07
CGA:   9    -0.663107062117E+03   -0.35712E-03   -0.35691E-03   768   0.846E-03-0.394E-05
CGA:  10    -0.663107226613E+03   -0.16450E-03   -0.16448E-03   768   0.243E-03 0.111E-05
CGA:  11    -0.663107278688E+03   -0.52075E-04   -0.52066E-04   768   0.102E-03 0.303E-06
  48 F= -.66966240E+03 E0= -.66965238E+03  d E =-.820966E-02  mag=     1.1119
       N       E                     dE             d eps       ncg     rms          ort
SDA:   1    -0.662976343816E+03    0.13088E+00    0.00000E+00   768   0.363E+00 0.000E+00
CGA:   2    -0.663049247467E+03   -0.72904E-01   -0.72897E-01   768   0.209E+00 0.141E-03
CGA:   3    -0.663084485321E+03   -0.35238E-01   -0.35232E-01   768   0.966E-01-0.259E-03
CGA:   4    -0.663099686033E+03   -0.15201E-01   -0.15201E-01   768   0.286E-01-0.433E-04
CGA:   5    -0.663104796580E+03   -0.51105E-02   -0.51104E-02   768   0.990E-02-0.245E-04
CGA:   6    -0.663106838620E+03   -0.20420E-02   -0.20421E-02   768   0.421E-02-0.282E-05
CGA:   7    -0.663107794054E+03   -0.95543E-03   -0.95586E-03   768   0.193E-02-0.834E-05
CGA:   8    -0.663108202290E+03   -0.40824E-03   -0.40826E-03   768   0.919E-03-0.209E-05
CGA:   9    -0.663108343851E+03   -0.14156E-03   -0.14148E-03   768   0.410E-03-0.188E-05
CGA:  10    -0.663108412340E+03   -0.68489E-04   -0.68504E-04   768   0.114E-03 0.661E-06
  49 F= -.66966402E+03 E0= -.66965405E+03  d E =-.982309E-02  mag=     1.1095
       N       E                     dE             d eps       ncg     rms          ort
SDA:   1    -0.662865313500E+03    0.24303E+00    0.00000E+00   768   0.669E+00 0.000E+00
CGA:   2    -0.663003362535E+03   -0.13805E+00   -0.13802E+00   768   0.396E+00 0.486E-03
CGA:   3    -0.663069560152E+03   -0.66198E-01   -0.66157E-01   768   0.181E+00-0.107E-02
CGA:   4    -0.663097722565E+03   -0.28162E-01   -0.28171E-01   768   0.536E-01-0.550E-04
CGA:   5    -0.663107203666E+03   -0.94811E-02   -0.94798E-02   768   0.182E-01-0.963E-04
CGA:   6    -0.663110712927E+03   -0.35093E-02   -0.35091E-02   768   0.812E-02 0.110E-04
CGA:   7    -0.663112312962E+03   -0.16000E-02   -0.16004E-02   768   0.455E-02-0.180E-04
CGA:   8    -0.663113071293E+03   -0.75833E-03   -0.75841E-03   768   0.210E-02-0.183E-06
CGA:   9    -0.663113470114E+03   -0.39882E-03   -0.39886E-03   768   0.713E-03-0.592E-05
CGA:  10    -0.663113614876E+03   -0.14476E-03   -0.14476E-03   768   0.273E-03 0.599E-07
CGA:  11    -0.663113660363E+03   -0.45487E-04   -0.45477E-04   768   0.126E-03-0.512E-06
  50 F= -.66967015E+03 E0= -.66966039E+03  d E =-.613723E-02  mag=     1.1004
       N       E                     dE             d eps       ncg     rms          ort
SDA:   1    -0.663099137644E+03    0.14477E-01    0.00000E+00   768   0.393E-01 0.000E+00
CGA:   2    -0.663107298863E+03   -0.81612E-02   -0.81609E-02   768   0.231E-01 0.670E-05
CGA:   3    -0.663111166324E+03   -0.38675E-02   -0.38670E-02   768   0.106E-01-0.179E-04
CGA:   4    -0.663112806468E+03   -0.16401E-02   -0.16400E-02   768   0.316E-02-0.882E-05
CGA:   5    -0.663113362917E+03   -0.55645E-03   -0.55643E-03   768   0.101E-02-0.197E-05
CGA:   6    -0.663113570624E+03   -0.20771E-03   -0.20770E-03   768   0.457E-03 0.287E-06
CGA:   7    -0.663113669168E+03   -0.98544E-04   -0.98572E-04   768   0.244E-03-0.799E-06
  51 F= -.66967037E+03 E0= -.66966067E+03  d E =-.635892E-02  mag=     1.0981
       N       E                     dE             d eps       ncg     rms          ort
SDA:   1    -0.663020183877E+03    0.93387E-01    0.00000E+00   768   0.238E+00 0.000E+00
CGA:   2    -0.663092202160E+03   -0.72018E-01   -0.71994E-01   768   0.930E-01 0.154E-03
CGA:   3    -0.663110137663E+03   -0.17936E-01   -0.17936E-01   768   0.378E-01-0.267E-04
CGA:   4    -0.663114884853E+03   -0.47472E-02   -0.47485E-02   768   0.111E-01-0.846E-05
CGA:   5    -0.663116688222E+03   -0.18034E-02   -0.18034E-02   768   0.285E-02 0.348E-05
CGA:   6    -0.663117237594E+03   -0.54937E-03   -0.54939E-03   768   0.124E-02-0.236E-05
CGA:   7    -0.663117449475E+03   -0.21188E-03   -0.21184E-03   768   0.551E-03-0.265E-05
CGA:   8    -0.663117556184E+03   -0.10671E-03   -0.10672E-03   768   0.293E-03-0.109E-05
CGA:   9    -0.663117612413E+03   -0.56229E-04   -0.56231E-04   768   0.136E-03-0.373E-06
  52 F= -.66967470E+03 E0= -.66966504E+03  d E =-.432912E-02  mag=     1.0970
       N       E                     dE             d eps       ncg     rms          ort
SDA:   1    -0.662994000716E+03    0.12356E+00    0.00000E+00   768   0.305E+00 0.000E+00
CGA:   2    -0.663086365640E+03   -0.92365E-01   -0.92329E-01   768   0.121E+00 0.234E-03
CGA:   3    -0.663109237606E+03   -0.22872E-01   -0.22872E-01   768   0.524E-01-0.345E-04
CGA:   4    -0.663115682762E+03   -0.64452E-02   -0.64466E-02   768   0.138E-01-0.125E-04
CGA:   5    -0.663117990397E+03   -0.23076E-02   -0.23076E-02   768   0.381E-02 0.352E-05
CGA:   6    -0.663118692868E+03   -0.70247E-03   -0.70246E-03   768   0.163E-02-0.243E-05
CGA:   7    -0.663118980972E+03   -0.28810E-03   -0.28807E-03   768   0.714E-03-0.303E-05
CGA:   8    -0.663119115229E+03   -0.13426E-03   -0.13426E-03   768   0.386E-03-0.105E-05
CGA:   9    -0.663119190226E+03   -0.74997E-04   -0.74999E-04   768   0.175E-03-0.408E-06
  53 F= -.66967671E+03 E0= -.66966708E+03  d E =-.633097E-02  mag=     1.0958
       N       E                     dE             d eps       ncg     rms          ort
SDA:   1    -0.663055492215E+03    0.63623E-01    0.00000E+00   768   0.170E+00 0.000E+00
CGA:   2    -0.663100899348E+03   -0.45407E-01   -0.45408E-01   768   0.863E-01-0.376E-05
CGA:   3    -0.663114973663E+03   -0.14074E-01   -0.14076E-01   768   0.375E-01 0.222E-04
CGA:   4    -0.663120350836E+03   -0.53772E-02   -0.53772E-02   768   0.938E-02 0.832E-05
CGA:   5    -0.663122015224E+03   -0.16644E-02   -0.16644E-02   768   0.305E-02 0.277E-05
CGA:   6    -0.663122617064E+03   -0.60184E-03   -0.60187E-03   768   0.128E-02-0.248E-05
CGA:   7    -0.663122883468E+03   -0.26640E-03   -0.26642E-03   768   0.629E-03-0.820E-06
CGA:   8    -0.663122997827E+03   -0.11436E-03   -0.11436E-03   768   0.374E-03 0.113E-06
CGA:   9    -0.663123060467E+03   -0.62640E-04   -0.62674E-04   768   0.141E-03 0.148E-05
  54 F= -.66968063E+03 E0= -.66967093E+03  d E =-.392553E-02  mag=     1.0974
       N       E                     dE             d eps       ncg     rms          ort
SDA:   1    -0.662990850896E+03    0.13215E+00    0.00000E+00   768   0.337E+00 0.000E+00
CGA:   2    -0.663081010303E+03   -0.90159E-01   -0.90155E-01   768   0.170E+00 0.419E-04
CGA:   3    -0.663109019488E+03   -0.28009E-01   -0.28007E-01   768   0.734E-01-0.149E-04
CGA:   4    -0.663119497983E+03   -0.10478E-01   -0.10482E-01   768   0.187E-01 0.164E-04
CGA:   5    -0.663122779776E+03   -0.32818E-02   -0.32817E-02   768   0.611E-02-0.133E-05
CGA:   6    -0.663123966797E+03   -0.11870E-02   -0.11870E-02   768   0.253E-02-0.171E-05
CGA:   7    -0.663124494823E+03   -0.52803E-03   -0.52810E-03   768   0.125E-02-0.270E-05
CGA:   8    -0.663124721156E+03   -0.22633E-03   -0.22635E-03   768   0.737E-03 0.140E-05
CGA:   9    -0.663124846394E+03   -0.12524E-03   -0.12525E-03   768   0.284E-03 0.860E-06
CGA:  10    -0.663124906642E+03   -0.60248E-04   -0.60209E-04   768   0.976E-04 0.167E-05
  55 F= -.66968254E+03 E0= -.66967273E+03  d E =-.583575E-02  mag=     1.0996
       N       E                     dE             d eps       ncg     rms          ort
SDA:   1    -0.663078446402E+03    0.46400E-01    0.00000E+00   768   0.126E+00 0.000E+00
CGA:   2    -0.663109945064E+03   -0.31499E-01   -0.31500E-01   768   0.675E-01-0.111E-04
CGA:   3    -0.663120575529E+03   -0.10630E-01   -0.10634E-01   768   0.309E-01 0.317E-04
CGA:   4    -0.663125078881E+03   -0.45034E-02   -0.45030E-02   768   0.779E-02 0.106E-04
CGA:   5    -0.663126446382E+03   -0.13675E-02   -0.13676E-02   768   0.264E-02 0.158E-05
CGA:   6    -0.663126961588E+03   -0.51521E-03   -0.51524E-03   768   0.127E-02-0.501E-05
CGA:   7    -0.663127196716E+03   -0.23513E-03   -0.23512E-03   768   0.687E-03-0.159E-05
CGA:   8    -0.663127312831E+03   -0.11611E-03   -0.11611E-03   768   0.315E-03-0.133E-06
CGA:   9    -0.663127375085E+03   -0.62254E-04   -0.62239E-04   768   0.117E-03 0.151E-05
  56 F= -.66968492E+03 E0= -.66967508E+03  d E =-.238140E-02  mag=     1.1009
       N       E                     dE             d eps       ncg     rms          ort
SDA:   1    -0.662785870863E+03    0.34144E+00    0.00000E+00   768   0.889E+00 0.000E+00
CGA:   2    -0.663007093091E+03   -0.22122E+00   -0.22123E+00   768   0.478E+00-0.398E-04
CGA:   3    -0.663081918679E+03   -0.74826E-01   -0.74898E-01   768   0.217E+00 0.707E-03
CGA:   4    -0.663113781196E+03   -0.31863E-01   -0.31847E-01   768   0.547E-01 0.209E-04
CGA:   5    -0.663123445910E+03   -0.96647E-02   -0.96659E-02   768   0.191E-01 0.487E-04
CGA:   6    -0.663127025512E+03   -0.35796E-02   -0.35796E-02   768   0.922E-02-0.281E-04
CGA:   7    -0.663128703709E+03   -0.16782E-02   -0.16782E-02   768   0.485E-02 0.632E-06
CGA:   8    -0.663129546613E+03   -0.84290E-03   -0.84281E-03   768   0.218E-02-0.296E-05
CGA:   9    -0.663129987509E+03   -0.44090E-03   -0.44080E-03   768   0.836E-03 0.520E-05
CGA:  10    -0.663130151332E+03   -0.16382E-03   -0.16382E-03   768   0.365E-03 0.858E-06
CGA:  11    -0.663130208641E+03   -0.57309E-04   -0.57345E-04   768   0.145E-03 0.117E-05
  57 F= -.66968752E+03 E0= -.66967760E+03  d E =-.497539E-02  mag=     1.1039
       N       E                     dE             d eps       ncg     rms          ort
SDA:   1    -0.663069928758E+03    0.60223E-01    0.00000E+00   768   0.169E+00 0.000E+00
CGA:   2    -0.663107723110E+03   -0.37794E-01   -0.37797E-01   768   0.938E-01-0.541E-04
CGA:   3    -0.663122635780E+03   -0.14913E-01   -0.14916E-01   768   0.439E-01 0.379E-04
CGA:   4    -0.663129294181E+03   -0.66584E-02   -0.66578E-02   768   0.121E-01 0.775E-05
CGA:   5    -0.663131462809E+03   -0.21686E-02   -0.21687E-02   768   0.409E-02 0.410E-05
CGA:   6    -0.663132264769E+03   -0.80196E-03   -0.80205E-03   768   0.204E-02-0.619E-05
CGA:   7    -0.663132650697E+03   -0.38593E-03   -0.38593E-03   768   0.111E-02-0.538E-06
CGA:   8    -0.663132832841E+03   -0.18214E-03   -0.18213E-03   768   0.503E-03 0.777E-07
CGA:   9    -0.663132930819E+03   -0.97978E-04   -0.97962E-04   768   0.176E-03 0.156E-05
  58 F= -.66969017E+03 E0= -.66968029E+03  d E =-.265676E-02  mag=     1.1025
       N       E                     dE             d eps       ncg     rms          ort
SDA:   1    -0.662864189282E+03    0.26864E+00    0.00000E+00   768   0.725E+00 0.000E+00
CGA:   2    -0.663026578239E+03   -0.16239E+00   -0.16241E+00   768   0.403E+00-0.398E-03
CGA:   3    -0.663090821337E+03   -0.64243E-01   -0.64269E-01   768   0.187E+00 0.360E-03
CGA:   4    -0.663119364305E+03   -0.28543E-01   -0.28535E-01   768   0.512E-01-0.175E-04
CGA:   5    -0.663128585355E+03   -0.92210E-02   -0.92214E-02   768   0.183E-01 0.377E-04
CGA:   6    -0.663132053809E+03   -0.34685E-02   -0.34687E-02   768   0.889E-02-0.300E-04
CGA:   7    -0.663133723835E+03   -0.16700E-02   -0.16700E-02   768   0.484E-02 0.332E-05
CGA:   8    -0.663134516975E+03   -0.79314E-03   -0.79300E-03   768   0.212E-02-0.216E-05
CGA:   9    -0.663134939484E+03   -0.42251E-03   -0.42244E-03   768   0.758E-03 0.417E-05
CGA:  10    -0.663135091346E+03   -0.15186E-03   -0.15187E-03   768   0.311E-03-0.385E-06
CGA:  11    -0.663135140901E+03   -0.49555E-04   -0.49568E-04   768   0.138E-03 0.539E-06
  59 F= -.66969225E+03 E0= -.66968243E+03  d E =-.472931E-02  mag=     1.0989
       N       E                     dE             d eps       ncg     rms          ort
SDA:   1    -0.663016388082E+03    0.11870E+00    0.00000E+00   768   0.339E+00 0.000E+00
CGA:   2    -0.663087286676E+03   -0.70899E-01   -0.70904E-01   768   0.189E+00-0.118E-03
CGA:   3    -0.663116856682E+03   -0.29570E-01   -0.29583E-01   768   0.867E-01 0.169E-03
CGA:   4    -0.663130524197E+03   -0.13668E-01   -0.13665E-01   768   0.258E-01-0.139E-04
CGA:   5    -0.663135051330E+03   -0.45271E-02   -0.45274E-02   768   0.905E-02 0.151E-04
CGA:   6    -0.663136764932E+03   -0.17136E-02   -0.17138E-02   768   0.463E-02-0.163E-04
CGA:   7    -0.663137600106E+03   -0.83517E-03   -0.83518E-03   768   0.249E-02-0.146E-05
CGA:   8    -0.663138028369E+03   -0.42826E-03   -0.42822E-03   768   0.103E-02-0.211E-05
CGA:   9    -0.663138234827E+03   -0.20646E-03   -0.20641E-03   768   0.376E-03 0.220E-05
CGA:  10    -0.663138305737E+03   -0.70910E-04   -0.70911E-04   768   0.163E-03 0.340E-08
  60 F= -.66969529E+03 E0= -.66968553E+03  d E =-.304166E-02  mag=     1.0980
       N       E                     dE             d eps       ncg     rms          ort
SDA:   1    -0.662754800306E+03    0.38343E+00    0.00000E+00   768   0.107E+01 0.000E+00
CGA:   2    -0.662979069274E+03   -0.22427E+00   -0.22430E+00   768   0.598E+00-0.676E-03
CGA:   3    -0.663072572350E+03   -0.93503E-01   -0.93579E-01   768   0.274E+00 0.115E-02
CGA:   4    -0.663115882638E+03   -0.43310E-01   -0.43294E-01   768   0.818E-01-0.175E-03
CGA:   5    -0.663130111029E+03   -0.14228E-01   -0.14230E-01   768   0.296E-01 0.997E-04
CGA:   6    -0.663135594443E+03   -0.54834E-02   -0.54840E-02   768   0.150E-01-0.673E-04
CGA:   7    -0.663138280640E+03   -0.26862E-02   -0.26862E-02   768   0.788E-02 0.704E-05
CGA:   8    -0.663139662493E+03   -0.13819E-02   -0.13818E-02   768   0.325E-02-0.103E-04
CGA:   9    -0.663140311045E+03   -0.64855E-03   -0.64841E-03   768   0.122E-02 0.579E-05
CGA:  10    -0.663140532417E+03   -0.22137E-03   -0.22137E-03   768   0.526E-03-0.449E-06
CGA:  11    -0.663140614172E+03   -0.81755E-04   -0.81782E-04   768   0.190E-03 0.106E-05
  61 F= -.66969738E+03 E0= -.66968772E+03  d E =-.513106E-02  mag=     1.0964
       N       E                     dE             d eps       ncg     rms          ort
SDA:   1    -0.663098059930E+03    0.42472E-01    0.00000E+00   768   0.127E+00 0.000E+00
CGA:   2    -0.663124780522E+03   -0.26721E-01   -0.26721E-01   768   0.679E-01-0.854E-05
CGA:   3    -0.663135578927E+03   -0.10798E-01   -0.10799E-01   768   0.297E-01-0.204E-05
CGA:   4    -0.663140272741E+03   -0.46938E-02   -0.46935E-02   768   0.925E-02-0.392E-05
CGA:   5    -0.663141864442E+03   -0.15917E-02   -0.15917E-02   768   0.293E-02 0.640E-06
CGA:   6    -0.663142447630E+03   -0.58319E-03   -0.58329E-03   768   0.139E-02-0.401E-05
CGA:   7    -0.663142718820E+03   -0.27119E-03   -0.27120E-03   768   0.784E-03-0.128E-05
CGA:   8    -0.663142845828E+03   -0.12701E-03   -0.12697E-03   768   0.369E-03-0.137E-05
CGA:   9    -0.663142915912E+03   -0.70084E-04   -0.70080E-04   768   0.129E-03 0.318E-06
  62 F= -.66969973E+03 E0= -.66969002E+03  d E =-.235555E-02  mag=     1.0977
       N       E                     dE             d eps       ncg     rms          ort
SDA:   1    -0.662852848705E+03    0.29000E+00    0.00000E+00   768   0.829E+00 0.000E+00
CGA:   2    -0.663026767336E+03   -0.17392E+00   -0.17392E+00   768   0.442E+00-0.745E-04
CGA:   3    -0.663097259023E+03   -0.70492E-01   -0.70505E-01   768   0.192E+00 0.134E-03
CGA:   4    -0.663127811100E+03   -0.30552E-01   -0.30545E-01   768   0.593E-01-0.116E-03
CGA:   5    -0.663138087751E+03   -0.10277E-01   -0.10277E-01   768   0.199E-01 0.243E-04
CGA:   6    -0.663141874636E+03   -0.37869E-02   -0.37874E-02   768   0.945E-02-0.367E-04
CGA:   7    -0.663143637693E+03   -0.17631E-02   -0.17630E-02   768   0.525E-02 0.409E-05
CGA:   8    -0.663144499713E+03   -0.86202E-03   -0.86177E-03   768   0.230E-02-0.768E-05
CGA:   9    -0.663144957452E+03   -0.45774E-03   -0.45768E-03   768   0.813E-03 0.220E-05
CGA:  10    -0.663145122502E+03   -0.16505E-03   -0.16507E-03   768   0.336E-03-0.891E-06
CGA:  11    -0.663145174795E+03   -0.52292E-04   -0.52314E-04   768   0.148E-03 0.743E-06
  63 F= -.66970212E+03 E0= -.66969226E+03  d E =-.473953E-02  mag=     1.1008
       N       E                     dE             d eps       ncg     rms          ort
SDA:   1    -0.663084406954E+03    0.60716E-01    0.00000E+00   768   0.175E+00 0.000E+00
CGA:   2    -0.663125831315E+03   -0.41424E-01   -0.41422E-01   768   0.844E-01 0.278E-04
CGA:   3    -0.663139268202E+03   -0.13437E-01   -0.13435E-01   768   0.358E-01-0.375E-04
CGA:   4    -0.663144761052E+03   -0.54928E-02   -0.54929E-02   768   0.102E-01-0.579E-05
CGA:   5    -0.663146444983E+03   -0.16839E-02   -0.16839E-02   768   0.283E-02-0.224E-06
CGA:   6    -0.663147019044E+03   -0.57406E-03   -0.57408E-03   768   0.116E-02-0.756E-06
CGA:   7    -0.663147278667E+03   -0.25962E-03   -0.25974E-03   768   0.497E-03-0.272E-05
CGA:   8    -0.663147393613E+03   -0.11495E-03   -0.11501E-03   768   0.249E-03-0.132E-05
CGA:   9    -0.663147438247E+03   -0.44634E-04   -0.44631E-04   768   0.147E-03-0.505E-06
  64 F= -.66970458E+03 E0= -.66969467E+03  d E =-.246721E-02  mag=     1.1021
       N       E                     dE             d eps       ncg     rms          ort
SDA:   1    -0.662697609226E+03    0.44978E+00    0.00000E+00   768   0.125E+01 0.000E+00
CGA:   2    -0.662994552811E+03   -0.29694E+00   -0.29691E+00   768   0.602E+00 0.430E-03
CGA:   3    -0.663091183329E+03   -0.96631E-01   -0.96620E-01   768   0.253E+00-0.289E-03
CGA:   4    -0.663130242860E+03   -0.39060E-01   -0.39057E-01   768   0.713E-01-0.757E-04
CGA:   5    -0.663142174860E+03   -0.11932E-01   -0.11932E-01   768   0.209E-01-0.143E-04
CGA:   6    -0.663146272860E+03   -0.40980E-02   -0.40983E-02   768   0.847E-02-0.138E-04
CGA:   7    -0.663148133250E+03   -0.18604E-02   -0.18603E-02   768   0.374E-02-0.749E-06
CGA:   8    -0.663148900953E+03   -0.76770E-03   -0.76794E-03   768   0.223E-02-0.885E-05
CGA:   9    -0.663149244597E+03   -0.34364E-03   -0.34371E-03   768   0.992E-03 0.747E-06
CGA:  10    -0.663149439190E+03   -0.19459E-03   -0.19460E-03   768   0.313E-03-0.679E-06
CGA:  11    -0.663149510347E+03   -0.71157E-04   -0.71113E-04   768   0.127E-03 0.103E-05
  65 F= -.66970718E+03 E0= -.66969714E+03  d E =-.506426E-02  mag=     1.1052
       N       E                     dE             d eps       ncg     rms          ort
SDA:   1    -0.663079186542E+03    0.70253E-01    0.00000E+00   768   0.195E+00 0.000E+00
CGA:   2    -0.663131107656E+03   -0.51921E-01   -0.51913E-01   768   0.792E-01 0.722E-04
[...]
CGA:  10    -0.663209352203E+03   -0.62865E-04   -0.62836E-04   768   0.124E-03 0.823E-06
  91 F= -.66977744E+03 E0= -.66976732E+03  d E =-.408237E-02  mag=     1.1146
       N       E                     dE             d eps       ncg     rms          ort
SDA:   1    -0.663153796352E+03    0.55493E-01    0.00000E+00   768   0.153E+00 0.000E+00
CGA:   2    -0.663195993316E+03   -0.42197E-01   -0.42197E-01   768   0.576E-01-0.351E-05
CGA:   3    -0.663206373846E+03   -0.10381E-01   -0.10380E-01   768   0.250E-01-0.144E-04
CGA:   4    -0.663209735133E+03   -0.33613E-02   -0.33623E-02   768   0.667E-02-0.135E-05
CGA:   5    -0.663210772442E+03   -0.10373E-02   -0.10372E-02   768   0.189E-02 0.523E-07
CGA:   6    -0.663211102498E+03   -0.33006E-03   -0.33004E-03   768   0.826E-03-0.112E-05
CGA:   7    -0.663211237902E+03   -0.13540E-03   -0.13539E-03   768   0.346E-03-0.310E-06
CGA:   8    -0.663211299826E+03   -0.61924E-04   -0.61930E-04   768   0.160E-03 0.756E-06
  92 F= -.66977953E+03 E0= -.66976940E+03  d E =-.208669E-02  mag=     1.1150
       N       E                     dE             d eps       ncg     rms          ort
SDA:   1    -0.662958543709E+03    0.25269E+00    0.00000E+00   768   0.676E+00 0.000E+00
CGA:   2    -0.663144771746E+03   -0.18623E+00   -0.18623E+00   768   0.255E+00-0.461E-04
CGA:   3    -0.663190849940E+03   -0.46078E-01   -0.46076E-01   768   0.110E+00-0.824E-04
CGA:   4    -0.663205598501E+03   -0.14749E-01   -0.14757E-01   768   0.290E-01 0.392E-05
CGA:   5    -0.663210397399E+03   -0.47989E-02   -0.47983E-02   768   0.761E-02-0.990E-05
CGA:   6    -0.663211802880E+03   -0.14055E-02   -0.14055E-02   768   0.354E-02-0.827E-06
CGA:   7    -0.663212361477E+03   -0.55860E-03   -0.55856E-03   768   0.149E-02-0.515E-06
CGA:   8    -0.663212622398E+03   -0.26092E-03   -0.26094E-03   768   0.715E-03 0.190E-05
CGA:   9    -0.663212778518E+03   -0.15612E-03   -0.15610E-03   768   0.324E-03 0.758E-06
CGA:  10    -0.663212845839E+03   -0.67321E-04   -0.67297E-04   768   0.186E-03 0.116E-05
  93 F= -.66978136E+03 E0= -.66977120E+03  d E =-.391449E-02  mag=     1.1155
       N       E                     dE             d eps       ncg     rms          ort
SDA:   1    -0.663131246230E+03    0.81532E-01    0.00000E+00   768   0.216E+00 0.000E+00
CGA:   2    -0.663193843236E+03   -0.62597E-01   -0.62571E-01   768   0.738E-01 0.217E-03
CGA:   3    -0.663209023459E+03   -0.15180E-01   -0.15180E-01   768   0.247E-01-0.937E-05
CGA:   4    -0.663212662437E+03   -0.36390E-02   -0.36388E-02   768   0.749E-02 0.457E-06
CGA:   5    -0.663213773099E+03   -0.11107E-02   -0.11107E-02   768   0.178E-02 0.971E-06
CGA:   6    -0.663214160044E+03   -0.38694E-03   -0.38703E-03   768   0.592E-03-0.295E-05
CGA:   7    -0.663214273851E+03   -0.11381E-03   -0.11381E-03   768   0.239E-03-0.146E-05
CGA:   8    -0.663214323053E+03   -0.49202E-04   -0.49200E-04   768   0.144E-03 0.110E-06
  94 F= -.66978300E+03 E0= -.66977283E+03  d E =-.163644E-02  mag=     1.1177
       N       E                     dE             d eps       ncg     rms          ort
SDA:   1    -0.663211384166E+03    0.28897E-02    0.00000E+00   768   0.789E-02 0.000E+00
CGA:   2    -0.663213572268E+03   -0.21881E-02   -0.21880E-02   768   0.332E-02 0.906E-06
CGA:   3    -0.663214079465E+03   -0.50720E-03   -0.50713E-03   768   0.160E-02-0.218E-05
CGA:   4    -0.663214291063E+03   -0.21160E-03   -0.21168E-03   768   0.330E-03 0.124E-05
CGA:   5    -0.663214351745E+03   -0.60682E-04   -0.60683E-04   768   0.120E-03 0.200E-06
  95 F= -.66978305E+03 E0= -.66977289E+03  d E =-.169499E-02  mag=     1.1183
       N       E                     dE             d eps       ncg     rms          ort
SDA:   1    -0.663152071466E+03    0.62220E-01    0.00000E+00   768   0.167E+00 0.000E+00
CGA:   2    -0.663200055336E+03   -0.47984E-01   -0.47987E-01   768   0.572E-01-0.316E-04
CGA:   3    -0.663211381122E+03   -0.11326E-01   -0.11326E-01   768   0.219E-01 0.361E-07
CGA:   4    -0.663214341447E+03   -0.29603E-02   -0.29611E-02   768   0.648E-02-0.460E-06
CGA:   5    -0.663215318060E+03   -0.97661E-03   -0.97668E-03   768   0.165E-02 0.332E-05
CGA:   6    -0.663215606550E+03   -0.28849E-03   -0.28848E-03   768   0.791E-03-0.380E-06
CGA:   7    -0.663215724360E+03   -0.11781E-03   -0.11777E-03   768   0.260E-03-0.103E-05
CGA:   8    -0.663215777290E+03   -0.52930E-04   -0.52929E-04   768   0.130E-03 0.501E-07
  96 F= -.66978470E+03 E0= -.66977453E+03  d E =-.164709E-02  mag=     1.1181
       N       E                     dE             d eps       ncg     rms          ort
SDA:   1    -0.663120967112E+03    0.94757E-01    0.00000E+00   768   0.250E+00 0.000E+00
CGA:   2    -0.663192648570E+03   -0.71681E-01   -0.71687E-01   768   0.866E-01-0.575E-04
CGA:   3    -0.663209729489E+03   -0.17081E-01   -0.17081E-01   768   0.320E-01 0.858E-06
CGA:   4    -0.663214013924E+03   -0.42844E-02   -0.42861E-02   768   0.990E-02-0.314E-06
CGA:   5    -0.663215523581E+03   -0.15097E-02   -0.15097E-02   768   0.245E-02 0.371E-05
CGA:   6    -0.663215957629E+03   -0.43405E-03   -0.43404E-03   768   0.121E-02-0.364E-06
CGA:   7    -0.663216135210E+03   -0.17758E-03   -0.17754E-03   768   0.388E-03-0.111E-05
CGA:   8    -0.663216215507E+03   -0.80296E-04   -0.80294E-04   768   0.199E-03 0.855E-07
  97 F= -.66978541E+03 E0= -.66977523E+03  d E =-.235138E-02  mag=     1.1178
       N       E                     dE             d eps       ncg     rms          ort
SDA:   1    -0.663140219042E+03    0.75916E-01    0.00000E+00   768   0.202E+00 0.000E+00
CGA:   2    -0.663199170511E+03   -0.58951E-01   -0.58958E-01   768   0.679E-01-0.590E-04
CGA:   3    -0.663213010547E+03   -0.13840E-01   -0.13839E-01   768   0.209E-01 0.377E-04
CGA:   4    -0.663216298444E+03   -0.32879E-02   -0.32876E-02   768   0.669E-02 0.264E-05
CGA:   5    -0.663217212442E+03   -0.91400E-03   -0.91397E-03   768   0.191E-02-0.175E-05
CGA:   6    -0.663217550913E+03   -0.33847E-03   -0.33845E-03   768   0.808E-03-0.140E-05
CGA:   7    -0.663217672096E+03   -0.12118E-03   -0.12117E-03   768   0.288E-03-0.207E-06
CGA:   8    -0.663217728908E+03   -0.56811E-04   -0.56809E-04   768   0.143E-03 0.192E-06
  98 F= -.66978711E+03 E0= -.66977693E+03  d E =-.170170E-02  mag=     1.1177
       N       E                     dE             d eps       ncg     rms          ort
SDA:   1    -0.663071466375E+03    0.14621E+00    0.00000E+00   768   0.384E+00 0.000E+00
CGA:   2    -0.663182845673E+03   -0.11138E+00   -0.11140E+00   768   0.134E+00-0.163E-03
CGA:   3    -0.663208036612E+03   -0.25191E-01   -0.25192E-01   768   0.543E-01 0.827E-04
CGA:   4    -0.663214840577E+03   -0.68040E-02   -0.68043E-02   768   0.164E-01 0.175E-04
CGA:   5    -0.663217323786E+03   -0.24832E-02   -0.24829E-02   768   0.381E-02-0.206E-05
CGA:   6    -0.663218018608E+03   -0.69482E-03   -0.69481E-03   768   0.170E-02-0.245E-05
CGA:   7    -0.663218287512E+03   -0.26890E-03   -0.26887E-03   768   0.561E-03-0.826E-06
CGA:   8    -0.663218391999E+03   -0.10449E-03   -0.10449E-03   768   0.319E-03 0.177E-06
CGA:   9    -0.663218451816E+03   -0.59816E-04   -0.59814E-04   768   0.143E-03 0.109E-05
  99 F= -.66978808E+03 E0= -.66977789E+03  d E =-.267858E-02  mag=     1.1180
       N       E                     dE             d eps       ncg     rms          ort
SDA:   1    -0.663117905831E+03    0.10049E+00    0.00000E+00   768   0.264E+00 0.000E+00
CGA:   2    -0.663195546035E+03   -0.77640E-01   -0.77610E-01   768   0.915E-01 0.257E-03
CGA:   3    -0.663212613762E+03   -0.17068E-01   -0.17068E-01   768   0.397E-01-0.175E-04
CGA:   4    -0.663217294242E+03   -0.46805E-02   -0.46860E-02   768   0.111E-01-0.181E-05
CGA:   5    -0.663219060004E+03   -0.17658E-02   -0.17655E-02   768   0.221E-02-0.548E-05
CGA:   6    -0.663219531364E+03   -0.47136E-03   -0.47147E-03   768   0.920E-03-0.419E-05
CGA:   7    -0.663219664830E+03   -0.13347E-03   -0.13337E-03   768   0.352E-03-0.205E-05
CGA:   8    -0.663219727431E+03   -0.62601E-04   -0.62597E-04   768   0.173E-03-0.584E-06
 100 F= -.66978956E+03 E0= -.66977938E+03  d E =-.147872E-02  mag=     1.1197
       N       E                     dE             d eps       ncg     rms          ort
SDA:   1    -0.663215288583E+03    0.43762E-02    0.00000E+00   768   0.118E-01 0.000E+00
CGA:   2    -0.663218609408E+03   -0.33208E-02   -0.33207E-02   768   0.518E-02 0.141E-05
CGA:   3    -0.663219342364E+03   -0.73296E-03   -0.73277E-03   768   0.243E-02-0.213E-05
CGA:   4    -0.663219667118E+03   -0.32475E-03   -0.32491E-03   768   0.473E-03 0.222E-05
CGA:   5    -0.663219761902E+03   -0.94784E-04   -0.94796E-04   768   0.131E-03-0.830E-06
 101 F= -.66978964E+03 E0= -.66977946E+03  d E =-.155552E-02  mag=     1.1202
       N       E                     dE             d eps       ncg     rms          ort
SDA:   1    -0.663125652753E+03    0.94014E-01    0.00000E+00   768   0.248E+00 0.000E+00
CGA:   2    -0.663198686555E+03   -0.73034E-01   -0.73040E-01   768   0.832E-01-0.474E-04
CGA:   3    -0.663214932712E+03   -0.16246E-01   -0.16246E-01   768   0.318E-01 0.303E-04
CGA:   4    -0.663218984024E+03   -0.40513E-02   -0.40530E-02   768   0.103E-01 0.628E-05
CGA:   5    -0.663220454118E+03   -0.14701E-02   -0.14697E-02   768   0.216E-02-0.366E-05
CGA:   6    -0.663220883765E+03   -0.42965E-03   -0.42967E-03   768   0.907E-03-0.220E-05
CGA:   7    -0.663221020950E+03   -0.13719E-03   -0.13713E-03   768   0.306E-03-0.138E-05
CGA:   8    -0.663221078998E+03   -0.58047E-04   -0.58047E-04   768   0.176E-03-0.766E-07
 102 F= -.66979119E+03 E0= -.66978101E+03  d E =-.155156E-02  mag=     1.1197
       N       E                     dE             d eps       ncg     rms          ort
SDA:   1    -0.663014332384E+03    0.20669E+00    0.00000E+00   768   0.540E+00 0.000E+00
CGA:   2    -0.663172237079E+03   -0.15790E+00   -0.15793E+00   768   0.191E+00-0.150E-03
CGA:   3    -0.663206711742E+03   -0.34475E-01   -0.34474E-01   768   0.835E-01-0.174E-04
CGA:   4    -0.663216523791E+03   -0.98120E-02   -0.98271E-02   768   0.228E-01-0.652E-05
CGA:   5    -0.663220260850E+03   -0.37371E-02   -0.37366E-02   768   0.442E-02-0.860E-05
CGA:   6    -0.663221216001E+03   -0.95515E-03   -0.95525E-03   768   0.188E-02-0.333E-05
CGA:   7    -0.663221476524E+03   -0.26052E-03   -0.26042E-03   768   0.704E-03-0.165E-05
CGA:   8    -0.663221609040E+03   -0.13252E-03   -0.13252E-03   768   0.338E-03-0.438E-07
CGA:   9    -0.663221675152E+03   -0.66112E-04   -0.66098E-04   768   0.158E-03 0.139E-05
 103 F= -.66979213E+03 E0= -.66978195E+03  d E =-.248727E-02  mag=     1.1190
       N       E                     dE             d eps       ncg     rms          ort
SDA:   1    -0.663106774787E+03    0.11483E+00    0.00000E+00   768   0.302E+00 0.000E+00
CGA:   2    -0.663195540804E+03   -0.88766E-01   -0.88789E-01   768   0.105E+00-0.179E-03
CGA:   3    -0.663215461698E+03   -0.19921E-01   -0.19921E-01   768   0.410E-01 0.316E-04
CGA:   4    -0.663220472622E+03   -0.50109E-02   -0.50147E-02   768   0.127E-01 0.856E-05
CGA:   5    -0.663222373249E+03   -0.19006E-02   -0.19002E-02   768   0.264E-02-0.458E-05
CGA:   6    -0.663222914118E+03   -0.54087E-03   -0.54092E-03   768   0.107E-02-0.253E-05
CGA:   7    -0.663223076080E+03   -0.16196E-03   -0.16192E-03   768   0.393E-03-0.980E-06
CGA:   8    -0.663223145521E+03   -0.69442E-04   -0.69445E-04   768   0.204E-03 0.339E-06
 104 F= -.66979377E+03 E0= -.66978359E+03  d E =-.164406E-02  mag=     1.1188
       N       E                     dE             d eps       ncg     rms          ort
SDA:   1    -0.663155299024E+03    0.67777E-01    0.00000E+00   768   0.177E+00 0.000E+00
CGA:   2    -0.663206771679E+03   -0.51473E-01   -0.51483E-01   768   0.669E-01-0.787E-04
CGA:   3    -0.663217966197E+03   -0.11195E-01   -0.11193E-01   768   0.315E-01-0.210E-04
CGA:   4    -0.663221675155E+03   -0.37090E-02   -0.37124E-02   768   0.732E-02 0.716E-05
CGA:   5    -0.663222980797E+03   -0.13056E-02   -0.13056E-02   768   0.151E-02-0.282E-05
CGA:   6    -0.663223295696E+03   -0.31490E-03   -0.31494E-03   768   0.717E-03-0.160E-05
CGA:   7    -0.663223394314E+03   -0.98618E-04   -0.98571E-04   768   0.248E-03-0.814E-06
 105 F= -.66979415E+03 E0= -.66978396E+03  d E =-.202359E-02  mag=     1.1190
       N       E                     dE             d eps       ncg     rms          ort
SDA:   1    -0.663167760283E+03    0.55535E-01    0.00000E+00   768   0.148E+00 0.000E+00
CGA:   2    -0.663210587673E+03   -0.42827E-01   -0.42821E-01   768   0.557E-01 0.565E-04
CGA:   3    -0.663219859135E+03   -0.92715E-02   -0.92707E-02   768   0.260E-01-0.115E-04
CGA:   4    -0.663222946046E+03   -0.30869E-02   -0.30896E-02   768   0.639E-02 0.802E-05
CGA:   5    -0.663224059129E+03   -0.11131E-02   -0.11130E-02   768   0.124E-02-0.325E-05
CGA:   6    -0.663224335440E+03   -0.27631E-03   -0.27646E-03   768   0.537E-03-0.387E-05
CGA:   7    -0.663224407145E+03   -0.71705E-04   -0.71643E-04   768   0.223E-03-0.996E-06
 106 F= -.66979524E+03 E0= -.66978505E+03  d E =-.109029E-02  mag=     1.1204
       N       E                     dE             d eps       ncg     rms          ort
SDA:   1    -0.663104562365E+03    0.11977E+00    0.00000E+00   768   0.314E+00 0.000E+00
CGA:   2    -0.663195163522E+03   -0.90601E-01   -0.90580E-01   768   0.122E+00 0.195E-03
CGA:   3    -0.663214655384E+03   -0.19492E-01   -0.19487E-01   768   0.581E-01-0.479E-04
CGA:   4    -0.663221709614E+03   -0.70542E-02   -0.70619E-02   768   0.132E-01 0.994E-05
CGA:   5    -0.663224048772E+03   -0.23392E-02   -0.23391E-02   768   0.268E-02-0.526E-05
CGA:   6    -0.663224606105E+03   -0.55733E-03   -0.55744E-03   768   0.123E-02-0.435E-05
CGA:   7    -0.663224774727E+03   -0.16862E-03   -0.16850E-03   768   0.436E-03-0.220E-05
CGA:   8    -0.663224856222E+03   -0.81494E-04   -0.81497E-04   768   0.213E-03-0.613E-06
 107 F= -.66979580E+03 E0= -.66978561E+03  d E =-.165035E-02  mag=     1.1225
       N       E                     dE             d eps       ncg     rms          ort
SDA:   1    -0.663180661478E+03    0.44113E-01    0.00000E+00   768   0.117E+00 0.000E+00
CGA:   2    -0.663214849465E+03   -0.34188E-01   -0.34189E-01   768   0.447E-01-0.700E-06
CGA:   3    -0.663222176025E+03   -0.73266E-02   -0.73256E-02   768   0.211E-01-0.128E-04
CGA:   4    -0.663224670152E+03   -0.24941E-02   -0.24965E-02   768   0.479E-02 0.664E-05
CGA:   5    -0.663225534435E+03   -0.86428E-03   -0.86427E-03   768   0.991E-03-0.236E-05
CGA:   6    -0.663225743212E+03   -0.20878E-03   -0.20881E-03   768   0.468E-03-0.132E-05
CGA:   7    -0.663225806158E+03   -0.62946E-04   -0.62901E-04   768   0.164E-03-0.810E-06
 108 F= -.66979684E+03 E0= -.66978665E+03  d E =-.104191E-02  mag=     1.1230
       N       E                     dE             d eps       ncg     rms          ort
SDA:   1    -0.662819698979E+03    0.40604E+00    0.00000E+00   768   0.105E+01 0.000E+00
CGA:   2    -0.663129874155E+03   -0.31018E+00   -0.31020E+00   768   0.376E+00-0.584E-04
CGA:   3    -0.663197502526E+03   -0.67628E-01   -0.67628E-01   768   0.160E+00-0.327E-04
CGA:   4    -0.663216319872E+03   -0.18817E-01   -0.18859E-01   768   0.456E-01-0.289E-04
CGA:   5    -0.663223688129E+03   -0.73683E-02   -0.73672E-02   768   0.829E-02-0.166E-04
CGA:   6    -0.663225608863E+03   -0.19207E-02   -0.19210E-02   768   0.317E-02-0.575E-05
CGA:   7    -0.663226033969E+03   -0.42511E-03   -0.42495E-03   768   0.140E-02-0.916E-06
CGA:   8    -0.663226301889E+03   -0.26792E-03   -0.26791E-03   768   0.509E-03 0.123E-05
CGA:   9    -0.663226419984E+03   -0.11809E-03   -0.11799E-03   768   0.302E-03 0.229E-05
CGA:  10    -0.663226476139E+03   -0.56155E-04   -0.56155E-04   768   0.172E-03-0.167E-06
 109 F= -.66979778E+03 E0= -.66978760E+03  d E =-.198097E-02  mag=     1.1239
       N       E                     dE             d eps       ncg     rms          ort
SDA:   1    -0.663210789478E+03    0.15631E-01    0.00000E+00   768   0.411E-01 0.000E+00
CGA:   2    -0.663222875735E+03   -0.12086E-01   -0.12086E-01   768   0.145E-01 0.230E-05
CGA:   3    -0.663225618757E+03   -0.27430E-02   -0.27430E-02   768   0.533E-02-0.495E-05
CGA:   4    -0.663226301001E+03   -0.68224E-03   -0.68218E-03   768   0.171E-02-0.213E-05
CGA:   5    -0.663226556937E+03   -0.25594E-03   -0.25599E-03   768   0.343E-03 0.141E-05
CGA:   6    -0.663226618066E+03   -0.61129E-04   -0.61136E-04   768   0.154E-03 0.883E-06
 110 F= -.66979787E+03 E0= -.66978769E+03  d E =-.207061E-02  mag=     1.1238
       N       E                     dE             d eps       ncg     rms          ort
SDA:   1    -0.663161563316E+03    0.64994E-01    0.00000E+00   768   0.171E+00 0.000E+00
CGA:   2    -0.663211042179E+03   -0.49479E-01   -0.49493E-01   768   0.639E-01-0.114E-03
CGA:   3    -0.663222842465E+03   -0.11800E-01   -0.11801E-01   768   0.234E-01 0.335E-04
CGA:   4    -0.663225876514E+03   -0.30340E-02   -0.30337E-02   768   0.729E-02 0.941E-05
CGA:   5    -0.663226956481E+03   -0.10800E-02   -0.10798E-02   768   0.173E-02-0.243E-05
CGA:   6    -0.663227260814E+03   -0.30433E-03   -0.30432E-03   768   0.751E-03-0.143E-05
CGA:   7    -0.663227377508E+03   -0.11669E-03   -0.11670E-03   768   0.244E-03 0.359E-06
CGA:   8    -0.663227422751E+03   -0.45243E-04   -0.45240E-04   768   0.120E-03 0.879E-06
 111 F= -.66979881E+03 E0= -.66978862E+03  d E =-.936355E-03  mag=     1.1225
       N       E                     dE             d eps       ncg     rms          ort
SDA:   1    -0.663203328869E+03    0.24049E-01    0.00000E+00   768   0.630E-01 0.000E+00
CGA:   2    -0.663221324151E+03   -0.17995E-01   -0.17998E-01   768   0.252E-01-0.253E-04
CGA:   3    -0.663225494588E+03   -0.41704E-02   -0.41705E-02   768   0.111E-01 0.348E-05
CGA:   4    -0.663226847738E+03   -0.13532E-02   -0.13536E-02   768   0.280E-02 0.725E-05
CGA:   5    -0.663227335614E+03   -0.48788E-03   -0.48786E-03   768   0.682E-03-0.128E-05
CGA:   6    -0.663227458545E+03   -0.12293E-03   -0.12293E-03   768   0.328E-03-0.725E-06
CGA:   7    -0.663227510088E+03   -0.51543E-04   -0.51546E-04   768   0.115E-03 0.129E-06
 112 F= -.66979897E+03 E0= -.66978879E+03  d E =-.110276E-02  mag=     1.1219
       N       E                     dE             d eps       ncg     rms          ort
SDA:   1    -0.663190820049E+03    0.36638E-01    0.00000E+00   768   0.975E-01 0.000E+00
CGA:   2    -0.663219148266E+03   -0.28328E-01   -0.28327E-01   768   0.361E-01 0.133E-04
CGA:   3    -0.663225361859E+03   -0.62136E-02   -0.62136E-02   768   0.156E-01 0.101E-05
CGA:   4    -0.663227260498E+03   -0.18986E-02   -0.18996E-02   768   0.424E-02 0.598E-05
CGA:   5    -0.663227941459E+03   -0.68096E-03   -0.68089E-03   768   0.931E-03-0.253E-05
CGA:   6    -0.663228115630E+03   -0.17417E-03   -0.17418E-03   768   0.396E-03-0.187E-05
CGA:   7    -0.663228177130E+03   -0.61500E-04   -0.61472E-04   768   0.139E-03-0.991E-06
 113 F= -.66979973E+03 E0= -.66978955E+03  d E =-.758011E-03  mag=     1.1221
       N       E                     dE             d eps       ncg     rms          ort
SDA:   1    -0.663100049161E+03    0.12807E+00    0.00000E+00   768   0.335E+00 0.000E+00
CGA:   2    -0.663197409838E+03   -0.97361E-01   -0.97350E-01   768   0.125E+00 0.102E-03
CGA:   3    -0.663218671414E+03   -0.21262E-01   -0.21261E-01   768   0.561E-01-0.259E-04
CGA:   4    -0.663225347514E+03   -0.66761E-02   -0.66833E-02   768   0.145E-01 0.775E-05
CGA:   5    -0.663227757106E+03   -0.24096E-02   -0.24095E-02   768   0.287E-02-0.563E-05
CGA:   6    -0.663228358374E+03   -0.60127E-03   -0.60138E-03   768   0.121E-02-0.406E-05
CGA:   7    -0.663228529661E+03   -0.17129E-03   -0.17121E-03   768   0.464E-03-0.163E-05
CGA:   8    -0.663228612327E+03   -0.82666E-04   -0.82666E-04   768   0.207E-03-0.301E-06
 114 F= -.66980033E+03 E0= -.66979016E+03  d E =-.135996E-02  mag=     1.1223
