  71  71   0   0
  0.3998407E+02  0.1484082E-08  0.1475360E-08  0.1500000E-08  0.1000000E-15
  1.000000000000000E-004
  CAR 
 unknown system                          
      5.50002606    -48.56718782  301     -2.07212639      1.00000000
    -48.567  0.0000E+00  0.0000E+00  0.0000E+00  0.0000E+00
    -48.387  0.0000E+00  0.0000E+00  0.0000E+00  0.0000E+00
    -48.207  0.0000E+00  0.0000E+00  0.0000E+00  0.0000E+00
    -48.027  0.0000E+00  0.0000E+00  0.0000E+00  0.0000E+00
    -47.846  0.0000E+00  0.0000E+00  0.0000E+00  0.0000E+00
    -47.666  0.0000E+00  0.0000E+00  0.0000E+00  0.0000E+00
    -47.486  0.0000E+00  0.0000E+00  0.0000E+00  0.0000E+00
    -47.306  0.0000E+00  0.0000E+00  0.0000E+00  0.0000E+00
    -47.125  0.0000E+00  0.0000E+00  0.0000E+00  0.0000E+00
    -46.945  0.0000E+00  0.0000E+00  0.0000E+00  0.0000E+00
    -46.765  0.0000E+00  0.0000E+00  0.0000E+00  0.0000E+00
    -46.585  0.1264E-12  0.0000E+00  0.2279E-13  0.0000E+00
    -46.404  0.2105E-06  0.0000E+00  0.3794E-07  0.0000E+00
    -46.224  0.7266E-03  0.0000E+00  0.1310E-03  0.0000E+00
    -46.044  0.1084E-01  0.0000E+00  0.2085E-02  0.0000E+00
    -45.864  0.1296E-01  0.0000E+00  0.4420E-02  0.0000E+00
    -45.684  0.1627E-01  0.0000E+00  0.7353E-02  0.0000E+00
    -45.503  0.8173E-03  0.0000E+00  0.7500E-02  0.0000E+00
    -45.323  0.2475E-06  0.0000E+00  0.7500E-02  0.0000E+00
    -45.143  0.1622E-12  0.0000E+00  0.7500E-02  0.0000E+00
    -44.963  0.0000E+00  0.0000E+00  0.7500E-02  0.0000E+00
    -44.782  0.0000E+00  0.0000E+00  0.7500E-02  0.0000E+00
    -44.602  0.0000E+00  0.0000E+00  0.7500E-02  0.0000E+00
    -44.422  0.0000E+00  0.9271E-11  0.7500E-02  0.1671E-11
    -44.242  0.0000E+00  0.3059E-05  0.7500E-02  0.5514E-06
    -44.062  0.0000E+00  0.2316E-02  0.7500E-02  0.4180E-03
    -43.881  0.0000E+00  0.1154E-01  0.7500E-02  0.2498E-02
    -43.701  0.0000E+00  0.1273E-01  0.7500E-02  0.4792E-02
    -43.521  0.0000E+00  0.1338E-01  0.7500E-02  0.7203E-02
    -43.341  0.0000E+00  0.1647E-02  0.7500E-02  0.7500E-02
    -43.160  0.0000E+00  0.1324E-05  0.7500E-02  0.7500E-02
    -42.980  0.0000E+00  0.2356E-11  0.7500E-02  0.7500E-02
    -42.800  0.0000E+00  0.0000E+00  0.7500E-02  0.7500E-02
    -42.620  0.0000E+00  0.0000E+00  0.7500E-02  0.7500E-02
    -42.440  0.0000E+00  0.0000E+00  0.7500E-02  0.7500E-02
    -42.259  0.0000E+00  0.0000E+00  0.7500E-02  0.7500E-02
    -42.079  0.0000E+00  0.0000E+00  0.7500E-02  0.7500E-02
    -41.899  0.0000E+00  0.0000E+00  0.7500E-02  0.7500E-02
    -41.719  0.0000E+00  0.0000E+00  0.7500E-02  0.7500E-02
    -41.538  0.0000E+00  0.0000E+00  0.7500E-02  0.7500E-02
    -41.358  0.0000E+00  0.0000E+00  0.7500E-02  0.7500E-02
    -41.178  0.0000E+00  0.0000E+00  0.7500E-02  0.7500E-02
    -40.998  0.0000E+00  0.0000E+00  0.7500E-02  0.7500E-02
    -40.818  0.0000E+00  0.0000E+00  0.7500E-02  0.7500E-02
    -40.637  0.0000E+00  0.0000E+00  0.7500E-02  0.7500E-02
    -40.457  0.0000E+00  0.0000E+00  0.7500E-02  0.7500E-02
    -40.277  0.0000E+00  0.0000E+00  0.7500E-02  0.7500E-02
    -40.097  0.0000E+00  0.0000E+00  0.7500E-02  0.7500E-02
    -39.916  0.0000E+00  0.0000E+00  0.7500E-02  0.7500E-02
    -39.736  0.0000E+00  0.0000E+00  0.7500E-02  0.7500E-02
    -39.556  0.0000E+00  0.0000E+00  0.7500E-02  0.7500E-02
    -39.376  0.0000E+00  0.0000E+00  0.7500E-02  0.7500E-02
    -39.196  0.0000E+00  0.0000E+00  0.7500E-02  0.7500E-02
    -39.015  0.0000E+00  0.0000E+00  0.7500E-02  0.7500E-02
    -38.835  0.0000E+00  0.0000E+00  0.7500E-02  0.7500E-02
    -38.655  0.0000E+00  0.0000E+00  0.7500E-02  0.7500E-02
    -38.475  0.0000E+00  0.0000E+00  0.7500E-02  0.7500E-02
    -38.294  0.0000E+00  0.0000E+00  0.7500E-02  0.7500E-02
    -38.114  0.0000E+00  0.0000E+00  0.7500E-02  0.7500E-02
    -37.934  0.0000E+00  0.0000E+00  0.7500E-02  0.7500E-02
    -37.754  0.0000E+00  0.0000E+00  0.7500E-02  0.7500E-02
    -37.574  0.0000E+00  0.0000E+00  0.7500E-02  0.7500E-02
    -37.393  0.0000E+00  0.0000E+00  0.7500E-02  0.7500E-02
    -37.213  0.0000E+00  0.0000E+00  0.7500E-02  0.7500E-02
    -37.033  0.0000E+00  0.0000E+00  0.7500E-02  0.7500E-02
    -36.853  0.0000E+00  0.0000E+00  0.7500E-02  0.7500E-02
    -36.672  0.0000E+00  0.0000E+00  0.7500E-02  0.7500E-02
    -36.492  0.0000E+00  0.0000E+00  0.7500E-02  0.7500E-02
    -36.312  0.0000E+00  0.0000E+00  0.7500E-02  0.7500E-02
    -36.132  0.0000E+00  0.0000E+00  0.7500E-02  0.7500E-02
    -35.952  0.0000E+00  0.0000E+00  0.7500E-02  0.7500E-02
    -35.771  0.0000E+00  0.0000E+00  0.7500E-02  0.7500E-02
    -35.591  0.0000E+00  0.0000E+00  0.7500E-02  0.7500E-02
    -35.411  0.0000E+00  0.0000E+00  0.7500E-02  0.7500E-02
    -35.231  0.0000E+00  0.0000E+00  0.7500E-02  0.7500E-02
    -35.050  0.0000E+00  0.0000E+00  0.7500E-02  0.7500E-02
    -34.870  0.0000E+00  0.0000E+00  0.7500E-02  0.7500E-02
    -34.690  0.0000E+00  0.0000E+00  0.7500E-02  0.7500E-02
    -34.510  0.0000E+00  0.0000E+00  0.7500E-02  0.7500E-02
    -34.329  0.0000E+00  0.0000E+00  0.7500E-02  0.7500E-02
    -34.149  0.0000E+00  0.0000E+00  0.7500E-02  0.7500E-02
    -33.969  0.0000E+00  0.0000E+00  0.7500E-02  0.7500E-02
    -33.789  0.0000E+00  0.0000E+00  0.7500E-02  0.7500E-02
    -33.609  0.0000E+00  0.0000E+00  0.7500E-02  0.7500E-02
    -33.428  0.0000E+00  0.0000E+00  0.7500E-02  0.7500E-02
    -33.248  0.0000E+00  0.0000E+00  0.7500E-02  0.7500E-02
    -33.068  0.0000E+00  0.0000E+00  0.7500E-02  0.7500E-02
    -32.888  0.0000E+00  0.0000E+00  0.7500E-02  0.7500E-02
    -32.707  0.0000E+00  0.0000E+00  0.7500E-02  0.7500E-02
    -32.527  0.0000E+00  0.0000E+00  0.7500E-02  0.7500E-02
    -32.347  0.0000E+00  0.0000E+00  0.7500E-02  0.7500E-02
    -32.167  0.0000E+00  0.0000E+00  0.7500E-02  0.7500E-02
    -31.987  0.0000E+00  0.0000E+00  0.7500E-02  0.7500E-02
    -31.806  0.0000E+00  0.0000E+00  0.7500E-02  0.7500E-02
    -31.626  0.0000E+00  0.0000E+00  0.7500E-02  0.7500E-02
    -31.446  0.0000E+00  0.0000E+00  0.7500E-02  0.7500E-02
    -31.266  0.0000E+00  0.0000E+00  0.7500E-02  0.7500E-02
    -31.085  0.0000E+00  0.0000E+00  0.7500E-02  0.7500E-02
    -30.905  0.0000E+00  0.0000E+00  0.7500E-02  0.7500E-02
    -30.725  0.0000E+00  0.0000E+00  0.7500E-02  0.7500E-02
    -30.545  0.0000E+00  0.0000E+00  0.7500E-02  0.7500E-02
    -30.365  0.0000E+00  0.0000E+00  0.7500E-02  0.7500E-02
    -30.184  0.0000E+00  0.0000E+00  0.7500E-02  0.7500E-02
    -30.004  0.0000E+00  0.0000E+00  0.7500E-02  0.7500E-02
    -29.824  0.0000E+00  0.0000E+00  0.7500E-02  0.7500E-02
    -29.644  0.0000E+00  0.0000E+00  0.7500E-02  0.7500E-02
    -29.463  0.0000E+00  0.0000E+00  0.7500E-02  0.7500E-02
    -29.283  0.0000E+00  0.0000E+00  0.7500E-02  0.7500E-02
    -29.103  0.0000E+00  0.0000E+00  0.7500E-02  0.7500E-02
    -28.923  0.0000E+00  0.0000E+00  0.7500E-02  0.7500E-02
    -28.743  0.0000E+00  0.0000E+00  0.7500E-02  0.7500E-02
    -28.562  0.0000E+00  0.0000E+00  0.7500E-02  0.7500E-02
    -28.382  0.0000E+00  0.0000E+00  0.7500E-02  0.7500E-02
    -28.202  0.0000E+00  0.0000E+00  0.7500E-02  0.7500E-02
    -28.022  0.0000E+00  0.0000E+00  0.7500E-02  0.7500E-02
    -27.841  0.0000E+00  0.0000E+00  0.7500E-02  0.7500E-02
    -27.661  0.0000E+00  0.0000E+00  0.7500E-02  0.7500E-02
    -27.481  0.0000E+00  0.0000E+00  0.7500E-02  0.7500E-02
    -27.301  0.0000E+00  0.0000E+00  0.7500E-02  0.7500E-02
    -27.121  0.0000E+00  0.0000E+00  0.7500E-02  0.7500E-02
    -26.940  0.0000E+00  0.0000E+00  0.7500E-02  0.7500E-02
    -26.760  0.0000E+00  0.0000E+00  0.7500E-02  0.7500E-02
    -26.580  0.0000E+00  0.0000E+00  0.7500E-02  0.7500E-02
    -26.400  0.0000E+00  0.0000E+00  0.7500E-02  0.7500E-02
    -26.219  0.0000E+00  0.0000E+00  0.7500E-02  0.7500E-02
    -26.039  0.0000E+00  0.0000E+00  0.7500E-02  0.7500E-02
    -25.859  0.0000E+00  0.0000E+00  0.7500E-02  0.7500E-02
    -25.679  0.0000E+00  0.0000E+00  0.7500E-02  0.7500E-02
    -25.499  0.0000E+00  0.0000E+00  0.7500E-02  0.7500E-02
    -25.318  0.0000E+00  0.0000E+00  0.7500E-02  0.7500E-02
    -25.138  0.0000E+00  0.0000E+00  0.7500E-02  0.7500E-02
    -24.958  0.0000E+00  0.0000E+00  0.7500E-02  0.7500E-02
    -24.778  0.0000E+00  0.0000E+00  0.7500E-02  0.7500E-02
    -24.597  0.2308E-11  0.4655E-11  0.7500E-02  0.7500E-02
    -24.417  0.1308E-05  0.2012E-05  0.7500E-02  0.7500E-02
    -24.237  0.1635E-02  0.1956E-02  0.7795E-02  0.7853E-02
    -24.057  0.1104E-01  0.1094E-01  0.9784E-02  0.9824E-02
    -23.876  0.1197E-02  0.9748E-03  0.1000E-01  0.1000E-01
    -23.696  0.6340E-06  0.3998E-06  0.1000E-01  0.1000E-01
    -23.516  0.7209E-12  0.3466E-12  0.1000E-01  0.1000E-01
    -23.336  0.0000E+00  0.0000E+00  0.1000E-01  0.1000E-01
    -23.156  0.0000E+00  0.0000E+00  0.1000E-01  0.1000E-01
    -22.975  0.0000E+00  0.0000E+00  0.1000E-01  0.1000E-01
    -22.795  0.0000E+00  0.0000E+00  0.1000E-01  0.1000E-01
    -22.615  0.0000E+00  0.0000E+00  0.1000E-01  0.1000E-01
    -22.435  0.0000E+00  0.0000E+00  0.1000E-01  0.1000E-01
    -22.254  0.0000E+00  0.0000E+00  0.1000E-01  0.1000E-01
    -22.074  0.4428E-17  0.5775E-17  0.1000E-01  0.1000E-01
    -21.894  0.1811E-09  0.2202E-09  0.1000E-01  0.1000E-01
    -21.714  0.1433E-04  0.1606E-04  0.1000E-01  0.1000E-01
    -21.534  0.3425E-02  0.3571E-02  0.1062E-01  0.1065E-01
    -21.353  0.1355E-01  0.1361E-01  0.1306E-01  0.1310E-01
    -21.173  0.1287E-01  0.1293E-01  0.1538E-01  0.1543E-01
    -20.993  0.1423E-01  0.1435E-01  0.1795E-01  0.1802E-01
    -20.813  0.1047E-01  0.1029E-01  0.1983E-01  0.1987E-01
    -20.632  0.1225E-01  0.1265E-01  0.2204E-01  0.2215E-01
    -20.452  0.1898E-01  0.1888E-01  0.2546E-01  0.2555E-01
    -20.272  0.1194E-01  0.1160E-01  0.2761E-01  0.2764E-01
    -20.092  0.8663E-02  0.9101E-02  0.2918E-01  0.2928E-01
    -19.912  0.1488E-01  0.1470E-01  0.3186E-01  0.3193E-01
    -19.731  0.1561E-01  0.1573E-01  0.3467E-01  0.3477E-01
    -19.551  0.1573E-01  0.1559E-01  0.3751E-01  0.3758E-01
    -19.371  0.1028E-01  0.1029E-01  0.3936E-01  0.3943E-01
    -19.191  0.1433E-01  0.1465E-01  0.4194E-01  0.4207E-01
    -19.010  0.1234E-01  0.1226E-01  0.4416E-01  0.4428E-01
    -18.830  0.1332E-01  0.1337E-01  0.4656E-01  0.4669E-01
    -18.650  0.1548E-01  0.1531E-01  0.4935E-01  0.4945E-01
    -18.470  0.1656E-01  0.1621E-01  0.5234E-01  0.5237E-01
    -18.290  0.1275E-01  0.1377E-01  0.5464E-01  0.5485E-01
    -18.109  0.1573E-01  0.1522E-01  0.5747E-01  0.5760E-01
    -17.929  0.1413E-01  0.1409E-01  0.6002E-01  0.6014E-01
    -17.749  0.8336E-02  0.8002E-02  0.6152E-01  0.6158E-01
    -17.569  0.1597E-01  0.1653E-01  0.6440E-01  0.6456E-01
    -17.388  0.1928E-01  0.1903E-01  0.6787E-01  0.6799E-01
    -17.208  0.1694E-01  0.1699E-01  0.7093E-01  0.7105E-01
    -17.028  0.1621E-01  0.1628E-01  0.7385E-01  0.7398E-01
    -16.848  0.1625E-01  0.1618E-01  0.7678E-01  0.7690E-01
    -16.668  0.1443E-01  0.1425E-01  0.7938E-01  0.7947E-01
    -16.487  0.1054E-01  0.1075E-01  0.8128E-01  0.8141E-01
    -16.307  0.1308E-01  0.1312E-01  0.8363E-01  0.8377E-01
    -16.127  0.1596E-01  0.1617E-01  0.8651E-01  0.8669E-01
    -15.947  0.1777E-01  0.1738E-01  0.8971E-01  0.8982E-01
    -15.766  0.1133E-01  0.1145E-01  0.9175E-01  0.9188E-01
    -15.586  0.7918E-02  0.7711E-02  0.9318E-01  0.9327E-01
    -15.406  0.7235E-02  0.7496E-02  0.9448E-01  0.9462E-01
    -15.226  0.1096E-01  0.1099E-01  0.9646E-01  0.9660E-01
    -15.046  0.1891E-01  0.1874E-01  0.9987E-01  0.9998E-01
    -14.865  0.1802E-01  0.1826E-01  0.1031E+00  0.1033E+00
    -14.685  0.1257E-01  0.1205E-01  0.1054E+00  0.1054E+00
    -14.505  0.1430E-01  0.1479E-01  0.1080E+00  0.1081E+00
    -14.325  0.1483E-01  0.1490E-01  0.1106E+00  0.1108E+00
    -14.144  0.1942E-01  0.1914E-01  0.1141E+00  0.1142E+00
    -13.964  0.1257E-01  0.1274E-01  0.1164E+00  0.1165E+00
    -13.784  0.1985E-01  0.1990E-01  0.1200E+00  0.1201E+00
    -13.604  0.1114E-01  0.1070E-01  0.1220E+00  0.1221E+00
    -13.423  0.1832E-01  0.1899E-01  0.1253E+00  0.1255E+00
    -13.243  0.1137E-01  0.1079E-01  0.1273E+00  0.1274E+00
    -13.063  0.9850E-02  0.9955E-02  0.1291E+00  0.1292E+00
    -12.883  0.1098E-01  0.1116E-01  0.1311E+00  0.1312E+00
    -12.703  0.2208E-01  0.2225E-01  0.1351E+00  0.1352E+00
    -12.522  0.1777E-01  0.1742E-01  0.1383E+00  0.1384E+00
    -12.342  0.1153E-01  0.1125E-01  0.1403E+00  0.1404E+00
    -12.162  0.8031E-02  0.8082E-02  0.1418E+00  0.1419E+00
    -11.982  0.1447E-01  0.1466E-01  0.1444E+00  0.1445E+00
    -11.801  0.1836E-01  0.1859E-01  0.1477E+00  0.1479E+00
    -11.621  0.2640E-01  0.2682E-01  0.1525E+00  0.1527E+00
    -11.441  0.2247E-01  0.2181E-01  0.1565E+00  0.1566E+00
    -11.261  0.6581E-02  0.6177E-02  0.1577E+00  0.1577E+00
    -11.081  0.1166E-01  0.1210E-01  0.1598E+00  0.1599E+00
    -10.900  0.2019E-01  0.2014E-01  0.1634E+00  0.1635E+00
    -10.720  0.1774E-01  0.1789E-01  0.1666E+00  0.1668E+00
    -10.540  0.1343E-01  0.1345E-01  0.1691E+00  0.1692E+00
    -10.360  0.3370E-01  0.3454E-01  0.1751E+00  0.1754E+00
    -10.179  0.2429E-01  0.2302E-01  0.1795E+00  0.1796E+00
     -9.999  0.1885E-01  0.1948E-01  0.1829E+00  0.1831E+00
     -9.819  0.2281E-01  0.2250E-01  0.1870E+00  0.1871E+00
     -9.639  0.2053E-01  0.2061E-01  0.1907E+00  0.1908E+00
     -9.459  0.3461E-01  0.3455E-01  0.1970E+00  0.1971E+00
     -9.278  0.3092E-01  0.3091E-01  0.2025E+00  0.2026E+00
     -9.098  0.2788E-01  0.2820E-01  0.2075E+00  0.2077E+00
     -8.918  0.3543E-01  0.3514E-01  0.2139E+00  0.2141E+00
     -8.738  0.3388E-01  0.3395E-01  0.2200E+00  0.2202E+00
     -8.557  0.4188E-01  0.4300E-01  0.2276E+00  0.2279E+00
     -8.377  0.5729E-01  0.5647E-01  0.2379E+00  0.2381E+00
     -8.197  0.3388E-01  0.3342E-01  0.2440E+00  0.2441E+00
     -8.017  0.2864E-01  0.2936E-01  0.2492E+00  0.2494E+00
     -7.837  0.3200E-01  0.3143E-01  0.2549E+00  0.2551E+00
     -7.656  0.2194E-01  0.2174E-01  0.2589E+00  0.2590E+00
     -7.476  0.3633E-01  0.3682E-01  0.2655E+00  0.2656E+00
     -7.296  0.3421E-01  0.3386E-01  0.2716E+00  0.2717E+00
     -7.116  0.3052E-01  0.2985E-01  0.2771E+00  0.2771E+00
     -6.935  0.3696E-01  0.3764E-01  0.2838E+00  0.2839E+00
     -6.755  0.2138E-01  0.2119E-01  0.2876E+00  0.2877E+00
     -6.575  0.1490E-01  0.1444E-01  0.2903E+00  0.2903E+00
     -6.395  0.1918E-01  0.1813E-01  0.2938E+00  0.2936E+00
     -6.215  0.3987E-01  0.3991E-01  0.3010E+00  0.3008E+00
     -6.034  0.2993E-01  0.3101E-01  0.3064E+00  0.3064E+00
     -5.854  0.2681E-01  0.2712E-01  0.3112E+00  0.3113E+00
     -5.674  0.2693E-01  0.2426E-01  0.3160E+00  0.3156E+00
     -5.494  0.1571E-01  0.1774E-01  0.3189E+00  0.3188E+00
     -5.313  0.1585E-01  0.1454E-01  0.3217E+00  0.3214E+00
     -5.133  0.2074E-01  0.1900E-01  0.3255E+00  0.3249E+00
     -4.953  0.3323E-01  0.2586E-01  0.3315E+00  0.3295E+00
     -4.773  0.2602E-01  0.3195E-01  0.3361E+00  0.3353E+00
     -4.593  0.3420E-01  0.3428E-01  0.3423E+00  0.3415E+00
     -4.412  0.1167E-01  0.1608E-01  0.3444E+00  0.3444E+00
     -4.232  0.5728E-02  0.4364E-02  0.3454E+00  0.3452E+00
     -4.052  0.1310E-01  0.9876E-02  0.3478E+00  0.3469E+00
     -3.872  0.2712E-01  0.1530E-01  0.3527E+00  0.3497E+00
     -3.691  0.1507E-01  0.1709E-01  0.3554E+00  0.3528E+00
     -3.511  0.7459E-02  0.1702E-01  0.3567E+00  0.3558E+00
     -3.331  0.1483E-01  0.1446E-01  0.3594E+00  0.3584E+00
     -3.151  0.1861E-01  0.9409E-02  0.3628E+00  0.3601E+00
     -2.971  0.5493E-02  0.6297E-02  0.3638E+00  0.3613E+00
     -2.790  0.8651E-02  0.3064E-02  0.3653E+00  0.3618E+00
     -2.610  0.6172E-02  0.2647E-03  0.3664E+00  0.3619E+00
     -2.430  0.2525E-02  0.2745E-03  0.3669E+00  0.3619E+00
     -2.250  0.2877E-02  0.3394E-02  0.3674E+00  0.3625E+00
     -2.069  0.5468E-02  0.8956E-02  0.3684E+00  0.3642E+00
     -1.889  0.2399E-02  0.7090E-02  0.3688E+00  0.3654E+00
     -1.709  0.8403E-02  0.1093E-02  0.3703E+00  0.3656E+00
     -1.529  0.1298E-01  0.1146E-02  0.3727E+00  0.3658E+00
     -1.348  0.1384E-01  0.9041E-02  0.3752E+00  0.3675E+00
     -1.168  0.1067E-01  0.3683E-02  0.3771E+00  0.3681E+00
     -0.988  0.7152E-02  0.5088E-02  0.3784E+00  0.3690E+00
     -0.808  0.1614E-01  0.3033E-01  0.3813E+00  0.3745E+00
     -0.628  0.1801E-01  0.2835E-01  0.3845E+00  0.3796E+00
     -0.447  0.1305E-01  0.2429E-01  0.3869E+00  0.3840E+00
     -0.267  0.1931E-01  0.2377E-01  0.3904E+00  0.3883E+00
     -0.087  0.1248E-01  0.1836E-01  0.3926E+00  0.3916E+00
      0.093  0.9909E-02  0.1000E-01  0.3944E+00  0.3934E+00
      0.274  0.2309E-01  0.2160E-01  0.3986E+00  0.3973E+00
      0.454  0.1659E-01  0.2322E-01  0.4016E+00  0.4015E+00
      0.634  0.1401E-01  0.1500E-01  0.4041E+00  0.4042E+00
      0.814  0.1399E-01  0.6919E-02  0.4066E+00  0.4054E+00
      0.994  0.1693E-01  0.1402E-01  0.4097E+00  0.4079E+00
      1.175  0.1403E-01  0.2118E-01  0.4122E+00  0.4118E+00
      1.355  0.1789E-01  0.1519E-01  0.4154E+00  0.4145E+00
      1.535  0.1784E-01  0.1876E-01  0.4186E+00  0.4179E+00
      1.715  0.2250E-01  0.2220E-01  0.4227E+00  0.4219E+00
      1.896  0.2727E-01  0.2648E-01  0.4276E+00  0.4267E+00
      2.076  0.3505E-01  0.3301E-01  0.4339E+00  0.4326E+00
      2.256  0.2660E-01  0.2484E-01  0.4387E+00  0.4371E+00
      2.436  0.2279E-01  0.1950E-01  0.4428E+00  0.4406E+00
      2.616  0.3768E-01  0.4259E-01  0.4496E+00  0.4483E+00
      2.797  0.3980E-01  0.3939E-01  0.4568E+00  0.4554E+00
      2.977  0.1548E-01  0.1976E-01  0.4596E+00  0.4589E+00
      3.157  0.2332E-02  0.5740E-02  0.4600E+00  0.4600E+00
      3.337  0.3833E-04  0.2048E-03  0.4600E+00  0.4600E+00
      3.518  0.2278E-08  0.5344E-07  0.4600E+00  0.4600E+00
      3.698  0.2618E-15  0.3168E-13  0.4600E+00  0.4600E+00
      3.878  0.0000E+00  0.0000E+00  0.4600E+00  0.4600E+00
      4.058  0.0000E+00  0.0000E+00  0.4600E+00  0.4600E+00
      4.238  0.0000E+00  0.0000E+00  0.4600E+00  0.4600E+00
      4.419  0.0000E+00  0.0000E+00  0.4600E+00  0.4600E+00
      4.599  0.0000E+00  0.0000E+00  0.4600E+00  0.4600E+00
      4.779  0.0000E+00  0.0000E+00  0.4600E+00  0.4600E+00
      4.959  0.0000E+00  0.0000E+00  0.4600E+00  0.4600E+00
      5.140  0.0000E+00  0.0000E+00  0.4600E+00  0.4600E+00
      5.320  0.0000E+00  0.0000E+00  0.4600E+00  0.4600E+00
      5.500  0.0000E+00  0.0000E+00  0.4600E+00  0.4600E+00
