       N       E                     dE             d eps       ncg     rms          ort
DAV:   1     0.246087932443E+04    0.24609E+04   -0.11144E+05   736   0.110E+03
DAV:   2    -0.231747455823E+03   -0.26926E+04   -0.25717E+04   736   0.279E+02
DAV:   3    -0.687239825031E+03   -0.45549E+03   -0.45282E+03   736   0.121E+02
DAV:   4    -0.703919724649E+03   -0.16680E+02   -0.16533E+02   736   0.285E+01
DAV:   5    -0.704462073131E+03   -0.54235E+00   -0.54019E+00   736   0.435E+00
SDA:   6    -0.533961224708E+03    0.17050E+03   -0.54019E+00   736   0.500E+03 0.000E+00
CGA:   7    -0.587076564535E+03   -0.53115E+02   -0.26397E+02   736   0.344E+03 0.481E+03
CGA:   8    -0.623162748370E+03   -0.36086E+02   -0.15716E+02   736   0.196E+03 0.374E+03
CGA:   9    -0.636213592358E+03   -0.13051E+02   -0.11121E+02   736   0.360E+02 0.287E+02
CGA:  10    -0.644091391624E+03   -0.78778E+01   -0.78836E+01   736   0.135E+02-0.119E+00
CGA:  11    -0.644982277989E+03   -0.89089E+00   -0.58680E+00   736   0.512E+01 0.606E+01
CGA:  12    -0.645497396661E+03   -0.51512E+00   -0.46730E+00   736   0.844E+01 0.452E+00
CGA:  13    -0.645981533194E+03   -0.48414E+00   -0.35799E+00   736   0.886E+01 0.315E+01
CGA:  14    -0.646372309514E+03   -0.39078E+00   -0.46346E+00   736   0.223E+01-0.179E+01
CGA:  15    -0.646451801958E+03   -0.79492E-01   -0.89010E-01   736   0.194E+01-0.103E+00
CGA:  16    -0.646620353767E+03   -0.16855E+00   -0.15855E+00   736   0.166E+01 0.102E+00
CGA:  17    -0.646707428646E+03   -0.87075E-01   -0.61336E-01   736   0.911E+00 0.740E+00
CGA:  18    -0.646786072595E+03   -0.78644E-01   -0.62715E-01   736   0.841E+00 0.298E+00
CGA:  19    -0.646851015154E+03   -0.64943E-01   -0.45578E-01   736   0.100E+01 0.453E+00
CGA:  20    -0.646928739179E+03   -0.77724E-01   -0.83115E-01   736   0.479E+00 0.131E-04
CGA:  21    -0.647032723267E+03   -0.10398E+00   -0.94769E-01   736   0.879E-01 0.103E+00
CGA:  22    -0.647083249643E+03   -0.50526E-01   -0.43990E-01   736   0.551E-01 0.242E-01
CGA:  23    -0.647097434524E+03   -0.14185E-01   -0.14150E-01   736   0.929E-01 0.640E-03
CGA:  24    -0.647120160088E+03   -0.22726E-01   -0.22930E-01   736   0.308E-01-0.250E-02
CGA:  25    -0.647124877065E+03   -0.47170E-02   -0.47121E-02   736   0.306E-01 0.591E-03
CGA:  26    -0.647130279841E+03   -0.54028E-02   -0.54144E-02   736   0.948E-02-0.358E-03
CGA:  27    -0.647133541582E+03   -0.32617E-02   -0.32458E-02   736   0.154E-01 0.787E-04
CGA:  28    -0.647135560380E+03   -0.20188E-02   -0.20387E-02   736   0.524E-02 0.153E-03
CGA:  29    -0.647137605239E+03   -0.20449E-02   -0.20250E-02   736   0.378E-02 0.854E-04
CGA:  30    -0.647138238628E+03   -0.63339E-03   -0.63330E-03   736   0.307E-02 0.708E-05
CGA:  31    -0.647138888581E+03   -0.64995E-03   -0.64907E-03   736   0.804E-03 0.161E-04
CGA:  32    -0.647139098408E+03   -0.20983E-03   -0.20924E-03   736   0.102E-02 0.417E-05
CGA:  33    -0.647139246637E+03   -0.14823E-03   -0.14834E-03   736   0.280E-03 0.439E-05
CGA:  34    -0.647139365122E+03   -0.11848E-03   -0.11722E-03   736   0.407E-03 0.522E-05
CGA:  35    -0.647139416668E+03   -0.51546E-04   -0.51528E-04   736   0.153E-03 0.361E-06
CGA:  36    -0.647139474457E+03   -0.57789E-04   -0.57467E-04   736   0.961E-04 0.165E-05
CGA:  37    -0.647139490775E+03   -0.16318E-04   -0.16335E-04   736   0.858E-04 0.573E-06
CGA:  38    -0.647139511719E+03   -0.20944E-04   -0.21037E-04   736   0.287E-04-0.188E-05
CGA:  39    -0.647139521025E+03   -0.93062E-05   -0.95419E-05   736   0.426E-04-0.164E-05
   1 F= -.65354207E+03 E0= -.65352482E+03  d E =-.653542E+03  mag=     1.5485
       N       E                     dE             d eps       ncg     rms          ort
SDA:   1    -0.647127885399E+03    0.11626E-01    0.00000E+00   736   0.428E-01 0.000E+00
CGA:   2    -0.647136409919E+03   -0.85245E-02   -0.85247E-02   736   0.286E-01 0.669E-04
CGA:   3    -0.647140439645E+03   -0.40297E-02   -0.40286E-02   736   0.859E-02 0.133E-05
CGA:   4    -0.647142046836E+03   -0.16072E-02   -0.16075E-02   736   0.258E-02 0.297E-04
CGA:   5    -0.647142481881E+03   -0.43505E-03   -0.43500E-03   736   0.799E-03-0.148E-05
CGA:   6    -0.647142626809E+03   -0.14493E-03   -0.14486E-03   736   0.253E-03-0.490E-05
CGA:   7    -0.647142680114E+03   -0.53305E-04   -0.53355E-04   736   0.127E-03-0.287E-05
CGA:   8    -0.647142707006E+03   -0.26892E-04   -0.26902E-04   736   0.762E-04-0.578E-06
CGA:   9    -0.647142721479E+03   -0.14473E-04   -0.14476E-04   736   0.375E-04 0.504E-06
CGA:  10    -0.647142729934E+03   -0.84555E-05   -0.84276E-05   736   0.133E-04 0.103E-05
   2 F= -.65354522E+03 E0= -.65352800E+03  d E =-.315691E-02  mag=     1.5630
       N       E                     dE             d eps       ncg     rms          ort
SDA:   1    -0.647120878223E+03    0.21843E-01    0.00000E+00   736   0.668E-01 0.000E+00
CGA:   2    -0.647134332986E+03   -0.13455E-01   -0.13455E-01   736   0.444E-01 0.128E-03
CGA:   3    -0.647140590894E+03   -0.62579E-02   -0.62560E-02   736   0.134E-01 0.533E-05
CGA:   4    -0.647143087785E+03   -0.24969E-02   -0.24973E-02   736   0.410E-02 0.380E-04
CGA:   5    -0.647143770685E+03   -0.68290E-03   -0.68286E-03   736   0.125E-02-0.134E-05
CGA:   6    -0.647143999424E+03   -0.22874E-03   -0.22866E-03   736   0.412E-03-0.622E-05
CGA:   7    -0.647144084979E+03   -0.85554E-04   -0.85604E-04   736   0.212E-03-0.347E-05
CGA:   8    -0.647144129268E+03   -0.44289E-04   -0.44301E-04   736   0.130E-03-0.721E-06
CGA:   9    -0.647144155045E+03   -0.25777E-04   -0.25776E-04   736   0.642E-04 0.712E-06
CGA:  10    -0.647144170406E+03   -0.15361E-04   -0.15305E-04   736   0.249E-04 0.139E-05
CGA:  11    -0.647144176974E+03   -0.65682E-05   -0.65624E-05   736   0.139E-04 0.894E-07
   3 F= -.65354660E+03 E0= -.65352940E+03  d E =-.452958E-02  mag=     1.5846
       N       E                     dE             d eps       ncg     rms          ort
SDA:   1    -0.647127315242E+03    0.16855E-01    0.00000E+00   736   0.602E-01 0.000E+00
CGA:   2    -0.647138145193E+03   -0.10830E-01   -0.10836E-01   736   0.321E-01 0.111E-03
CGA:   3    -0.647143011453E+03   -0.48663E-02   -0.48657E-02   736   0.137E-01 0.162E-05
CGA:   4    -0.647145714953E+03   -0.27035E-02   -0.27035E-02   736   0.367E-02 0.308E-04
CGA:   5    -0.647146303920E+03   -0.58897E-03   -0.58879E-03   736   0.109E-02-0.484E-05
CGA:   6    -0.647146510577E+03   -0.20666E-03   -0.20662E-03   736   0.382E-03-0.588E-05
CGA:   7    -0.647146594443E+03   -0.83866E-04   -0.83957E-04   736   0.202E-03-0.356E-05
CGA:   8    -0.647146639905E+03   -0.45463E-04   -0.45506E-04   736   0.118E-03-0.141E-05
CGA:   9    -0.647146660773E+03   -0.20867E-04   -0.20865E-04   736   0.557E-04-0.134E-06
CGA:  10    -0.647146672683E+03   -0.11910E-04   -0.11901E-04   736   0.203E-04 0.570E-06
CGA:  11    -0.647146678133E+03   -0.54500E-05   -0.54494E-05   736   0.102E-04 0.925E-08
   4 F= -.65354902E+03 E0= -.65353186E+03  d E =-.242605E-02  mag=     1.6135
       N       E                     dE             d eps       ncg     rms          ort
SDA:   1    -0.647102796851E+03    0.43876E-01    0.00000E+00   736   0.141E+00 0.000E+00
CGA:   2    -0.647128349499E+03   -0.25553E-01   -0.25577E-01   736   0.744E-01 0.424E-03
CGA:   3    -0.647139685995E+03   -0.11336E-01   -0.11335E-01   736   0.321E-01 0.188E-04
CGA:   4    -0.647146009506E+03   -0.63235E-02   -0.63237E-02   736   0.857E-02 0.517E-04
CGA:   5    -0.647147382612E+03   -0.13731E-02   -0.13729E-02   736   0.257E-02-0.618E-05
CGA:   6    -0.647147865424E+03   -0.48281E-03   -0.48273E-03   736   0.893E-03-0.846E-05
CGA:   7    -0.647148060781E+03   -0.19536E-03   -0.19547E-03   736   0.471E-03-0.516E-05
CGA:   8    -0.647148165850E+03   -0.10507E-03   -0.10512E-03   736   0.274E-03-0.206E-05
CGA:   9    -0.647148214576E+03   -0.48725E-04   -0.48724E-04   736   0.126E-03-0.123E-06
CGA:  10    -0.647148241752E+03   -0.27176E-04   -0.27161E-04   736   0.454E-04 0.877E-06
CGA:  11    -0.647148253661E+03   -0.11910E-04   -0.11908E-04   736   0.227E-04 0.208E-07
CGA:  12    -0.647148258942E+03   -0.52809E-05   -0.52831E-05   736   0.169E-04-0.708E-07
   5 F= -.65355047E+03 E0= -.65353350E+03  d E =-.387218E-02  mag=     1.6571
       N       E                     dE             d eps       ncg     rms          ort
SDA:   1    -0.647127155807E+03    0.21098E-01    0.00000E+00   736   0.677E-01 0.000E+00
CGA:   2    -0.647138984094E+03   -0.11828E-01   -0.11830E-01   736   0.373E-01 0.247E-04
CGA:   3    -0.647144947440E+03   -0.59633E-02   -0.59654E-02   736   0.181E-01 0.149E-04
CGA:   4    -0.647148462265E+03   -0.35148E-02   -0.35148E-02   736   0.500E-02 0.554E-05
CGA:   5    -0.647149263747E+03   -0.80148E-03   -0.80135E-03   736   0.160E-02-0.356E-05
CGA:   6    -0.647149603729E+03   -0.33998E-03   -0.34006E-03   736   0.698E-03-0.568E-05
CGA:   7    -0.647149743543E+03   -0.13981E-03   -0.13982E-03   736   0.332E-03-0.403E-05
CGA:   8    -0.647149810448E+03   -0.66906E-04   -0.66912E-04   736   0.175E-03-0.205E-05
CGA:   9    -0.647149840724E+03   -0.30276E-04   -0.30245E-04   736   0.633E-04-0.121E-05
CGA:  10    -0.647149854288E+03   -0.13563E-04   -0.13571E-04   736   0.199E-04-0.473E-06
CGA:  11    -0.647149858948E+03   -0.46605E-05   -0.46741E-05   736   0.900E-05-0.362E-06
   6 F= -.65355205E+03 E0= -.65353519E+03  d E =-.158237E-02  mag=     1.6732
       N       E                     dE             d eps       ncg     rms          ort
SDA:   1    -0.647139698395E+03    0.10156E-01    0.00000E+00   736   0.313E-01 0.000E+00
CGA:   2    -0.647145133590E+03   -0.54352E-02   -0.54357E-02   736   0.174E-01 0.986E-05
CGA:   3    -0.647147913308E+03   -0.27797E-02   -0.27801E-02   736   0.833E-02 0.333E-06
CGA:   4    -0.647149537930E+03   -0.16246E-02   -0.16246E-02   736   0.230E-02 0.289E-05
CGA:   5    -0.647149908396E+03   -0.37047E-03   -0.37037E-03   736   0.730E-03-0.281E-05
CGA:   6    -0.647150064391E+03   -0.15599E-03   -0.15607E-03   736   0.329E-03-0.405E-05
CGA:   7    -0.647150129565E+03   -0.65174E-04   -0.65183E-04   736   0.157E-03-0.276E-05
CGA:   8    -0.647150160860E+03   -0.31295E-04   -0.31301E-04   736   0.823E-04-0.148E-05
CGA:   9    -0.647150175217E+03   -0.14358E-04   -0.14340E-04   736   0.294E-04-0.840E-06
CGA:  10    -0.647150181603E+03   -0.63859E-05   -0.63934E-05   736   0.937E-05-0.311E-06
   7 F= -.65355236E+03 E0= -.65353558E+03  d E =-.188706E-02  mag=     1.6835
       N       E                     dE             d eps       ncg     rms          ort
SDA:   1    -0.647121392722E+03    0.28782E-01    0.00000E+00   736   0.927E-01 0.000E+00
CGA:   2    -0.647135148219E+03   -0.13755E-01   -0.13753E-01   736   0.495E-01-0.421E-05
CGA:   3    -0.647143919254E+03   -0.87710E-02   -0.87723E-02   736   0.255E-01 0.266E-04
CGA:   4    -0.647148779925E+03   -0.48607E-02   -0.48606E-02   736   0.881E-02-0.143E-04
CGA:   5    -0.647150223465E+03   -0.14435E-02   -0.14435E-02   736   0.267E-02-0.312E-05
CGA:   6    -0.647150787012E+03   -0.56355E-03   -0.56361E-03   736   0.120E-02-0.375E-05
CGA:   7    -0.647151038217E+03   -0.25121E-03   -0.25129E-03   736   0.548E-03-0.530E-05
CGA:   8    -0.647151150562E+03   -0.11235E-03   -0.11238E-03   736   0.264E-03-0.324E-05
CGA:   9    -0.647151194025E+03   -0.43462E-04   -0.43409E-04   736   0.924E-04-0.174E-05
CGA:  10    -0.647151212233E+03   -0.18208E-04   -0.18210E-04   736   0.278E-04-0.475E-06
CGA:  11    -0.647151218569E+03   -0.63360E-05   -0.63424E-05   736   0.987E-05-0.187E-06
   8 F= -.65355338E+03 E0= -.65353674E+03  d E =-.101924E-02  mag=     1.7022
