 running on   48 total cores
 distrk:  each k-point on   48 cores,    1 groups
 distr:  one band on   12 cores,    4 groups
 using from now: INCAR     
 vasp.5.4.4.18Apr17-6-g9f103f2a35 (build Jan 14 2022 15:04:31) complex          
  
 POSCAR found type information on POSCAR  C  N  C  Cr
 POSCAR found :  4 types and      71 ions
 scaLAPACK will be used
 LDA part: xc-table for Pade appr. of Perdew
 POSCAR found type information on POSCAR  C  N  C  Cr
 POSCAR found :  4 types and      71 ions
 POSCAR, INCAR and KPOINTS ok, starting setup
 FFT: planning ...
 WAVECAR not read
 entering main loop
       N       E                     dE             d eps       ncg     rms          ort
DAV:   1     0.246087932443E+04    0.24609E+04   -0.11144E+05   736   0.110E+03
DAV:   2    -0.231747455823E+03   -0.26926E+04   -0.25717E+04   736   0.279E+02
DAV:   3    -0.687239825031E+03   -0.45549E+03   -0.45282E+03   736   0.121E+02
DAV:   4    -0.703919724649E+03   -0.16680E+02   -0.16533E+02   736   0.285E+01
DAV:   5    -0.704462073131E+03   -0.54235E+00   -0.54019E+00   736   0.435E+00
 gam= 0.000 g(H,U,f)=  0.358E+03 0.138E+03 0.480E+01 ort(H,U,f) = 0.000E+00 0.000E+00 0.000E+00
SDA:   6    -0.533961224708E+03    0.17050E+03   -0.54019E+00   736   0.500E+03 0.000E+00
 gam= 0.000 trial= 0.400  step= 0.106 mean= 0.400
 gam= 0.000 g(H,U,f)=  0.160E+03 0.182E+03 0.147E+01 ort(H,U,f) = 0.237E+03 0.241E+03 0.240E+01
CGA:   7    -0.587076564535E+03   -0.53115E+02   -0.26397E+02   736   0.344E+03 0.481E+03
 gam= 0.000 trial= 0.385  step= 0.091 mean= 0.385
 gam= 0.000 g(H,U,f)=  0.569E+02 0.907E+02 0.489E+02 ort(H,U,f) = 0.925E+02 0.179E+03 0.103E+03
CGA:   8    -0.623162748370E+03   -0.36086E+02   -0.15716E+02   736   0.196E+03 0.374E+03
 gam= 0.000 trial= 0.371  step= 0.113 mean= 0.371
 gam= 0.183 g(H,U,f)=  0.306E+02 0.547E+01 0.563E-02 ort(H,U,f) = 0.250E+02 0.369E+01 0.232E-01
CGA:   9    -0.636213592358E+03   -0.13051E+02   -0.11121E+02   736   0.360E+02 0.287E+02
 gam= 0.183 trial= 0.358  step= 0.382 mean= 0.358
 gam= 0.376 g(H,U,f)=  0.904E+01 0.411E+01 0.381E+00 ort(H,U,f) = 0.236E+01-0.246E+01-0.218E-01
CGA:  10    -0.644091391624E+03   -0.78778E+01   -0.78836E+01   736   0.135E+02-0.119E+00
 gam= 0.376 trial= 0.359  step= 0.087 mean= 0.359
 gam= 0.378 g(H,U,f)=  0.466E+01 0.458E+00 0.375E-02 ort(H,U,f) = 0.517E+01 0.835E+00 0.557E-01
CGA:  11    -0.644982277989E+03   -0.89089E+00   -0.58680E+00   736   0.512E+01 0.606E+01
 gam= 0.378 trial= 0.345  step= 0.126 mean= 0.345
 gam= 1.649 g(H,U,f)=  0.242E+01 0.317E+01 0.285E+01 ort(H,U,f) = 0.271E+01-0.886E+00-0.137E+01
CGA:  12    -0.645497396661E+03   -0.51512E+00   -0.46730E+00   736   0.844E+01 0.452E+00
 gam= 1.649 trial= 0.334  step= 0.078 mean= 0.334
 gam= 1.050 g(H,U,f)=  0.167E+01 0.358E+01 0.362E+01 ort(H,U,f) = 0.948E+00 0.151E+01 0.688E+00
CGA:  13    -0.645981533194E+03   -0.48414E+00   -0.35799E+00   736   0.886E+01 0.315E+01
 gam= 1.050 trial= 0.322  step= 0.076 mean= 0.322
 gam= 0.251 g(H,U,f)=  0.140E+01 0.424E+00 0.400E+00 ort(H,U,f) =-0.254E+01 0.202E+01-0.127E+01
CGA:  14    -0.646372309514E+03   -0.39078E+00   -0.46346E+00   736   0.223E+01-0.179E+01
 gam= 0.251 trial= 0.309  step= 0.100 mean= 0.309
 gam= 0.870 g(H,U,f)=  0.102E+01 0.513E+00 0.400E+00 ort(H,U,f) = 0.379E+00 0.810E-01-0.563E+00
CGA:  15    -0.646451801958E+03   -0.79492E-01   -0.89010E-01   736   0.194E+01-0.103E+00
 gam= 0.870 trial= 0.299  step= 0.172 mean= 0.299
 gam= 0.860 g(H,U,f)=  0.478E+00 0.821E+00 0.366E+00 ort(H,U,f) = 0.255E+00 0.138E+00-0.291E+00
CGA:  16    -0.646620353767E+03   -0.16855E+00   -0.15855E+00   736   0.166E+01 0.102E+00
 gam= 0.860 trial= 0.292  step= 0.070 mean= 0.292
 gam= 0.547 g(H,U,f)=  0.335E+00 0.272E+00 0.304E+00 ort(H,U,f) = 0.180E+00 0.621E+00-0.614E-01
CGA:  17    -0.646707428646E+03   -0.87075E-01   -0.61336E-01   736   0.911E+00 0.740E+00
 gam= 0.547 trial= 0.281  step= 0.095 mean= 0.281
 gam= 0.923 g(H,U,f)=  0.370E+00 0.177E+00 0.295E+00 ort(H,U,f) = 0.124E+00 0.533E-01 0.121E+00
CGA:  18    -0.646786072595E+03   -0.78644E-01   -0.62715E-01   736   0.841E+00 0.298E+00
 gam= 0.923 trial= 0.272  step= 0.082 mean= 0.272
 gam= 0.000 g(H,U,f)=  0.384E+00 0.384E+00 0.233E+00 ort(H,U,f) = 0.278E+00 0.127E-01 0.163E+00
CGA:  19    -0.646851015154E+03   -0.64943E-01   -0.45578E-01   736   0.100E+01 0.453E+00
 gam= 0.000 trial= 0.263  step= 0.166 mean= 0.263
 gam= 0.479 g(H,U,f)=  0.106E+00 0.234E+00 0.140E+00 ort(H,U,f) = 0.834E-01-0.149E+00 0.659E-01
CGA:  20    -0.646928739179E+03   -0.77724E-01   -0.83115E-01   736   0.479E+00 0.131E-04
 gam= 0.479 trial= 0.258  step= 0.395 mean= 0.258
 gam= 0.183 g(H,U,f)=  0.425E-01 0.312E-01 0.142E-01 ort(H,U,f) = 0.155E-01 0.581E-01 0.298E-01
CGA:  21    -0.647032723267E+03   -0.10398E+00   -0.94769E-01   736   0.879E-01 0.103E+00
 gam= 0.183 trial= 0.265  step= 0.823 mean= 0.265
 gam= 0.627 g(H,U,f)=  0.235E-01 0.305E-01 0.111E-02 ort(H,U,f) =-0.150E-03 0.242E-01 0.107E-03
CGA:  22    -0.647083249643E+03   -0.50526E-01   -0.43990E-01   736   0.551E-01 0.242E-01
 gam= 0.627 trial= 0.293  step= 0.403 mean= 0.293
 gam= 1.685 g(H,U,f)=  0.348E-01 0.499E-01 0.818E-02 ort(H,U,f) =-0.662E-02 0.643E-02 0.833E-03
CGA:  23    -0.647097434524E+03   -0.14185E-01   -0.14150E-01   736   0.929E-01 0.640E-03
 gam= 1.685 trial= 0.298  step= 0.488 mean= 0.298
 gam= 0.331 g(H,U,f)=  0.209E-01 0.836E-02 0.147E-02 ort(H,U,f) =-0.148E-01 0.984E-02 0.246E-02
CGA:  24    -0.647120160088E+03   -0.22726E-01   -0.22930E-01   736   0.308E-01-0.250E-02
 gam= 0.331 trial= 0.307  step= 0.315 mean= 0.307
 gam= 0.994 g(H,U,f)=  0.122E-01 0.169E-01 0.152E-02 ort(H,U,f) = 0.481E-02-0.308E-02-0.114E-02
CGA:  25    -0.647124877065E+03   -0.47170E-02   -0.47121E-02   736   0.306E-01 0.591E-03
 gam= 0.994 trial= 0.308  step= 0.347 mean= 0.308
 gam= 0.310 g(H,U,f)=  0.526E-02 0.403E-02 0.189E-03 ort(H,U,f) =-0.140E-02 0.664E-03 0.374E-03
CGA:  26    -0.647130279841E+03   -0.54028E-02   -0.54144E-02   736   0.948E-02-0.358E-03
 gam= 0.310 trial= 0.310  step= 0.693 mean= 0.310
 gam= 1.623 g(H,U,f)=  0.546E-02 0.903E-02 0.895E-03 ort(H,U,f) = 0.414E-03-0.451E-03 0.116E-03
CGA:  27    -0.647133541582E+03   -0.32617E-02   -0.32458E-02   736   0.154E-01 0.787E-04
 gam= 1.623 trial= 0.329  step= 0.263 mean= 0.329
 gam= 0.341 g(H,U,f)=  0.344E-02 0.176E-02 0.361E-04 ort(H,U,f) =-0.293E-02 0.287E-02 0.211E-03
CGA:  28    -0.647135560380E+03   -0.20188E-02   -0.20387E-02   736   0.524E-02 0.153E-03
 gam= 0.341 trial= 0.326  step= 0.765 mean= 0.326
 gam= 0.721 g(H,U,f)=  0.224E-02 0.135E-02 0.187E-03 ort(H,U,f) =-0.277E-03 0.507E-03-0.145E-03
CGA:  29    -0.647137605239E+03   -0.20449E-02   -0.20250E-02   736   0.378E-02 0.854E-04
 gam= 0.721 trial= 0.348  step= 0.330 mean= 0.348
 gam= 0.814 g(H,U,f)=  0.169E-02 0.134E-02 0.433E-04 ort(H,U,f) = 0.384E-03-0.313E-03-0.639E-04
CGA:  30    -0.647138238628E+03   -0.63339E-03   -0.63330E-03   736   0.307E-02 0.708E-05
 gam= 0.814 trial= 0.347  step= 0.422 mean= 0.347
 gam= 0.262 g(H,U,f)=  0.578E-03 0.219E-03 0.714E-05 ort(H,U,f) = 0.235E-03-0.222E-03 0.326E-05
CGA:  31    -0.647138888581E+03   -0.64995E-03   -0.64907E-03   736   0.804E-03 0.161E-04
 gam= 0.262 trial= 0.351  step= 0.518 mean= 0.351
 gam= 1.272 g(H,U,f)=  0.445E-03 0.530E-03 0.477E-04 ort(H,U,f) = 0.175E-03-0.152E-03-0.187E-04
CGA:  32    -0.647139098408E+03   -0.20983E-03   -0.20924E-03   736   0.102E-02 0.417E-05
 gam= 1.272 trial= 0.359  step= 0.289 mean= 0.359
 gam= 0.273 g(H,U,f)=  0.189E-03 0.866E-04 0.436E-05 ort(H,U,f) =-0.214E-04 0.271E-04-0.126E-05
CGA:  33    -0.647139246637E+03   -0.14823E-03   -0.14834E-03   736   0.280E-03 0.439E-05
 gam= 0.273 trial= 0.355  step= 0.835 mean= 0.355
 gam= 1.454 g(H,U,f)=  0.193E-03 0.198E-03 0.152E-04 ort(H,U,f) = 0.644E-05 0.828E-05-0.950E-05
CGA:  34    -0.647139365122E+03   -0.11848E-03   -0.11722E-03   736   0.407E-03 0.522E-05
 gam= 1.454 trial= 0.379  step= 0.249 mean= 0.379
 gam= 0.376 g(H,U,f)=  0.104E-03 0.475E-04 0.185E-05 ort(H,U,f) =-0.250E-04 0.268E-04-0.138E-05
CGA:  35    -0.647139416668E+03   -0.51546E-04   -0.51528E-04   736   0.153E-03 0.361E-06
 gam= 0.376 trial= 0.373  step= 0.751 mean= 0.373
 gam= 0.629 g(H,U,f)=  0.576E-04 0.343E-04 0.416E-05 ort(H,U,f) =-0.696E-05 0.690E-05 0.171E-05
CGA:  36    -0.647139474457E+03   -0.57789E-04   -0.57467E-04   736   0.961E-04 0.165E-05
 gam= 0.629 trial= 0.392  step= 0.336 mean= 0.392
 gam= 0.892 g(H,U,f)=  0.417E-04 0.408E-04 0.325E-05 ort(H,U,f) = 0.895E-05-0.684E-05-0.153E-05
CGA:  37    -0.647139490775E+03   -0.16318E-04   -0.16335E-04   736   0.858E-04 0.573E-06
 gam= 0.892 trial= 0.389  step= 0.488 mean= 0.389
 gam= 0.334 g(H,U,f)=  0.180E-04 0.994E-05 0.712E-06 ort(H,U,f) =-0.832E-05 0.550E-05 0.942E-06
CGA:  38    -0.647139511719E+03   -0.20944E-04   -0.21037E-04   736   0.287E-04-0.188E-05
 gam= 0.334 trial= 0.394  step= 0.681 mean= 0.394
 gam= 1.485 g(H,U,f)=  0.199E-04 0.213E-04 0.142E-05 ort(H,U,f) =-0.569E-06-0.122E-05 0.150E-06
CGA:  39    -0.647139521025E+03   -0.93062E-05   -0.95419E-05   736   0.426E-04-0.164E-05
 gam= 1.485 trial= 0.408  step= 0.264 mean= 0.408
 final diagonalization
   1 F= -.65354207E+03 E0= -.65352482E+03  d E =-.653542E+03  mag=     1.5485
 curvature:   0.00 expect dE= 0.000E+00 dE for cont linesearch  0.000E+00
 trial: gam= 0.00000 g(F)=  0.404E-02 g(S)=  0.000E+00 ort = 0.000E+00 (trialstep = 0.100E+01)
 search vector abs. value=  0.404E-02
 bond charge predicted
       N       E                     dE             d eps       ncg     rms          ort
 gam= 0.000 g(H,U,f)=  0.355E-01 0.618E-02 0.105E-02 ort(H,U,f) = 0.000E+00 0.000E+00 0.000E+00
SDA:   1    -0.647127885399E+03    0.11626E-01    0.00000E+00   736   0.428E-01 0.000E+00
 gam= 0.000 trial= 0.401  step= 0.399 mean= 0.401
 gam= 0.668 g(H,U,f)=  0.192E-01 0.841E-02 0.917E-03 ort(H,U,f) = 0.550E-02-0.452E-02-0.914E-03
CGA:   2    -0.647136409919E+03   -0.85245E-02   -0.85247E-02   736   0.286E-01 0.669E-04
 gam= 0.668 trial= 0.401  step= 0.282 mean= 0.401
 gam= 0.301 g(H,U,f)=  0.761E-02 0.957E-03 0.202E-04 ort(H,U,f) = 0.372E-03-0.376E-03 0.522E-05
CGA:   3    -0.647140439645E+03   -0.40297E-02   -0.40286E-02   736   0.859E-02 0.133E-05
 gam= 0.301 trial= 0.395  step= 0.374 mean= 0.395
 gam= 0.300 g(H,U,f)=  0.244E-02 0.135E-03 0.934E-06 ort(H,U,f) =-0.193E-03 0.219E-03 0.312E-05
CGA:   4    -0.647142046836E+03   -0.16072E-02   -0.16075E-02   736   0.258E-02 0.297E-04
 gam= 0.300 trial= 0.394  step= 0.336 mean= 0.394
 gam= 0.310 g(H,U,f)=  0.728E-03 0.676E-04 0.316E-05 ort(H,U,f) =-0.103E-03 0.103E-03-0.129E-05
CGA:   5    -0.647142481881E+03   -0.43505E-03   -0.43500E-03   736   0.799E-03-0.148E-05
 gam= 0.310 trial= 0.391  step= 0.363 mean= 0.391
 gam= 0.317 g(H,U,f)=  0.213E-03 0.383E-04 0.183E-05 ort(H,U,f) =-0.555E-04 0.490E-04 0.159E-05
CGA:   6    -0.647142626809E+03   -0.14493E-03   -0.14486E-03   736   0.253E-03-0.490E-05
 gam= 0.317 trial= 0.390  step= 0.424 mean= 0.390
 gam= 0.503 g(H,U,f)=  0.913E-04 0.335E-04 0.247E-05 ort(H,U,f) =-0.280E-04 0.258E-04-0.704E-06
CGA:   7    -0.647142680114E+03   -0.53305E-04   -0.53355E-04   736   0.127E-03-0.287E-05
 gam= 0.503 trial= 0.391  step= 0.427 mean= 0.391
 gam= 0.599 g(H,U,f)=  0.518E-04 0.223E-04 0.213E-05 ort(H,U,f) =-0.115E-04 0.113E-04-0.393E-06
CGA:   8    -0.647142707006E+03   -0.26892E-04   -0.26902E-04   736   0.762E-04-0.578E-06
 gam= 0.599 trial= 0.393  step= 0.381 mean= 0.393
 gam= 0.492 g(H,U,f)=  0.285E-04 0.839E-05 0.651E-06 ort(H,U,f) =-0.265E-05 0.258E-05 0.571E-06
CGA:   9    -0.647142721479E+03   -0.14473E-04   -0.14476E-04   736   0.375E-04 0.504E-06
 gam= 0.492 trial= 0.393  step= 0.446 mean= 0.393
 gam= 0.353 g(H,U,f)=  0.112E-04 0.170E-05 0.406E-06 ort(H,U,f) =-0.603E-06 0.108E-05 0.558E-06
CGA:  10    -0.647142729934E+03   -0.84555E-05   -0.84276E-05   736   0.133E-04 0.103E-05
 gam= 0.353 trial= 0.395  step= 0.513 mean= 0.395
 final diagonalization
   2 F= -.65354522E+03 E0= -.65352800E+03  d E =-.315691E-02  mag=     1.5630
 trial-energy change:   -0.003157  1 .order   -0.003142   -0.004037   -0.002246
 step:   2.2543(harm=  2.2543)  dis= 0.00515  next Energy=  -653.546618 (dE=-0.455E-02)
 bond charge predicted
       N       E                     dE             d eps       ncg     rms          ort
 gam= 0.000 g(H,U,f)=  0.558E-01 0.943E-02 0.156E-02 ort(H,U,f) = 0.000E+00 0.000E+00 0.000E+00
SDA:   1    -0.647120878223E+03    0.21843E-01    0.00000E+00   736   0.668E-01 0.000E+00
 gam= 0.000 trial= 0.401  step= 0.403 mean= 0.401
 gam= 0.665 g(H,U,f)=  0.304E-01 0.127E-01 0.136E-02 ort(H,U,f) = 0.821E-02-0.675E-02-0.133E-02
CGA:   2    -0.647134332986E+03   -0.13455E-01   -0.13455E-01   736   0.444E-01 0.128E-03
 gam= 0.665 trial= 0.401  step= 0.281 mean= 0.401
 gam= 0.303 g(H,U,f)=  0.120E-01 0.145E-02 0.290E-04 ort(H,U,f) = 0.542E-03-0.548E-03 0.107E-04
CGA:   3    -0.647140590894E+03   -0.62579E-02   -0.62560E-02   736   0.134E-01 0.533E-05
 gam= 0.303 trial= 0.395  step= 0.372 mean= 0.395
 gam= 0.305 g(H,U,f)=  0.389E-02 0.207E-03 0.203E-05 ort(H,U,f) =-0.312E-03 0.345E-03 0.520E-05
CGA:   4    -0.647143087785E+03   -0.24969E-02   -0.24973E-02   736   0.410E-02 0.380E-04
 gam= 0.305 trial= 0.394  step= 0.332 mean= 0.394
 gam= 0.306 g(H,U,f)=  0.114E-02 0.109E-03 0.588E-05 ort(H,U,f) =-0.164E-03 0.163E-03-0.718E-07
CGA:   5    -0.647143770685E+03   -0.68290E-03   -0.68286E-03   736   0.125E-02-0.134E-05
 gam= 0.306 trial= 0.391  step= 0.365 mean= 0.391
 gam= 0.328 g(H,U,f)=  0.341E-03 0.663E-04 0.389E-05 ort(H,U,f) =-0.843E-04 0.747E-04 0.341E-05
CGA:   6    -0.647143999424E+03   -0.22874E-03   -0.22866E-03   736   0.412E-03-0.622E-05
 gam= 0.328 trial= 0.390  step= 0.418 mean= 0.390
 gam= 0.516 g(H,U,f)=  0.147E-03 0.606E-04 0.501E-05 ort(H,U,f) =-0.422E-04 0.393E-04-0.512E-06
CGA:   7    -0.647144084979E+03   -0.85554E-04   -0.85604E-04   736   0.212E-03-0.347E-05
 gam= 0.516 trial= 0.391  step= 0.421 mean= 0.391
 gam= 0.614 g(H,U,f)=  0.886E-04 0.382E-04 0.362E-05 ort(H,U,f) =-0.197E-04 0.190E-04-0.283E-07
CGA:   8    -0.647144129268E+03   -0.44289E-04   -0.44301E-04   736   0.130E-03-0.721E-06
 gam= 0.614 trial= 0.393  step= 0.397 mean= 0.393
 gam= 0.493 g(H,U,f)=  0.492E-04 0.138E-04 0.125E-05 ort(H,U,f) =-0.790E-05 0.678E-05 0.183E-05
CGA:   9    -0.647144155045E+03   -0.25777E-04   -0.25776E-04   736   0.642E-04 0.712E-06
 gam= 0.493 trial= 0.393  step= 0.474 mean= 0.393
 gam= 0.388 g(H,U,f)=  0.203E-04 0.380E-05 0.814E-06 ort(H,U,f) =-0.254E-05 0.260E-05 0.132E-05
CGA:  10    -0.647144170406E+03   -0.15361E-04   -0.15305E-04   736   0.249E-04 0.139E-05
 gam= 0.388 trial= 0.397  step= 0.515 mean= 0.397
 gam= 0.557 g(H,U,f)=  0.882E-05 0.467E-05 0.414E-06 ort(H,U,f) =-0.105E-05 0.759E-06 0.377E-06
CGA:  11    -0.647144176974E+03   -0.65682E-05   -0.65624E-05   736   0.139E-04 0.894E-07
 gam= 0.557 trial= 0.403  step= 0.406 mean= 0.403
 final diagonalization
   3 F= -.65354660E+03 E0= -.65352940E+03  d E =-.452958E-02  mag=     1.5846
 curvature:  -1.13 expect dE=-0.276E-02 dE for cont linesearch -0.192E-05
 trial: gam= 0.62625 g(F)=  0.245E-02 g(S)=  0.000E+00 ort =-0.828E-04 (trialstep = 0.125E+01)
 search vector abs. value=  0.393E-02
 bond charge predicted
       N       E                     dE             d eps       ncg     rms          ort
 gam= 0.000 g(H,U,f)=  0.462E-01 0.117E-01 0.227E-02 ort(H,U,f) = 0.000E+00 0.000E+00 0.000E+00
SDA:   1    -0.647127315242E+03    0.16855E-01    0.00000E+00   736   0.602E-01 0.000E+00
 gam= 0.000 trial= 0.403  step= 0.360 mean= 0.403
 gam= 0.534 g(H,U,f)=  0.224E-01 0.886E-02 0.845E-03 ort(H,U,f) = 0.727E-02-0.599E-02-0.117E-02
CGA:   2    -0.647138145193E+03   -0.10830E-01   -0.10836E-01   736   0.321E-01 0.111E-03
 gam= 0.534 trial= 0.401  step= 0.302 mean= 0.401
 gam= 0.426 g(H,U,f)=  0.111E-01 0.257E-02 0.237E-04 ort(H,U,f) = 0.157E-02-0.154E-02-0.294E-04
CGA:   3    -0.647143011453E+03   -0.48663E-02   -0.48657E-02   736   0.137E-01 0.162E-05
 gam= 0.426 trial= 0.396  step= 0.395 mean= 0.396
 gam= 0.268 g(H,U,f)=  0.336E-02 0.300E-03 0.101E-04 ort(H,U,f) =-0.481E-03 0.492E-03 0.199E-04
CGA:   4    -0.647145714953E+03   -0.27035E-02   -0.27035E-02   736   0.367E-02 0.308E-04
 gam= 0.268 trial= 0.396  step= 0.320 mean= 0.396
 gam= 0.298 g(H,U,f)=  0.990E-03 0.983E-04 0.555E-05 ort(H,U,f) =-0.179E-03 0.171E-03 0.311E-05
CGA:   5    -0.647146303920E+03   -0.58897E-03   -0.58879E-03   736   0.109E-02-0.484E-05
 gam= 0.298 trial= 0.392  step= 0.378 mean= 0.392
 gam= 0.349 g(H,U,f)=  0.328E-03 0.499E-04 0.377E-05 ort(H,U,f) =-0.852E-04 0.756E-04 0.368E-05
CGA:   6    -0.647146510577E+03   -0.20666E-03   -0.20662E-03   736   0.382E-03-0.588E-05
 gam= 0.349 trial= 0.391  step= 0.442 mean= 0.391
 gam= 0.529 g(H,U,f)=  0.153E-03 0.452E-04 0.349E-05 ort(H,U,f) =-0.498E-04 0.439E-04 0.226E-05
CGA:   7    -0.647146594443E+03   -0.83866E-04   -0.83957E-04   736   0.202E-03-0.356E-05
 gam= 0.529 trial= 0.394  step= 0.455 mean= 0.394
 gam= 0.585 g(H,U,f)=  0.817E-04 0.326E-04 0.381E-05 ort(H,U,f) =-0.182E-04 0.157E-04 0.104E-05
CGA:   8    -0.647146639905E+03   -0.45463E-04   -0.45506E-04   736   0.118E-03-0.141E-05
 gam= 0.585 trial= 0.397  step= 0.356 mean= 0.397
 gam= 0.472 g(H,U,f)=  0.397E-04 0.146E-04 0.144E-05 ort(H,U,f) =-0.315E-05 0.821E-06 0.220E-05
CGA:   9    -0.647146660773E+03   -0.20867E-04   -0.20865E-04   736   0.557E-04-0.134E-06
 gam= 0.472 trial= 0.395  step= 0.428 mean= 0.395
 gam= 0.365 g(H,U,f)=  0.164E-04 0.306E-05 0.848E-06 ort(H,U,f) =-0.323E-05 0.220E-05 0.160E-05
CGA:  10    -0.647146672683E+03   -0.11910E-04   -0.11901E-04   736   0.203E-04 0.570E-06
 gam= 0.365 trial= 0.397  step= 0.531 mean= 0.397
 gam= 0.504 g(H,U,f)=  0.691E-05 0.304E-05 0.295E-06 ort(H,U,f) =-0.202E-05 0.149E-05 0.539E-06
CGA:  11    -0.647146678133E+03   -0.54500E-05   -0.54494E-05   736   0.102E-04 0.925E-08
 gam= 0.504 trial= 0.403  step= 0.486 mean= 0.403
 final diagonalization
   4 F= -.65354902E+03 E0= -.65353186E+03  d E =-.242605E-02  mag=     1.6135
 trial-energy change:   -0.002426  1 .order   -0.002403   -0.002994   -0.001812
 step:   3.1672(harm=  3.1672)  dis= 0.00671  next Energy=  -653.550387 (dE=-0.379E-02)
 bond charge predicted
       N       E                     dE             d eps       ncg     rms          ort
 gam= 0.000 g(H,U,f)=  0.108E+00 0.274E-01 0.508E-02 ort(H,U,f) = 0.000E+00 0.000E+00 0.000E+00
SDA:   1    -0.647102796851E+03    0.43876E-01    0.00000E+00   736   0.141E+00 0.000E+00
 gam= 0.000 trial= 0.407  step= 0.363 mean= 0.407
 gam= 0.528 g(H,U,f)=  0.524E-01 0.202E-01 0.185E-02 ort(H,U,f) = 0.167E-01-0.137E-01-0.255E-02
CGA:   2    -0.647128349499E+03   -0.25553E-01   -0.25577E-01   736   0.744E-01 0.424E-03
 gam= 0.528 trial= 0.405  step= 0.304 mean= 0.405
 gam= 0.432 g(H,U,f)=  0.260E-01 0.606E-02 0.588E-04 ort(H,U,f) = 0.363E-02-0.354E-02-0.741E-04
CGA:   3    -0.647139685995E+03   -0.11336E-01   -0.11335E-01   736   0.321E-01 0.188E-04
 gam= 0.432 trial= 0.400  step= 0.393 mean= 0.400
 gam= 0.267 g(H,U,f)=  0.785E-02 0.701E-03 0.227E-04 ort(H,U,f) =-0.116E-02 0.116E-02 0.445E-04
CGA:   4    -0.647146009506E+03   -0.63235E-02   -0.63237E-02   736   0.857E-02 0.517E-04
 gam= 0.267 trial= 0.400  step= 0.320 mean= 0.400
 gam= 0.299 g(H,U,f)=  0.232E-02 0.231E-03 0.115E-04 ort(H,U,f) =-0.417E-03 0.404E-03 0.659E-05
CGA:   5    -0.647147382612E+03   -0.13731E-02   -0.13729E-02   736   0.257E-02-0.618E-05
 gam= 0.299 trial= 0.396  step= 0.376 mean= 0.396
 gam= 0.348 g(H,U,f)=  0.767E-03 0.118E-03 0.809E-05 ort(H,U,f) =-0.191E-03 0.176E-03 0.702E-05
CGA:   6    -0.647147865424E+03   -0.48281E-03   -0.48273E-03   736   0.893E-03-0.846E-05
 gam= 0.348 trial= 0.395  step= 0.439 mean= 0.395
 gam= 0.528 g(H,U,f)=  0.356E-03 0.108E-03 0.774E-05 ort(H,U,f) =-0.109E-03 0.998E-04 0.445E-05
CGA:   7    -0.647148060781E+03   -0.19536E-03   -0.19547E-03   736   0.471E-03-0.516E-05
 gam= 0.528 trial= 0.397  step= 0.449 mean= 0.397
 gam= 0.581 g(H,U,f)=  0.190E-03 0.760E-04 0.789E-05 ort(H,U,f) =-0.394E-04 0.356E-04 0.183E-05
CGA:   8    -0.647148165850E+03   -0.10507E-03   -0.10512E-03   736   0.274E-03-0.206E-05
 gam= 0.581 trial= 0.400  step= 0.358 mean= 0.400
 gam= 0.460 g(H,U,f)=  0.913E-04 0.315E-04 0.289E-05 ort(H,U,f) =-0.680E-05 0.212E-05 0.456E-05
CGA:   9    -0.647148214576E+03   -0.48725E-04   -0.48724E-04   736   0.126E-03-0.123E-06
 gam= 0.460 trial= 0.398  step= 0.432 mean= 0.398
 gam= 0.361 g(H,U,f)=  0.370E-04 0.665E-05 0.180E-05 ort(H,U,f) =-0.649E-05 0.411E-05 0.326E-05
CGA:  10    -0.647148241752E+03   -0.27176E-04   -0.27161E-04   736   0.454E-04 0.877E-06
 gam= 0.361 trial= 0.399  step= 0.521 mean= 0.399
 gam= 0.499 g(H,U,f)=  0.152E-04 0.684E-05 0.609E-06 ort(H,U,f) =-0.372E-05 0.266E-05 0.108E-05
CGA:  11    -0.647148253661E+03   -0.11910E-04   -0.11908E-04   736   0.227E-04 0.208E-07
 gam= 0.499 trial= 0.405  step= 0.466 mean= 0.405
 gam= 0.746 g(H,U,f)=  0.958E-05 0.650E-05 0.825E-06 ort(H,U,f) =-0.115E-05 0.226E-06 0.854E-06
CGA:  12    -0.647148258942E+03   -0.52809E-05   -0.52831E-05   736   0.169E-04-0.708E-07
 gam= 0.746 trial= 0.408  step= 0.421 mean= 0.408
 final diagonalization
   5 F= -.65355047E+03 E0= -.65353350E+03  d E =-.387218E-02  mag=     1.6571
 curvature:  -2.60 expect dE=-0.354E-02 dE for cont linesearch -0.988E-06
 trial: gam= 0.50789 g(F)=  0.136E-02 g(S)=  0.000E+00 ort = 0.386E-04 (trialstep = 0.163E+01)
 search vector abs. value=  0.241E-02
 bond charge predicted
       N       E                     dE             d eps       ncg     rms          ort
 gam= 0.000 g(H,U,f)=  0.544E-01 0.121E-01 0.122E-02 ort(H,U,f) = 0.000E+00 0.000E+00 0.000E+00
SDA:   1    -0.647127155807E+03    0.21098E-01    0.00000E+00   736   0.677E-01 0.000E+00
 gam= 0.000 trial= 0.409  step= 0.350 mean= 0.409
 gam= 0.551 g(H,U,f)=  0.319E-01 0.500E-02 0.355E-03 ort(H,U,f) = 0.147E-02-0.908E-03-0.539E-03
CGA:   2    -0.647138984094E+03   -0.11828E-01   -0.11830E-01   736   0.373E-01 0.247E-04
 gam= 0.551 trial= 0.406  step= 0.320 mean= 0.406
 gam= 0.486 g(H,U,f)=  0.138E-01 0.419E-02 0.857E-04 ort(H,U,f) = 0.259E-03-0.183E-03-0.606E-04
CGA:   3    -0.647144947440E+03   -0.59633E-02   -0.59654E-02   736   0.181E-01 0.149E-04
 gam= 0.486 trial= 0.402  step= 0.388 mean= 0.402
 gam= 0.276 g(H,U,f)=  0.426E-02 0.707E-03 0.296E-04 ort(H,U,f) =-0.179E-02 0.175E-02 0.402E-04
CGA:   4    -0.647148462265E+03   -0.35148E-02   -0.35148E-02   736   0.500E-02 0.554E-05
 gam= 0.276 trial= 0.401  step= 0.321 mean= 0.401
 gam= 0.319 g(H,U,f)=  0.141E-02 0.185E-03 0.230E-05 ort(H,U,f) =-0.418E-03 0.420E-03-0.513E-05
CGA:   5    -0.647149263747E+03   -0.80148E-03   -0.80135E-03   736   0.160E-02-0.356E-05
 gam= 0.319 trial= 0.397  step= 0.427 mean= 0.397
 gam= 0.438 g(H,U,f)=  0.589E-03 0.103E-03 0.582E-05 ort(H,U,f) =-0.168E-03 0.165E-03-0.294E-05
CGA:   6    -0.647149603729E+03   -0.33998E-03   -0.34006E-03   736   0.698E-03-0.568E-05
 gam= 0.438 trial= 0.398  step= 0.402 mean= 0.398
 gam= 0.476 g(H,U,f)=  0.249E-03 0.788E-04 0.462E-05 ort(H,U,f) =-0.703E-04 0.686E-04-0.228E-05
CGA:   7    -0.647149743543E+03   -0.13981E-03   -0.13982E-03   736   0.332E-03-0.403E-05
 gam= 0.476 trial= 0.399  step= 0.405 mean= 0.399
 gam= 0.526 g(H,U,f)=  0.129E-03 0.438E-04 0.191E-05 ort(H,U,f) =-0.167E-04 0.163E-04-0.165E-05
CGA:   8    -0.647149810448E+03   -0.66906E-04   -0.66912E-04   736   0.175E-03-0.205E-05
 gam= 0.526 trial= 0.399  step= 0.348 mean= 0.399
 gam= 0.362 g(H,U,f)=  0.519E-04 0.109E-04 0.489E-06 ort(H,U,f) =-0.102E-05-0.247E-06 0.542E-07
CGA:   9    -0.647149840724E+03   -0.30276E-04   -0.30245E-04   736   0.633E-04-0.121E-05
 gam= 0.362 trial= 0.396  step= 0.432 mean= 0.396
 gam= 0.314 g(H,U,f)=  0.171E-04 0.243E-05 0.325E-06 ort(H,U,f) = 0.152E-06-0.700E-06 0.751E-07
CGA:  10    -0.647149854288E+03   -0.13563E-04   -0.13571E-04   736   0.199E-04-0.473E-06
 gam= 0.314 trial= 0.398  step= 0.474 mean= 0.398
 gam= 0.453 g(H,U,f)=  0.619E-05 0.264E-05 0.167E-06 ort(H,U,f) = 0.256E-06-0.548E-06-0.699E-07
CGA:  11    -0.647149858948E+03   -0.46605E-05   -0.46741E-05   736   0.900E-05-0.362E-06
 gam= 0.453 trial= 0.402  step= 0.382 mean= 0.402
 final diagonalization
   6 F= -.65355205E+03 E0= -.65353519E+03  d E =-.158237E-02  mag=     1.6732
 trial-energy change:   -0.001582  1 .order   -0.001587   -0.002259   -0.000914
 step:   2.7446(harm=  2.7446)  dis= 0.00277  next Energy=  -653.552366 (dE=-0.190E-02)
 bond charge predicted
       N       E                     dE             d eps       ncg     rms          ort
 gam= 0.000 g(H,U,f)=  0.252E-01 0.563E-02 0.558E-03 ort(H,U,f) = 0.000E+00 0.000E+00 0.000E+00
SDA:   1    -0.647139698395E+03    0.10156E-01    0.00000E+00   736   0.313E-01 0.000E+00
 gam= 0.000 trial= 0.401  step= 0.347 mean= 0.401
 gam= 0.554 g(H,U,f)=  0.147E-01 0.251E-02 0.168E-03 ort(H,U,f) = 0.821E-03-0.557E-03-0.254E-03
CGA:   2    -0.647145133590E+03   -0.54352E-02   -0.54357E-02   736   0.174E-01 0.986E-05
 gam= 0.554 trial= 0.398  step= 0.320 mean= 0.398
 gam= 0.480 g(H,U,f)=  0.634E-02 0.195E-02 0.390E-04 ort(H,U,f) = 0.180E-03-0.151E-03-0.283E-04
CGA:   3    -0.647147913308E+03   -0.27797E-02   -0.27801E-02   736   0.833E-02 0.333E-06
 gam= 0.480 trial= 0.394  step= 0.390 mean= 0.394
 gam= 0.277 g(H,U,f)=  0.197E-02 0.325E-03 0.131E-04 ort(H,U,f) =-0.816E-03 0.801E-03 0.178E-04
CGA:   4    -0.647149537930E+03   -0.16246E-02   -0.16246E-02   736   0.230E-02 0.289E-05
 gam= 0.277 trial= 0.394  step= 0.321 mean= 0.394
 gam= 0.317 g(H,U,f)=  0.644E-03 0.854E-04 0.921E-06 ort(H,U,f) =-0.193E-03 0.192E-03-0.209E-05
CGA:   5    -0.647149908396E+03   -0.37047E-03   -0.37037E-03   736   0.730E-03-0.281E-05
 gam= 0.317 trial= 0.391  step= 0.428 mean= 0.391
 gam= 0.450 g(H,U,f)=  0.276E-03 0.500E-04 0.271E-05 ort(H,U,f) =-0.759E-04 0.734E-04-0.151E-05
CGA:   6    -0.647150064391E+03   -0.15599E-03   -0.15607E-03   736   0.329E-03-0.405E-05
 gam= 0.450 trial= 0.392  step= 0.399 mean= 0.392
 gam= 0.478 g(H,U,f)=  0.117E-03 0.382E-04 0.212E-05 ort(H,U,f) =-0.317E-04 0.301E-04-0.113E-05
CGA:   7    -0.647150129565E+03   -0.65174E-04   -0.65183E-04   736   0.157E-03-0.276E-05
 gam= 0.478 trial= 0.393  step= 0.402 mean= 0.393
 gam= 0.524 g(H,U,f)=  0.613E-04 0.202E-04 0.801E-06 ort(H,U,f) =-0.768E-05 0.695E-05-0.754E-06
CGA:   8    -0.647150160860E+03   -0.31295E-04   -0.31301E-04   736   0.823E-04-0.148E-05
 gam= 0.524 trial= 0.393  step= 0.352 mean= 0.393
 gam= 0.357 g(H,U,f)=  0.244E-04 0.480E-05 0.187E-06 ort(H,U,f) =-0.631E-06-0.225E-06 0.162E-07
CGA:   9    -0.647150175217E+03   -0.14358E-04   -0.14340E-04   736   0.294E-04-0.840E-06
 gam= 0.357 trial= 0.391  step= 0.439 mean= 0.391
 gam= 0.319 g(H,U,f)=  0.810E-05 0.113E-05 0.137E-06 ort(H,U,f) = 0.140E-06-0.470E-06 0.193E-07
CGA:  10    -0.647150181603E+03   -0.63859E-05   -0.63934E-05   736   0.937E-05-0.311E-06
 gam= 0.319 trial= 0.394  step= 0.475 mean= 0.394
 final diagonalization
   7 F= -.65355236E+03 E0= -.65353558E+03  d E =-.188706E-02  mag=     1.6835
 curvature:  -2.40 expect dE=-0.219E-02 dE for cont linesearch -0.294E-06
 trial: gam= 0.68275 g(F)=  0.913E-03 g(S)=  0.000E+00 ort = 0.172E-04 (trialstep = 0.186E+01)
 search vector abs. value=  0.206E-02
 bond charge predicted
       N       E                     dE             d eps       ncg     rms          ort
 gam= 0.000 g(H,U,f)=  0.767E-01 0.154E-01 0.698E-03 ort(H,U,f) = 0.000E+00 0.000E+00 0.000E+00
SDA:   1    -0.647121392722E+03    0.28782E-01    0.00000E+00   736   0.927E-01 0.000E+00
 gam= 0.000 trial= 0.398  step= 0.297 mean= 0.398
 gam= 0.534 g(H,U,f)=  0.441E-01 0.529E-02 0.933E-04 ort(H,U,f) =-0.510E-02 0.521E-02-0.108E-03
CGA:   2    -0.647135148219E+03   -0.13755E-01   -0.13753E-01   736   0.495E-01-0.421E-05
 gam= 0.534 trial= 0.393  step= 0.354 mean= 0.393
 gam= 0.515 g(H,U,f)=  0.208E-01 0.469E-02 0.485E-04 ort(H,U,f) =-0.228E-02 0.238E-02-0.766E-04
CGA:   3    -0.647143919254E+03   -0.87710E-02   -0.87723E-02   736   0.255E-01 0.266E-04
 gam= 0.515 trial= 0.391  step= 0.381 mean= 0.391
 gam= 0.345 g(H,U,f)=  0.725E-02 0.153E-02 0.364E-04 ort(H,U,f) =-0.338E-02 0.335E-02 0.145E-04
CGA:   4    -0.647148779925E+03   -0.48607E-02   -0.48606E-02   736   0.881E-02-0.143E-04
 gam= 0.345 trial= 0.390  step= 0.328 mean= 0.390
 gam= 0.303 g(H,U,f)=  0.233E-02 0.337E-03 0.429E-05 ort(H,U,f) =-0.104E-02 0.104E-02-0.842E-05
CGA:   5    -0.647150223465E+03   -0.14435E-02   -0.14435E-02   736   0.267E-02-0.312E-05
 gam= 0.303 trial= 0.387  step= 0.422 mean= 0.387
 gam= 0.449 g(H,U,f)=  0.102E-02 0.165E-03 0.975E-05 ort(H,U,f) =-0.325E-03 0.321E-03 0.515E-07
CGA:   6    -0.647150787012E+03   -0.56355E-03   -0.56361E-03   736   0.120E-02-0.375E-05
 gam= 0.449 trial= 0.389  step= 0.420 mean= 0.389
 gam= 0.457 g(H,U,f)=  0.449E-03 0.962E-04 0.320E-05 ort(H,U,f) =-0.133E-03 0.131E-03-0.308E-05
CGA:   7    -0.647151038217E+03   -0.25121E-03   -0.25129E-03   736   0.548E-03-0.530E-05
 gam= 0.457 trial= 0.390  step= 0.412 mean= 0.390
 gam= 0.481 g(H,U,f)=  0.198E-03 0.644E-04 0.207E-05 ort(H,U,f) =-0.180E-04 0.152E-04-0.455E-06
CGA:   8    -0.647151150562E+03   -0.11235E-03   -0.11238E-03   736   0.264E-03-0.324E-05
 gam= 0.481 trial= 0.391  step= 0.331 mean= 0.391
 gam= 0.350 g(H,U,f)=  0.758E-04 0.161E-04 0.451E-06 ort(H,U,f) = 0.625E-05-0.776E-05-0.228E-06
CGA:   9    -0.647151194025E+03   -0.43462E-04   -0.43409E-04   736   0.924E-04-0.174E-05
 gam= 0.350 trial= 0.388  step= 0.397 mean= 0.388
 gam= 0.301 g(H,U,f)=  0.237E-04 0.368E-05 0.472E-06 ort(H,U,f) = 0.153E-05-0.216E-05 0.160E-06
CGA:  10    -0.647151212233E+03   -0.18208E-04   -0.18210E-04   736   0.278E-04-0.475E-06
 gam= 0.301 trial= 0.389  step= 0.458 mean= 0.389
 gam= 0.355 g(H,U,f)=  0.763E-05 0.216E-05 0.747E-07 ort(H,U,f) = 0.524E-06-0.658E-06-0.531E-07
CGA:  11    -0.647151218569E+03   -0.63360E-05   -0.63424E-05   736   0.987E-05-0.187E-06
 gam= 0.355 trial= 0.392  step= 0.424 mean= 0.392
 final diagonalization
   8 F= -.65355338E+03 E0= -.65353674E+03  d E =-.101924E-02  mag=     1.7022
 trial-energy change:   -0.001019  1 .order   -0.001056   -0.001717   -0.000394
 step:   2.4086(harm=  2.4086)  dis= 0.00230  next Energy=  -653.553470 (dE=-0.111E-02)
 reached required accuracy - stopping structural energy minimisation
