 vasp.5.4.4.18Apr17-6-g9f103f2a35 (build Jan 14 2022 15:04:31) complex          
  
 executed on             LinuxIFC date 2023.01.23  17:52:23
 running on   48 total cores
 distrk:  each k-point on   48 cores,    1 groups
 distr:  one band on NCORES_PER_BAND=  12 cores,    4 groups


--------------------------------------------------------------------------------------------------------


 INCAR:
 POTCAR:    PAW_PBE C 08Apr2002                   
 POTCAR:    PAW_PBE N 08Apr2002                   
 POTCAR:    PAW_PBE C 08Apr2002                   
 POTCAR:    PAW_PBE Cr_pv 02Aug2007               
 POTCAR:    PAW_PBE C 08Apr2002                   
   SHA256 =  253f7b50bb8d59471dbedb8285d89021f4a42ed1a2c5d38a03a736e69125dd95 C/
   COPYR  = (c) Copyright 08Apr2002 Georg Kresse                                
   COPYR  = This file is part of the software VASP. Any use, copying, and all ot
   COPYR  = If you do not have a valid VASP license, you may not use, copy or di
   VRHFIN =C: s2p2                                                              
   LEXCH  = PE                                                                  
   EATOM  =   147.1560 eV,   10.8157 Ry                                         
                                                                                
   TITEL  = PAW_PBE C 08Apr2002                                                 
   LULTRA =        F    use ultrasoft PP ?                                      
   IUNSCR =        1    unscreen: 0-lin 1-nonlin 2-no                           
   RPACOR =    1.200    partial core radius                                     
   POMASS =   12.011; ZVAL   =    4.000    mass and valenz                      
   RCORE  =    1.500    outmost cutoff radius                                   
   RWIGS  =    1.630; RWIGS  =    0.863    wigner-seitz radius (au A)           
   ENMAX  =  400.000; ENMIN  =  300.000 eV                                      
   ICORE  =        2    local potential                                         
   LCOR   =        T    correct aug charges                                     
   LPAW   =        T    paw PP                                                  
   EAUG   =  644.873                                                            
   DEXC   =    0.000                                                            
   RMAX   =    1.529    core radius for proj-oper                               
   RAUG   =    1.300    factor for augmentation sphere                          
   RDEP   =    1.501    radius for radial grids                                 
   RDEPT  =    1.300    core radius for aug-charge                              
                                                                                
   Atomic configuration                                                         
    4 entries                                                                   
     n  l   j            E        occ.                                          
     1  0  0.50      -273.3789   2.0000                                         
     2  0  0.50       -13.7508   2.0000                                         
     2  1  0.50        -5.2854   2.0000                                         
     3  2  1.50        -5.4423   0.0000                                         
   Description                                                                  
     l       E           TYP  RCUT    TYP  RCUT                                 
     0    -13.7508458     23  1.200                                             
     0     -8.2022199     23  1.200                                             
     1     -5.2854383     23  1.500                                             
     1     34.0145650     23  1.500                                             
     2     -5.4423304      7  1.500                                             
  local pseudopotential read in
  partial core-charges read in
  partial kinetic energy density read in
  atomic valenz-charges read in
  non local Contribution for L=           0  read in
    real space projection operators read in
  non local Contribution for L=           0  read in
    real space projection operators read in
  non local Contribution for L=           1  read in
    real space projection operators read in
  non local Contribution for L=           1  read in
    real space projection operators read in
    PAW grid and wavefunctions read in
 
   number of l-projection  operators is LMAX  =           4
   number of lm-projection operators is LMMAX =           8
 
 POTCAR:    PAW_PBE N 08Apr2002                   
   SHA256 =  e053789ff3a61a86a1b75d8a110fcc91f86041011e7b0817c7c99e4e8a6349d7 N/
   COPYR  = (c) Copyright 08Apr2002 Georg Kresse                                
   COPYR  = This file is part of the software VASP. Any use, copying, and all ot
   COPYR  = If you do not have a valid VASP license, you may not use, copy or di
   VRHFIN =N: s2p3                                                              
   LEXCH  = PE                                                                  
   EATOM  =   264.5486 eV,   19.4438 Ry                                         
                                                                                
   TITEL  = PAW_PBE N 08Apr2002                                                 
   LULTRA =        F    use ultrasoft PP ?                                      
   IUNSCR =        1    unscreen: 0-lin 1-nonlin 2-no                           
   RPACOR =    1.200    partial core radius                                     
   POMASS =   14.001; ZVAL   =    5.000    mass and valenz                      
   RCORE  =    1.500    outmost cutoff radius                                   
   RWIGS  =    1.400; RWIGS  =    0.741    wigner-seitz radius (au A)           
   ENMAX  =  400.000; ENMIN  =  300.000 eV                                      
   ICORE  =        2    local potential                                         
   LCOR   =        T    correct aug charges                                     
   LPAW   =        T    paw PP                                                  
   EAUG   =  627.112                                                            
   DEXC   =    0.000                                                            
   RMAX   =    1.529    core radius for proj-oper                               
   RAUG   =    1.300    factor for augmentation sphere                          
   RDEP   =    1.514    radius for radial grids                                 
   RDEPT  =    1.338    core radius for aug-charge                              
                                                                                
   Atomic configuration                                                         
    4 entries                                                                   
     n  l   j            E        occ.                                          
     1  0  0.50      -384.7179   2.0000                                         
     2  0  0.50       -18.5828   2.0000                                         
     2  1  0.50        -7.0898   3.0000                                         
     3  2  1.50        -6.8029   0.0000                                         
   Description                                                                  
     l       E           TYP  RCUT    TYP  RCUT                                 
     0    -18.5828119     23  1.200                                             
     0    -13.5018863     23  1.200                                             
     1     -7.0897853     23  1.500                                             
     1      9.5240782     23  1.500                                             
     2     -6.8029130      7  1.500                                             
  local pseudopotential read in
  partial core-charges read in
  partial kinetic energy density read in
  atomic valenz-charges read in
  non local Contribution for L=           0  read in
    real space projection operators read in
  non local Contribution for L=           0  read in
    real space projection operators read in
  non local Contribution for L=           1  read in
    real space projection operators read in
  non local Contribution for L=           1  read in
    real space projection operators read in
    PAW grid and wavefunctions read in
 
   number of l-projection  operators is LMAX  =           4
   number of lm-projection operators is LMMAX =           8
 
 POTCAR:    PAW_PBE C 08Apr2002                   
   SHA256 =  253f7b50bb8d59471dbedb8285d89021f4a42ed1a2c5d38a03a736e69125dd95 C/
   COPYR  = (c) Copyright 08Apr2002 Georg Kresse                                
   COPYR  = This file is part of the software VASP. Any use, copying, and all ot
   COPYR  = If you do not have a valid VASP license, you may not use, copy or di
   VRHFIN =C: s2p2                                                              
   LEXCH  = PE                                                                  
   EATOM  =   147.1560 eV,   10.8157 Ry                                         
                                                                                
   TITEL  = PAW_PBE C 08Apr2002                                                 
   LULTRA =        F    use ultrasoft PP ?                                      
   IUNSCR =        1    unscreen: 0-lin 1-nonlin 2-no                           
   RPACOR =    1.200    partial core radius                                     
   POMASS =   12.011; ZVAL   =    4.000    mass and valenz                      
   RCORE  =    1.500    outmost cutoff radius                                   
   RWIGS  =    1.630; RWIGS  =    0.863    wigner-seitz radius (au A)           
   ENMAX  =  400.000; ENMIN  =  300.000 eV                                      
   ICORE  =        2    local potential                                         
   LCOR   =        T    correct aug charges                                     
   LPAW   =        T    paw PP                                                  
   EAUG   =  644.873                                                            
   DEXC   =    0.000                                                            
   RMAX   =    1.529    core radius for proj-oper                               
   RAUG   =    1.300    factor for augmentation sphere                          
   RDEP   =    1.501    radius for radial grids                                 
   RDEPT  =    1.300    core radius for aug-charge                              
                                                                                
   Atomic configuration                                                         
    4 entries                                                                   
     n  l   j            E        occ.                                          
     1  0  0.50      -273.3789   2.0000                                         
     2  0  0.50       -13.7508   2.0000                                         
     2  1  0.50        -5.2854   2.0000                                         
     3  2  1.50        -5.4423   0.0000                                         
   Description                                                                  
     l       E           TYP  RCUT    TYP  RCUT                                 
     0    -13.7508458     23  1.200                                             
     0     -8.2022199     23  1.200                                             
     1     -5.2854383     23  1.500                                             
     1     34.0145650     23  1.500                                             
     2     -5.4423304      7  1.500                                             
  local pseudopotential read in
  partial core-charges read in
  partial kinetic energy density read in
  atomic valenz-charges read in
  non local Contribution for L=           0  read in
    real space projection operators read in
  non local Contribution for L=           0  read in
    real space projection operators read in
  non local Contribution for L=           1  read in
    real space projection operators read in
  non local Contribution for L=           1  read in
    real space projection operators read in
    PAW grid and wavefunctions read in
 
   number of l-projection  operators is LMAX  =           4
   number of lm-projection operators is LMMAX =           8
 
 POTCAR:    PAW_PBE Cr_pv 02Aug2007               
   SHA256 =  c9a7df34d3cdbacf1090e328ef39c0b420964e11c23f63548d1ac9dd218cdba0 Cr
   COPYR  = (c) Copyright 02Aug2007 Georg Kresse                                
   COPYR  = This file is part of the software VASP. Any use, copying, and all ot
   COPYR  = If you do not have a valid VASP license, you may not use, copy or di
   VRHFIN =Cr : p6d5s1                                                          
   LEXCH  = PE                                                                  
   EATOM  =  1647.9177 eV,  121.1185 Ry                                         
                                                                                
   TITEL  = PAW_PBE Cr_pv 02Aug2007                                             
   LULTRA =        F    use ultrasoft PP ?                                      
   IUNSCR =        1    unscreen: 0-lin 1-nonlin 2-no                           
   RPACOR =    2.080    partial core radius                                     
   POMASS =   51.996; ZVAL   =   12.000    mass and valenz                      
   RCORE  =    2.300    outmost cutoff radius                                   
   RWIGS  =    2.500; RWIGS  =    1.323    wigner-seitz radius (au A)           
   ENMAX  =  265.681; ENMIN  =  199.261 eV                                      
   ICORE  =        3    local potential                                         
   LCOR   =        T    correct aug charges                                     
   LPAW   =        T    paw PP                                                  
   EAUG   =  519.424                                                            
   DEXC   =    0.000                                                            
   RMAX   =    2.356    core radius for proj-oper                               
   RAUG   =    1.300    factor for augmentation sphere                          
   RDEP   =    2.447    radius for radial grids                                 
   RDEPT  =    1.882    core radius for aug-charge                              
                                                                                
   Atomic configuration                                                         
    8 entries                                                                   
     n  l   j            E        occ.                                          
     1  0  0.50     -5880.4963   2.0000                                         
     2  0  0.50      -667.0865   2.0000                                         
     2  1  1.50      -560.6250   6.0000                                         
     3  0  0.50       -73.9860   2.0000                                         
     3  1  1.50       -45.4378   6.0000                                         
     3  2  2.50        -2.9137   5.0000                                         
     4  0  0.50        -4.0071   1.0000                                         
     4  3  2.50        -1.3606   0.0000                                         
   Description                                                                  
     l       E           TYP  RCUT    TYP  RCUT                                 
     1    -45.4377911     23  2.000                                             
     1      1.3605826     23  2.000                                             
     2     -2.9136672     23  2.300                                             
     2     -4.2742498     23  2.300                                             
     0     -4.0071320     23  2.300                                             
     0      9.4498803     23  2.300                                             
     3      2.7211652     23  2.300                                             
  local pseudopotential read in
  partial core-charges read in
  partial kinetic energy density read in
  atomic valenz-charges read in
  non local Contribution for L=           1  read in
    real space projection operators read in
  non local Contribution for L=           1  read in
    real space projection operators read in
  non local Contribution for L=           2  read in
    real space projection operators read in
  non local Contribution for L=           2  read in
    real space projection operators read in
  non local Contribution for L=           0  read in
    real space projection operators read in
  non local Contribution for L=           0  read in
    real space projection operators read in
    PAW grid and wavefunctions read in
 
   number of l-projection  operators is LMAX  =           6
   number of lm-projection operators is LMMAX =          18
 
 Optimization of the real space projectors (new method)

 maximal supplied QI-value         = 25.13
 optimisation between [QCUT,QGAM] = [ 10.56, 21.36] = [ 31.20,127.80] Ry 
 Optimized for a Real-space Cutoff    1.32 Angstroem

   l    n(q)    QCUT    max X(q) W(low)/X(q) W(high)/X(q)  e(spline) 
   0      8    10.556   115.676    0.17E-03    0.39E-03    0.26E-06
   0      8    10.556    87.132    0.17E-03    0.39E-03    0.26E-06
   1      8    10.556     4.429    0.24E-03    0.31E-03    0.16E-06
   1      8    10.556     2.733    0.17E-03    0.22E-03    0.19E-06
 Optimization of the real space projectors (new method)

 maximal supplied QI-value         = 25.13
 optimisation between [QCUT,QGAM] = [ 10.56, 21.36] = [ 31.20,127.80] Ry 
 Optimized for a Real-space Cutoff    1.40 Angstroem

   l    n(q)    QCUT    max X(q) W(low)/X(q) W(high)/X(q)  e(spline) 
   0      9    10.556    79.467    0.20E-03    0.22E-03    0.30E-06
   0      9    10.556    66.151    0.20E-03    0.22E-03    0.30E-06
   1      8    10.556    12.181    0.10E-03    0.78E-03    0.19E-05
   1      8    10.556     8.434    0.11E-03    0.81E-03    0.19E-05
 Optimization of the real space projectors (new method)

 maximal supplied QI-value         = 25.13
 optimisation between [QCUT,QGAM] = [ 10.56, 21.36] = [ 31.20,127.80] Ry 
 Optimized for a Real-space Cutoff    1.32 Angstroem

   l    n(q)    QCUT    max X(q) W(low)/X(q) W(high)/X(q)  e(spline) 
   0      8    10.556   115.676    0.17E-03    0.39E-03    0.26E-06
   0      8    10.556    87.132    0.17E-03    0.39E-03    0.26E-06
   1      8    10.556     4.429    0.24E-03    0.31E-03    0.16E-06
   1      8    10.556     2.733    0.17E-03    0.22E-03    0.19E-06
 Optimization of the real space projectors (new method)

 maximal supplied QI-value         = 16.25
 optimisation between [QCUT,QGAM] = [ 10.73, 21.45] = [ 32.22,128.87] Ry 
 Optimized for a Real-space Cutoff    1.53 Angstroem

   l    n(q)    QCUT    max X(q) W(low)/X(q) W(high)/X(q)  e(spline) 
   1      9    10.726     3.262    0.64E-04    0.35E-04    0.11E-06
   1      9    10.726     5.741    0.13E-03    0.48E-04    0.19E-06
   2      9    10.726    60.438    0.12E-03    0.29E-04    0.13E-06
   2      9    10.726    55.380    0.12E-03    0.29E-04    0.13E-06
   0     10    10.726    80.273    0.43E-04    0.74E-05    0.81E-07
   0     10    10.726    36.654    0.34E-04    0.61E-05    0.73E-07
  PAW_PBE C 08Apr2002                   :
 energy of atom  1       EATOM= -147.1560
 kinetic energy error for atom=    0.0132 (will be added to EATOM!!)
  PAW_PBE N 08Apr2002                   :
 energy of atom  2       EATOM= -264.5486
 kinetic energy error for atom=    0.0298 (will be added to EATOM!!)
  PAW_PBE C 08Apr2002                   :
 energy of atom  3       EATOM= -147.1560
 kinetic energy error for atom=    0.0132 (will be added to EATOM!!)
  PAW_PBE Cr_pv 02Aug2007               :
 energy of atom  4       EATOM=-1647.9177
 kinetic energy error for atom=    0.0134 (will be added to EATOM!!)
 
 
 POSCAR: POSCAR-clean                            
  positions in direct lattice
  velocities in cartesian coordinates
 exchange correlation table for  LEXCH =        8
   RHO(1)=    0.500       N(1)  =     2000
   RHO(2)=  100.500       N(2)  =     4000

 VTST: version 3.2, (02/03/18)

 CHAIN: initializing optimizer
 
 OPT: Using VASP Conjugate-Gradient optimizer
 CHAIN: Read ICHAIN            0
 
 POSCAR: POSCAR-clean                            
  positions in direct lattice
  velocities in cartesian coordinates
 


--------------------------------------------------------------------------------------------------------


 ion  position               nearest neighbor table
   1  0.000  0.000  0.498-  60 1.42   2 1.42  70 1.43
   2  0.056  0.112  0.498-  13 1.42   1 1.42  15 1.44
   3  0.168  0.002  0.498-   4 1.42  62 1.42  60 1.43
   4  0.223  0.113  0.498-   3 1.42  15 1.42  17 1.43
   5  0.334  0.002  0.498-  62 1.42   6 1.42  64 1.43
   6  0.390  0.114  0.498-  19 1.42   5 1.42  17 1.44
   7  0.500  1.000  0.498-  64 1.42   8 1.42  66 1.43
   8  0.556  0.112  0.498-  21 1.42   7 1.42  19 1.44
   9  0.666  0.998  0.498-  10 1.42  66 1.42  68 1.43
  10  0.721  0.109  0.497-   9 1.42  23 1.43  21 1.43
  11  0.832  0.998  0.498-  12 1.42  70 1.42  68 1.43
  12  0.888  0.109  0.498-  11 1.42  23 1.43  13 1.43
  13  0.999  0.166  0.498-  14 1.42   2 1.42  12 1.43
  14  0.055  0.277  0.498-  13 1.42  25 1.43  27 1.43
  15  0.168  0.168  0.498-  16 1.42   4 1.42   2 1.44
  16  0.223  0.279  0.500-  15 1.42  27 1.42  29 1.43
  17  0.335  0.171  0.500-  18 1.42   4 1.43   6 1.44
  18  0.390  0.282  0.502-  29 1.42  17 1.42  31 1.43
  19  0.501  0.169  0.499-  20 1.42   6 1.42   8 1.44
  20  0.556  0.280  0.500-  19 1.42  33 1.43  31 1.46
  21  0.666  0.166  0.498-  22 1.42   8 1.42  10 1.43
  22  0.722  0.277  0.498-  21 1.42  35 1.43  33 1.43
  23  0.832  0.165  0.498-  24 1.42  12 1.43  10 1.43
  24  0.888  0.277  0.498-  23 1.42  35 1.42  25 1.43
  25  0.999  0.332  0.498-  26 1.42  24 1.43  14 1.43
  26  0.055  0.444  0.499-  39 1.42  37 1.42  25 1.42
  27  0.166  0.333  0.500-  28 1.42  16 1.42  14 1.43
  28  0.219  0.444  0.501-  41 1.41  27 1.42  39 1.42
  29  0.334  0.337  0.504-  30 1.40  18 1.42  16 1.43
  30  0.387  0.446  0.512-  29 1.40  41 1.41  71 2.00
  31  0.501  0.339  0.503-  32 1.42  18 1.43  20 1.46
  32  0.561  0.450  0.508-  43 1.41  31 1.42  71 1.98
  33  0.667  0.333  0.500-  34 1.42  20 1.43  22 1.43
  34  0.725  0.444  0.501-  43 1.41  33 1.42  45 1.42
  35  0.833  0.332  0.498-  36 1.42  24 1.42  22 1.43
  36  0.890  0.444  0.498-  45 1.42  37 1.42  35 1.42
  37  0.000  0.500  0.498-  26 1.42  36 1.42  38 1.42
  38  0.056  0.611  0.498-  47 1.42  49 1.42  37 1.42
  39  0.165  0.500  0.500-  28 1.42  26 1.42  40 1.42
  40  0.221  0.611  0.501-  49 1.42  51 1.42  39 1.42
  41  0.329  0.498  0.505-  28 1.41  30 1.41  42 1.44
  42  0.386  0.610  0.505-  53 1.41  51 1.42  41 1.44
  43  0.671  0.500  0.505-  34 1.41  32 1.41  44 1.43
  44  0.727  0.612  0.505-  55 1.41  57 1.41  43 1.43
  45  0.835  0.500  0.500-  36 1.42  46 1.42  34 1.42
  46  0.891  0.611  0.500-  47 1.42  45 1.42  57 1.42
  47  0.002  0.667  0.498-  46 1.42  38 1.42  48 1.42
  48  0.057  0.779  0.498-  47 1.42  61 1.42  59 1.43
  49  0.167  0.667  0.499-  40 1.42  38 1.42  50 1.42
  50  0.223  0.779  0.498-  49 1.42  63 1.42  61 1.42
  51  0.332  0.666  0.502-  42 1.42  52 1.42  40 1.42
  52  0.388  0.778  0.500-  51 1.42  65 1.42  63 1.43
  53  0.496  0.662  0.508-  42 1.41  54 1.42  71 1.98
  54  0.553  0.773  0.503-  53 1.42  67 1.44  65 1.44
  55  0.668  0.663  0.510-  44 1.41  56 1.42  71 2.00
  56  0.721  0.773  0.504-  55 1.42  67 1.43  69 1.44
  57  0.837  0.667  0.502-  44 1.41  58 1.42  46 1.42
  58  0.891  0.778  0.500-  57 1.42  69 1.42  59 1.43
  59  0.001  0.835  0.498-  60 1.42  48 1.43  58 1.43
  60  0.057  0.946  0.497-  59 1.42   1 1.42   3 1.43
  61  0.168  0.835  0.498-  62 1.42  48 1.42  50 1.42
  62  0.223  0.946  0.498-  61 1.42   5 1.42   3 1.42
  63  0.333  0.834  0.499-  64 1.42  50 1.42  52 1.43
  64  0.389  0.946  0.498-  63 1.42   7 1.42   5 1.43
  65  0.499  0.831  0.500-  52 1.42  66 1.43  54 1.44
  66  0.555  0.943  0.498-   9 1.42  65 1.43   7 1.43
  67  0.665  0.830  0.502-  68 1.42  56 1.43  54 1.44
  68  0.721  0.941  0.499-  67 1.42   9 1.43  11 1.43
  69  0.833  0.832  0.500-  58 1.42  70 1.42  56 1.44
  70  0.889  0.943  0.498-  69 1.42  11 1.42   1 1.43
  71  0.527  0.555  0.555-  32 1.98  53 1.98  55 2.00  30 2.00
 

IMPORTANT INFORMATION: All symmetrisations will be switched off!
NOSYMM: (Re-)initialisation of all symmetry stuff for point group C_1.

 
 
 KPOINTS: K-Points                                

Automatic generation of k-mesh.
Space group operators:
 irot       det(A)        alpha          n_x          n_y          n_z        tau_x        tau_y        tau_z
    1     1.000000     0.000000     1.000000     0.000000     0.000000     0.000000     0.000000     0.000000
 
 Subroutine IBZKPT returns following result:
 ===========================================
 
 Found      4 irreducible k-points:
 
 Following reciprocal coordinates:
            Coordinates               Weight
  0.000000  0.000000  0.000000      1.000000
  0.500000 -0.000000  0.000000      1.000000
 -0.000000  0.500000  0.000000      1.000000
  0.500000  0.500000  0.000000      1.000000
 
 Following cartesian coordinates:
            Coordinates               Weight
  0.000000  0.000000  0.000000      1.000000
  0.033632  0.019603  0.000000      1.000000
 -0.000062  0.039205  0.000000      1.000000
  0.033570  0.058808  0.000000      1.000000
 


--------------------------------------------------------------------------------------------------------




 Dimension of arrays:
   k-points           NKPTS =      4   k-points in BZ     NKDIM =      4   number of bands    NBANDS=    184
   number of dos      NEDOS =    301   number of ions     NIONS =     71
   non local maximal  LDIM  =      6   non local SUM 2l+1 LMDIM =     18
   total plane-waves  NPLWV = ******
   max r-space proj   IRMAX =   6648   max aug-charges    IRDMAX=  15624
   dimension x,y,z NGX =   108 NGY =  108 NGZ =  108
   dimension x,y,z NGXF=   216 NGYF=  216 NGZF=  216
   support grid    NGXF=   216 NGYF=  216 NGZF=  216
   ions per type =              28   1  41   1
   NGX,Y,Z   is equivalent  to a cutoff of  12.09, 12.17, 11.97 a.u.
   NGXF,Y,Z  is equivalent  to a cutoff of  24.18, 24.35, 23.94 a.u.

 SYSTEM =  unknown system                          
 POSCAR =  POSCAR-clean                            

 Startparameter for this run:
   NWRITE =      2    write-flag & timer
   PREC   = accura    normal or accurate (medium, high low for compatibility)
   ISTART =      0    job   : 0-new  1-cont  2-samecut
   ICHARG =      2    charge: 1-file 2-atom 10-const
   ISPIN  =      2    spin polarized calculation?
   LNONCOLLINEAR =      F non collinear calculations
   LSORBIT =      F    spin-orbit coupling
   INIWAV =      1    electr: 0-lowe 1-rand  2-diag
   LASPH  =      F    aspherical Exc in radial PAW
   METAGGA=      F    non-selfconsistent MetaGGA calc.

 Electronic Relaxation 1
   ENCUT  =  440.0 eV  32.34 Ry    5.69 a.u.  25.40 25.22 25.66*2*pi/ulx,y,z
   ENINI  =  440.0     initial cutoff
   ENAUG  =  644.9 eV  augmentation charge cutoff
   NELM   =     50;   NELMIN=  2; NELMDL= -5     # of ELM steps 
   EDIFF  = 0.1E-04   stopping-criterion for ELM
   LREAL  =      T    real-space projection
   NLSPLINE    = F    spline interpolate recip. space projectors
   LCOMPAT=      F    compatible to vasp.4.4
   GGA_COMPAT  = T    GGA compatible to vasp.4.4-vasp.4.6
   LMAXPAW     = -100 max onsite density
   LMAXMIX     =    2 max onsite mixed and CHGCAR
   VOSKOWN=      0    Vosko Wilk Nusair interpolation
   ROPT   =   -0.00025  -0.00025  -0.00025  -0.00025
 Ionic relaxation
   EDIFFG = -.5E-01   stopping-criterion for IOM
   NSW    =    400    number of steps for IOM
   NBLOCK =      1;   KBLOCK =    400    inner block; outer block 
   IBRION =      2    ionic relax: 0-MD 1-quasi-New 2-CG
   NFREE  =      1    steps in history (QN), initial steepest desc. (CG)
   ISIF   =      2    stress and relaxation
   IWAVPR =     11    prediction:  0-non 1-charg 2-wave 3-comb
   ISYM   =      0    0-nonsym 1-usesym 2-fastsym
   LCORR  =      T    Harris-Foulkes like correction to forces

   POTIM  = 0.3000    time-step for ionic-motion
   TEIN   =    0.0    initial temperature
   TEBEG  =    0.0;   TEEND  =   0.0 temperature during run
   SMASS  =  -3.00    Nose mass-parameter (am)
   estimated Nose-frequenzy (Omega)   =  0.10E-29 period in steps =****** mass=  -0.504E-26a.u.
   SCALEE = 1.0000    scale energy and forces
   NPACO  =    256;   APACO  = 16.0  distance and # of slots for P.C.
   PSTRESS=    0.0 pullay stress

  Mass of Ions in am
   POMASS =  12.01 14.00 12.01 52.00
  Ionic Valenz
   ZVAL   =   4.00  5.00  4.00 12.00
  Atomic Wigner-Seitz radii
   RWIGS  =  -1.00 -1.00 -1.00 -1.00
  virtual crystal weights 
   VCA    =   1.00  1.00  1.00  1.00
   NELECT =     293.0000    total number of electrons
   NUPDOWN=      -1.0000    fix difference up-down

 DOS related values:
   EMIN   =  10.00;   EMAX   =-10.00  energy-range for DOS
   EFERMI =   0.00
   ISMEAR =     0;   SIGMA  =   0.10  broadening in eV -4-tet -1-fermi 0-gaus

 Electronic relaxation 2 (details)
   IALGO  =     68    algorithm
   LDIAG  =      T    sub-space diagonalisation (order eigenvalues)
   LSUBROT=      F    optimize rotation matrix (better conditioning)
   TURBO    =      0    0=normal 1=particle mesh
   IRESTART =      0    0=no restart 2=restart with 2 vectors
   NREBOOT  =      0    no. of reboots
   NMIN     =      0    reboot dimension
   EREF     =   0.00    reference energy to select bands
   IMIX   =      4    mixing-type and parameters
     AMIX     =   0.40;   BMIX     =  1.00
     AMIX_MAG =   1.60;   BMIX_MAG =  1.00
     AMIN     =   0.10
     WC   =   100.;   INIMIX=   1;  MIXPRE=   1;  MAXMIX= -45

 Intra band minimization:
   WEIMIN = 0.0010     energy-eigenvalue tresh-hold
   EBREAK =  0.14E-07  absolut break condition
   DEPER  =   0.30     relativ break condition  

   TIME   =   0.40     timestep for ELM

  volume/ion in A,a.u.               =      40.02       270.07
  Fermi-wavevector in a.u.,A,eV,Ry     =   0.767690  1.450724  8.018570  0.589348
  Thomas-Fermi vector in A             =   1.868301
 
 Write flags
   LWAVE        =      F    write WAVECAR
   LDOWNSAMPLE  =      F    k-point downsampling of WAVECAR
   LCHARG       =      F    write CHGCAR
   LVTOT        =      F    write LOCPOT, total local potential
   LVHAR        =      F    write LOCPOT, Hartree potential only
   LELF         =      F    write electronic localiz. function (ELF)
   LORBIT       =      0    0 simple, 1 ext, 2 COOP (PROOUT), +10 PAW based schemes


 Dipole corrections
   LMONO  =      F    monopole corrections only (constant potential shift)
   LDIPOL =      F    correct potential (dipole corrections)
   IDIPOL =      0    1-x, 2-y, 3-z, 4-all directions 
   EPSILON=  1.0000000 bulk dielectric constant

 Exchange correlation treatment:
   GGA     =    --    GGA type
   LEXCH   =     8    internal setting for exchange type
   VOSKOWN=      0    Vosko Wilk Nusair interpolation
   LHFCALC =     F    Hartree Fock is set to
   LHFONE  =     F    Hartree Fock one center treatment
   AEXX    =    0.0000 exact exchange contribution

 Linear response parameters
   LEPSILON=     F    determine dielectric tensor
   LRPA    =     F    only Hartree local field effects (RPA)
   LNABLA  =     F    use nabla operator in PAW spheres
   LVEL    =     F    velocity operator in full k-point grid
   LINTERFAST=   F  fast interpolation
   KINTER  =     0    interpolate to denser k-point grid
   CSHIFT  =0.1000    complex shift for real part using Kramers Kronig
   OMEGAMAX=  -1.0    maximum frequency
   DEG_THRESHOLD= 0.2000000E-02 threshold for treating states as degnerate
   RTIME   =   -0.100 relaxation time in fs
  (WPLASMAI=    0.000 imaginary part of plasma frequency in eV, 0.658/RTIME)
   DFIELD  = 0.0000000 0.0000000 0.0000000 field for delta impulse in time
 
 Orbital magnetization related:
   ORBITALMAG=     F  switch on orbital magnetization
   LCHIMAG   =     F  perturbation theory with respect to B field
   DQ        =  0.001000  dq finite difference perturbation B field
   LLRAUG    =     F  two centre corrections for induced B field



--------------------------------------------------------------------------------------------------------


 conjugate gradient relaxation of ions
 charge density and potential will be updated during run
 spin polarized calculation
 RMM-DIIS sequential band-by-band and
  variant of blocked Davidson during initial phase
 perform sub-space diagonalisation
    before iterative eigenvector-optimisation
 modified Broyden-mixing scheme, WC =      100.0
 initial mixing is a Kerker type mixing with AMIX =  0.4000 and BMIX =      1.0000
 Hartree-type preconditioning will be used
 using additional bands           37
 real space projection scheme for non local part
 use partial core corrections
 calculate Harris-corrections to forces 
   (improved forces if not selfconsistent)
 use gradient corrections 
 use of overlap-Matrix (Vanderbilt PP)
 Gauss-broadening in eV      SIGMA  =   0.10


--------------------------------------------------------------------------------------------------------


  energy-cutoff  :      440.00
  volume of cell :     2841.41
      direct lattice vectors                 reciprocal lattice vectors
    14.853071780  0.023521220  0.000000000     0.067264056  0.039205183  0.000000000
    -7.426535890 12.741655181  0.000000000    -0.000124170  0.078410366  0.000000000
     0.000000000  0.000000000 15.000000000     0.000000000  0.000000000  0.066666667

  length of vectors
    14.853090404 14.747990103 15.000000000     0.077855633  0.078410464  0.066666667


 
 k-points in units of 2pi/SCALE and weight: K-Points                                
   0.00000000  0.00000000  0.00000000       0.250
   0.03363203  0.01960259  0.00000000       0.250
  -0.00006209  0.03920518  0.00000000       0.250
   0.03356994  0.05880777  0.00000000       0.250
 
 k-points in reciprocal lattice and weights: K-Points                                
   0.00000000  0.00000000  0.00000000       0.250
   0.50000000 -0.00000000  0.00000000       0.250
  -0.00000000  0.50000000  0.00000000       0.250
   0.50000000  0.50000000  0.00000000       0.250
 
 position of ions in fractional coordinates (direct lattice) 
   0.00029389  0.00008781  0.49761514
   0.05605190  0.11174855  0.49764355
   0.16800484  0.00193135  0.49757683
   0.22343571  0.11304384  0.49835174
   0.33422308  0.00224805  0.49769610
   0.38984530  0.11397609  0.49846697
   0.49998839  0.99998584  0.49775963
   0.55561273  0.11168828  0.49769318
   0.66581219  0.99801298  0.49826591
   0.72146431  0.10939151  0.49749292
   0.83240961  0.99806663  0.49836583
   0.88786771  0.10931363  0.49769746
   0.99933592  0.16562833  0.49778642
   0.05488858  0.27662634  0.49846365
   0.16796863  0.16837274  0.49824134
   0.22324776  0.27933172  0.49983874
   0.33457217  0.17065455  0.49952106
   0.38980619  0.28215999  0.50243629
   0.50067532  0.16876077  0.49855896
   0.55587097  0.28026004  0.50009407
   0.66636541  0.16581178  0.49751766
   0.72204480  0.27699172  0.49809752
   0.83249856  0.16505386  0.49755983
   0.88828588  0.27650364  0.49768961
   0.99934598  0.33231088  0.49825485
   0.05461385  0.44367733  0.49862126
   0.16611398  0.33283018  0.49981700
   0.21948957  0.44376928  0.50132692
   0.33412577  0.33682834  0.50376170
   0.38684738  0.44584183  0.51157930
   0.50146510  0.33942496  0.50314127
   0.56078799  0.45030689  0.50841367
   0.66693761  0.33320312  0.49973858
   0.72460133  0.44430798  0.50119740
   0.83319007  0.33240580  0.49789615
   0.88951081  0.44382076  0.49832986
   0.00009133  0.49973395  0.49819597
   0.05605815  0.61124499  0.49805763
   0.16494683  0.49959763  0.50012443
   0.22093865  0.61104585  0.50054889
   0.32889067  0.49758382  0.50535606
   0.38600902  0.61043043  0.50529606
   0.67059451  0.49998713  0.50454204
   0.72689145  0.61206244  0.50535793
   0.83532184  0.49997810  0.49979358
   0.89120766  0.61127867  0.49985411
   0.00153581  0.66729669  0.49816548
   0.05687395  0.77882573  0.49785606
   0.16666285  0.66716600  0.49864833
   0.22270559  0.77870418  0.49820695
   0.33152736  0.66642174  0.50235641
   0.38837047  0.77774092  0.50031233
   0.49568216  0.66197418  0.50813489
   0.55349947  0.77299892  0.50289129
   0.66796256  0.66276146  0.51026529
   0.72058056  0.77344691  0.50357355
   0.83663465  0.66739816  0.50176517
   0.89053917  0.77845192  0.49987887
   0.00147532  0.83452412  0.49807172
   0.05668834  0.94562912  0.49749851
   0.16769009  0.83470587  0.49765028
   0.22338139  0.94621636  0.49760047
   0.33349347  0.83418626  0.49850326
   0.38919655  0.94559267  0.49775317
   0.49919650  0.83127310  0.50005164
   0.55489206  0.94305829  0.49843453
   0.66530408  0.82996133  0.50243073
   0.72076125  0.94129367  0.49945188
   0.83298479  0.83166869  0.49993815
   0.88863789  0.94326984  0.49831595
   0.52739442  0.55533338  0.55526999
 
 position of ions in cartesian coordinates  (Angst):
   0.00371308  0.00112571  7.46422712
   0.00263827  1.42517986  7.46465329
   2.48104467  0.02856026  7.46365248
   2.47918259  1.44562106  7.47527609
   4.94754414  0.03650527  7.46544149
   4.94395268  1.46141366  7.47700450
  -0.00006722 12.75323509  7.46639446
   7.42309877  1.43616230  7.46539773
   2.47757700 12.73199801  7.47398867
   9.90356127  1.41079859  7.46239385
   4.95166207 12.73660019  7.47548749
  12.37574126  1.41372025  7.46546191
  13.61316347  2.13388467  7.46679627
  -1.23911138  3.52596848  7.47695477
   1.24442399  2.14929818  7.47362011
   1.24144789  3.56439956  7.49758108
   3.70205239  2.18229097  7.49281591
   3.69434805  3.60435400  7.53654442
   6.18325854  2.16206809  7.47838437
   6.17503020  3.58405150  7.50141100
   8.66616617  2.12839029  7.46276484
   8.66749435  3.54631631  7.47146283
  11.13938244  2.12264072  7.46339740
  11.14030972  3.54400761  7.46534415
  12.37543882  4.25769649  7.47382275
  -2.48380212  5.65446812  7.47931895
  -0.00447246  4.24471459  7.49725493
  -0.03557417  5.65951777  7.51990385
   2.46132626  4.29960965  7.55642555
   2.43481152  5.68986195  7.67368946
   4.92754538  4.33663092  7.54711911
   4.98520393  5.75084559  7.62620502
   7.43152731  4.26124641  7.49607877
   7.46288639  5.67826258  7.51796101
   9.90680838  4.25499773  7.46844223
   9.91591708  5.67593344  7.47494785
  -3.70993557  6.36743982  7.47293961
  -3.70679710  7.78959149  7.47086450
  -1.26031262  6.36958042  7.50186650
  -1.25633640  7.79093230  7.50823333
   1.18971258  6.34777740  7.58034091
   1.20003619  7.78697350  7.57944084
   6.24721604  6.38643681  7.56813062
   6.25106714  7.81578595  7.58036895
   8.69398992  6.39019630  7.49690369
   8.69748843  7.80966428  7.49781167
  -4.93289125  8.50250040  7.47248226
  -4.93922442  9.92486668  7.46784093
  -2.47927691  8.50471925  7.47972493
  -2.47521238  9.92721843  7.47310418
  -0.02500530  8.49911390  7.53534610
  -0.00742638  9.91884157  7.50468498
   2.44622762  8.44630583  7.62202330
   2.48046310  9.86230474  7.54336937
   4.99927410  8.46038932  7.65397934
   4.95880354  9.87194279  7.55360327
   7.47013810  8.52343588  7.52647748
   7.44604116  9.93971246  7.49818310
  -6.17571035 10.63325326  7.47107578
  -6.18075261 12.05021350  7.46247760
  -3.70826016 10.63947866  7.46475415
  -3.70920987 12.06161674  7.46400708
  -1.24171177 10.63675788  7.47754890
  -1.24171354 12.05757006  7.46629752
   1.24112187 10.60353694  7.50077458
   1.23819528 12.02917531  7.47651791
   3.71807161 10.59072991  7.53646098
   3.71496731 12.01059253  7.49177817
   6.19596559 10.61642845  7.49907226
   6.19377508 12.03972095  7.47473929
   3.70922394  7.08827139  8.32904988
 


--------------------------------------------------------------------------------------------------------


 k-point  1 :   0.0000 0.0000 0.0000  plane waves:   59547
 k-point  2 :   0.5000-0.0000 0.0000  plane waves:   59532
 k-point  3 :  -0.0000 0.5000 0.0000  plane waves:   59586
 k-point  4 :   0.5000 0.5000 0.0000  plane waves:   59526

 maximum and minimum number of plane-waves per node :      4989     4934

 maximum number of plane-waves:     59586
 maximum index in each direction: 
   IXMAX=   25   IYMAX=   25   IZMAX=   25
   IXMIN=  -25   IYMIN=  -25   IZMIN=  -25


 real space projection operators:
  total allocation   :      18903.77 KBytes
  max/ min on nodes  :       1624.84       1539.72


 parallel 3D FFT for wavefunctions:
    minimum data exchange during FFTs selected (reduces bandwidth)
 parallel 3D FFT for charge:
    minimum data exchange during FFTs selected (reduces bandwidth)


 total amount of memory used by VASP MPI-rank0   111505. kBytes
=======================================================================

   base      :      30000. kBytes
   nonlr-proj:       9914. kBytes
   fftplans  :      10852. kBytes
   grid      :      30996. kBytes
   one-center:        186. kBytes
   wavefun   :      29557. kBytes
 
     INWAV:  cpu time    0.0000: real time    0.0002
 Broyden mixing: mesh for mixing (old mesh)
   NGX = 51   NGY = 51   NGZ = 51
  (NGX  =216   NGY  =216   NGZ  =216)
  gives a total of 132651 points

 initial charge density was supplied:
 charge density of overlapping atoms calculated
 number of electron     293.0000000 magnetization       1.0000000
 keeping initial charge density in first step


--------------------------------------------------------------------------------------------------------


 Maximum index for non-local projection operator          552
 Maximum index for augmentation-charges          326 (set IRDMAX)


--------------------------------------------------------------------------------------------------------


 First call to EWALD:  gamma=   0.125
 Maximum number of real-space cells 3x 3x 3
 Maximum number of reciprocal cells 3x 3x 3

    FEWALD:  cpu time    0.0056: real time    0.0058


--------------------------------------- Iteration      1(   1)  ---------------------------------------


    POTLOK:  cpu time    0.4161: real time    0.4470
    SETDIJ:  cpu time    0.0132: real time    0.0134
     EDDAV:  cpu time   11.8705: real time   11.9969
       DOS:  cpu time    0.0013: real time    0.0013
    --------------------------------------------
      LOOP:  cpu time   12.3011: real time   12.4587

 eigenvalue-minimisations  :  3384
 total energy-change (2. order) : 0.2448029E+04  (-0.1080267E+05)
 number of electron     293.0000000 magnetization       1.0000000
 augmentation part      293.0000000 magnetization       1.0000000

 Free energy of the ion-electron system (eV)
  ---------------------------------------------------
  alpha Z        PSCENC =       157.32594867
  Ewald energy   TEWEN  =     30469.61331741
  -Hartree energ DENC   =    -39631.90779549
  -exchange      EXHF   =         0.00000000
  -V(xc)+E(xc)   XCENC  =       982.97235986
  PAW double counting   =      9000.30529238    -9089.18527416
  entropy T*S    EENTRO =        -0.12058988
  eigenvalues    EBANDS =     -1506.25196576
  atomic energy  EATOM  =     12065.27733323
  Solvation  Ediel_sol  =         0.00000000
  ---------------------------------------------------
  free energy    TOTEN  =      2448.02862626 eV

  energy without entropy =     2448.14921614  energy(sigma->0) =     2448.08892120


--------------------------------------------------------------------------------------------------------




--------------------------------------- Iteration      1(   2)  ---------------------------------------


     EDDAV:  cpu time   14.9224: real time   15.1534
       DOS:  cpu time    0.0010: real time    0.0010
    --------------------------------------------
      LOOP:  cpu time   14.9234: real time   15.1544

 eigenvalue-minimisations  :  4232
 total energy-change (2. order) :-0.2683555E+04  (-0.2565277E+04)
 number of electron     293.0000000 magnetization       1.0000000
 augmentation part      293.0000000 magnetization       1.0000000

 Free energy of the ion-electron system (eV)
  ---------------------------------------------------
  alpha Z        PSCENC =       157.32594867
  Ewald energy   TEWEN  =     30469.61331741
  -Hartree energ DENC   =    -39631.90779549
  -exchange      EXHF   =         0.00000000
  -V(xc)+E(xc)   XCENC  =       982.97235986
  PAW double counting   =      9000.30529238    -9089.18527416
  entropy T*S    EENTRO =        -0.02104840
  eigenvalues    EBANDS =     -4189.90676232
  atomic energy  EATOM  =     12065.27733323
  Solvation  Ediel_sol  =         0.00000000
  ---------------------------------------------------
  free energy    TOTEN  =      -235.52662881 eV

  energy without entropy =     -235.50558042  energy(sigma->0) =     -235.51610462


--------------------------------------------------------------------------------------------------------




--------------------------------------- Iteration      1(   3)  ---------------------------------------


     EDDAV:  cpu time   12.9752: real time   13.1454
       DOS:  cpu time    0.0010: real time    0.0010
    --------------------------------------------
      LOOP:  cpu time   12.9761: real time   13.1463

 eigenvalue-minimisations  :  3560
 total energy-change (2. order) :-0.4517187E+03  (-0.4489424E+03)
 number of electron     293.0000000 magnetization       1.0000000
 augmentation part      293.0000000 magnetization       1.0000000

 Free energy of the ion-electron system (eV)
  ---------------------------------------------------
  alpha Z        PSCENC =       157.32594867
  Ewald energy   TEWEN  =     30469.61331741
  -Hartree energ DENC   =    -39631.90779549
  -exchange      EXHF   =         0.00000000
  -V(xc)+E(xc)   XCENC  =       982.97235986
  PAW double counting   =      9000.30529238    -9089.18527416
  entropy T*S    EENTRO =        -0.03948469
  eigenvalues    EBANDS =     -4641.60705185
  atomic energy  EATOM  =     12065.27733323
  Solvation  Ediel_sol  =         0.00000000
  ---------------------------------------------------
  free energy    TOTEN  =      -687.24535463 eV

  energy without entropy =     -687.20586995  energy(sigma->0) =     -687.22561229


--------------------------------------------------------------------------------------------------------




--------------------------------------- Iteration      1(   4)  ---------------------------------------


     EDDAV:  cpu time   12.9559: real time   13.1557
       DOS:  cpu time    0.0009: real time    0.0009
    --------------------------------------------
      LOOP:  cpu time   12.9568: real time   13.1566

 eigenvalue-minimisations  :  3576
 total energy-change (2. order) :-0.1644615E+02  (-0.1630817E+02)
 number of electron     293.0000000 magnetization       1.0000000
 augmentation part      293.0000000 magnetization       1.0000000

 Free energy of the ion-electron system (eV)
  ---------------------------------------------------
  alpha Z        PSCENC =       157.32594867
  Ewald energy   TEWEN  =     30469.61331741
  -Hartree energ DENC   =    -39631.90779549
  -exchange      EXHF   =         0.00000000
  -V(xc)+E(xc)   XCENC  =       982.97235986
  PAW double counting   =      9000.30529238    -9089.18527416
  entropy T*S    EENTRO =        -0.03917580
  eigenvalues    EBANDS =     -4658.05351212
  atomic energy  EATOM  =     12065.27733323
  Solvation  Ediel_sol  =         0.00000000
  ---------------------------------------------------
  free energy    TOTEN  =      -703.69150601 eV

  energy without entropy =     -703.65233022  energy(sigma->0) =     -703.67191811


--------------------------------------------------------------------------------------------------------




--------------------------------------- Iteration      1(   5)  ---------------------------------------


     EDDAV:  cpu time   14.1845: real time   14.3593
       DOS:  cpu time    0.0010: real time    0.0010
    CHARGE:  cpu time    0.5299: real time    0.5385
    MIXING:  cpu time    0.0071: real time    0.0085
    --------------------------------------------
      LOOP:  cpu time   14.7225: real time   14.9073

 eigenvalue-minimisations  :  4056
 total energy-change (2. order) :-0.5365442E+00  (-0.5348215E+00)
 number of electron     292.9999979 magnetization       0.7770909
 augmentation part       11.6700284 magnetization       0.7561247

 Broyden mixing:
  rms(total) = 0.46776E+01    rms(broyden)= 0.46771E+01
  rms(prec ) = 0.54350E+01
  weight for this iteration     100.00

 Free energy of the ion-electron system (eV)
  ---------------------------------------------------
  alpha Z        PSCENC =       157.32594867
  Ewald energy   TEWEN  =     30469.61331741
  -Hartree energ DENC   =    -39631.90779549
  -exchange      EXHF   =         0.00000000
  -V(xc)+E(xc)   XCENC  =       982.97235986
  PAW double counting   =      9000.30529238    -9089.18527416
  entropy T*S    EENTRO =        -0.03921864
  eigenvalues    EBANDS =     -4658.59001343
  atomic energy  EATOM  =     12065.27733323
  Solvation  Ediel_sol  =         0.00000000
  ---------------------------------------------------
  free energy    TOTEN  =      -704.22805017 eV

  energy without entropy =     -704.18883153  energy(sigma->0) =     -704.20844085


--------------------------------------------------------------------------------------------------------




--------------------------------------- Iteration      1(   6)  ---------------------------------------


    POTLOK:  cpu time    0.3779: real time    0.3874
    SETDIJ:  cpu time    0.0120: real time    0.0131
    EDDIAG:  cpu time    2.0646: real time    2.0971
  RMM-DIIS:  cpu time   11.6830: real time   11.7843
    ORTHCH:  cpu time    0.1969: real time    0.1977
       DOS:  cpu time    0.0010: real time    0.0010
    CHARGE:  cpu time    0.4789: real time    0.4891
    MIXING:  cpu time    0.0081: real time    0.0087
    --------------------------------------------
      LOOP:  cpu time   14.8223: real time   14.9784

 eigenvalue-minimisations  :  4110
 total energy-change (2. order) :-0.2774098E+02  (-0.5195703E+02)
 number of electron     292.9999985 magnetization       0.7158597
 augmentation part       17.3640046 magnetization       1.0037305

 Broyden mixing:
  rms(total) = 0.84047E+01    rms(broyden)= 0.84044E+01
  rms(prec ) = 0.92913E+01
  weight for this iteration     100.00

 eigenvalues of (default mixing * dielectric matrix)
  average eigenvalue GAMMA=   0.2136
  0.2136

 Free energy of the ion-electron system (eV)
  ---------------------------------------------------
  alpha Z        PSCENC =       157.32594867
  Ewald energy   TEWEN  =     30469.61331741
  -Hartree energ DENC   =    -39925.77337423
  -exchange      EXHF   =         0.00000000
  -V(xc)+E(xc)   XCENC  =       996.79562599
  PAW double counting   =     15335.23018016   -15423.89452301
  entropy T*S    EENTRO =        -0.05397330
  eigenvalues    EBANDS =     -4406.48956877
  atomic energy  EATOM  =     12065.27733323
  Solvation  Ediel_sol  =         0.00000000
  ---------------------------------------------------
  free energy    TOTEN  =      -731.96903385 eV

  energy without entropy =     -731.91506055  energy(sigma->0) =     -731.94204720


--------------------------------------------------------------------------------------------------------




--------------------------------------- Iteration      1(   7)  ---------------------------------------


    POTLOK:  cpu time    0.3942: real time    0.4027
    SETDIJ:  cpu time    0.0122: real time    0.0122
    EDDIAG:  cpu time    2.0506: real time    2.0713
  RMM-DIIS:  cpu time    8.6331: real time    8.7013
    ORTHCH:  cpu time    0.3127: real time    0.3342
       DOS:  cpu time    0.0009: real time    0.0009
    CHARGE:  cpu time    0.4966: real time    0.5040
    MIXING:  cpu time    0.0086: real time    0.0088
    --------------------------------------------
      LOOP:  cpu time   11.9089: real time   12.0355

 eigenvalue-minimisations  :  3010
 total energy-change (2. order) : 0.6966956E+02  (-0.5265193E+01)
 number of electron     292.9999983 magnetization       0.6148164
 augmentation part       15.1781140 magnetization       0.6196218

 Broyden mixing:
  rms(total) = 0.31461E+01    rms(broyden)= 0.31457E+01
  rms(prec ) = 0.37621E+01
  weight for this iteration     100.00

 eigenvalues of (default mixing * dielectric matrix)
  average eigenvalue GAMMA=   0.4733
  0.5527  0.3939

 Free energy of the ion-electron system (eV)
  ---------------------------------------------------
  alpha Z        PSCENC =       157.32594867
  Ewald energy   TEWEN  =     30469.61331741
  -Hartree energ DENC   =    -40047.91516023
  -exchange      EXHF   =         0.00000000
  -V(xc)+E(xc)   XCENC  =      1001.39004023
  PAW double counting   =     16951.41718844   -17046.85324960
  entropy T*S    EENTRO =        -0.00120748
  eigenvalues    EBANDS =     -4212.55368156
  atomic energy  EATOM  =     12065.27733323
  Solvation  Ediel_sol  =         0.00000000
  ---------------------------------------------------
  free energy    TOTEN  =      -662.29947089 eV

  energy without entropy =     -662.29826341  energy(sigma->0) =     -662.29886715


--------------------------------------------------------------------------------------------------------




--------------------------------------- Iteration      1(   8)  ---------------------------------------


    POTLOK:  cpu time    0.3847: real time    0.3886
    SETDIJ:  cpu time    0.0122: real time    0.0123
    EDDIAG:  cpu time    2.0626: real time    2.0769
  RMM-DIIS:  cpu time    8.8811: real time    8.9478
    ORTHCH:  cpu time    0.4015: real time    0.4077
       DOS:  cpu time    0.0011: real time    0.0011
    CHARGE:  cpu time    0.5312: real time    0.5381
    MIXING:  cpu time    0.0086: real time    0.0087
    --------------------------------------------
      LOOP:  cpu time   12.2831: real time   12.3812

 eigenvalue-minimisations  :  3115
 total energy-change (2. order) : 0.1033471E+00  (-0.2100550E+01)
 number of electron     292.9999980 magnetization       0.3420652
 augmentation part       11.2297884 magnetization       0.2827103

 Broyden mixing:
  rms(total) = 0.28314E+01    rms(broyden)= 0.28305E+01
  rms(prec ) = 0.34635E+01
  weight for this iteration     100.00

 eigenvalues of (default mixing * dielectric matrix)
  average eigenvalue GAMMA=   0.8631
  1.9101  0.3396  0.3396

 Free energy of the ion-electron system (eV)
  ---------------------------------------------------
  alpha Z        PSCENC =       157.32594867
  Ewald energy   TEWEN  =     30469.61331741
  -Hartree energ DENC   =    -40232.92990247
  -exchange      EXHF   =         0.00000000
  -V(xc)+E(xc)   XCENC  =      1008.26845704
  PAW double counting   =     20043.66831342   -20143.10279570
  entropy T*S    EENTRO =        -0.03276640
  eigenvalues    EBANDS =     -4030.28402904
  atomic energy  EATOM  =     12065.27733323
  Solvation  Ediel_sol  =         0.00000000
  ---------------------------------------------------
  free energy    TOTEN  =      -662.19612383 eV

  energy without entropy =     -662.16335744  energy(sigma->0) =     -662.17974063


--------------------------------------------------------------------------------------------------------




--------------------------------------- Iteration      1(   9)  ---------------------------------------


    POTLOK:  cpu time    0.3066: real time    0.3104
    SETDIJ:  cpu time    0.0123: real time    0.0124
    EDDIAG:  cpu time    2.0475: real time    2.0637
  RMM-DIIS:  cpu time    8.3975: real time    8.4640
    ORTHCH:  cpu time    0.2118: real time    0.2129
       DOS:  cpu time    0.0009: real time    0.0009
    CHARGE:  cpu time    0.5206: real time    0.5274
    MIXING:  cpu time    0.0086: real time    0.0086
    --------------------------------------------
      LOOP:  cpu time   11.5058: real time   11.6003

 eigenvalue-minimisations  :  2973
 total energy-change (2. order) : 0.1481256E+02  (-0.2084450E+01)
 number of electron     292.9999982 magnetization       0.2744076
 augmentation part       12.2793549 magnetization       0.2423900

 Broyden mixing:
  rms(total) = 0.10754E+01    rms(broyden)= 0.10748E+01
  rms(prec ) = 0.11931E+01
  weight for this iteration     100.00

 eigenvalues of (default mixing * dielectric matrix)
  average eigenvalue GAMMA=   0.9200
  2.2282  0.7533  0.3494  0.3494

 Free energy of the ion-electron system (eV)
  ---------------------------------------------------
  alpha Z        PSCENC =       157.32594867
  Ewald energy   TEWEN  =     30469.61331741
  -Hartree energ DENC   =    -40545.06876755
  -exchange      EXHF   =         0.00000000
  -V(xc)+E(xc)   XCENC  =      1021.34587986
  PAW double counting   =     28683.75017484   -28785.94377430
  entropy T*S    EENTRO =        -0.03040388
  eigenvalues    EBANDS =     -3713.65326944
  atomic energy  EATOM  =     12065.27733323
  Solvation  Ediel_sol  =         0.00000000
  ---------------------------------------------------
  free energy    TOTEN  =      -647.38356115 eV

  energy without entropy =     -647.35315728  energy(sigma->0) =     -647.36835922


--------------------------------------------------------------------------------------------------------




--------------------------------------- Iteration      1(  10)  ---------------------------------------


    POTLOK:  cpu time    0.3832: real time    0.3875
    SETDIJ:  cpu time    0.0123: real time    0.0123
    EDDIAG:  cpu time    2.0871: real time    2.1040
  RMM-DIIS:  cpu time    8.6558: real time    8.7231
    ORTHCH:  cpu time    0.2505: real time    0.2515
       DOS:  cpu time    0.0008: real time    0.0008
    CHARGE:  cpu time    0.4781: real time    0.4849
    MIXING:  cpu time    0.0089: real time    0.0090
    --------------------------------------------
      LOOP:  cpu time   11.8768: real time   11.9732

 eigenvalue-minimisations  :  3015
 total energy-change (2. order) :-0.5979905E+00  (-0.2489394E+00)
 number of electron     292.9999982 magnetization       0.2181456
 augmentation part       13.7050717 magnetization       0.2541361

 Broyden mixing:
  rms(total) = 0.13825E+01    rms(broyden)= 0.13806E+01
  rms(prec ) = 0.17066E+01
  weight for this iteration     100.00

 eigenvalues of (default mixing * dielectric matrix)
  average eigenvalue GAMMA=   0.9227
  2.3577  1.0787  0.3469  0.3469  0.4831

 Free energy of the ion-electron system (eV)
  ---------------------------------------------------
  alpha Z        PSCENC =       157.32594867
  Ewald energy   TEWEN  =     30469.61331741
  -Hartree energ DENC   =    -40583.83160412
  -exchange      EXHF   =         0.00000000
  -V(xc)+E(xc)   XCENC  =      1022.01633182
  PAW double counting   =     30075.15884301   -30176.08626440
  entropy T*S    EENTRO =        -0.00188043
  eigenvalues    EBANDS =     -3677.45357684
  atomic energy  EATOM  =     12065.27733323
  Solvation  Ediel_sol  =         0.00000000
  ---------------------------------------------------
  free energy    TOTEN  =      -647.98155166 eV

  energy without entropy =     -647.97967122  energy(sigma->0) =     -647.98061144


--------------------------------------------------------------------------------------------------------




--------------------------------------- Iteration      1(  11)  ---------------------------------------


    POTLOK:  cpu time    0.4148: real time    0.4190
    SETDIJ:  cpu time    0.0126: real time    0.0128
    EDDIAG:  cpu time    2.0475: real time    2.0641
  RMM-DIIS:  cpu time    8.7308: real time    8.7997
    ORTHCH:  cpu time    0.2186: real time    0.2193
       DOS:  cpu time    0.0010: real time    0.0010
    CHARGE:  cpu time    0.4988: real time    0.5063
    MIXING:  cpu time    0.0089: real time    0.0089
    --------------------------------------------
      LOOP:  cpu time   11.9329: real time   12.0312

 eigenvalue-minimisations  :  3082
 total energy-change (2. order) : 0.1100649E+01  (-0.3512651E-01)
 number of electron     292.9999983 magnetization       0.2181650
 augmentation part       12.6776546 magnetization       0.0629138

 Broyden mixing:
  rms(total) = 0.68859E+00    rms(broyden)= 0.68672E+00
  rms(prec ) = 0.70975E+00
  weight for this iteration     100.00

 eigenvalues of (default mixing * dielectric matrix)
  average eigenvalue GAMMA=   0.9617
  2.0860  2.0860  0.3463  0.3463  0.5273  0.3784

 Free energy of the ion-electron system (eV)
  ---------------------------------------------------
  alpha Z        PSCENC =       157.32594867
  Ewald energy   TEWEN  =     30469.61331741
  -Hartree energ DENC   =    -40616.12598399
  -exchange      EXHF   =         0.00000000
  -V(xc)+E(xc)   XCENC  =      1022.36708531
  PAW double counting   =     30736.33277689   -30836.50783390
  entropy T*S    EENTRO =        -0.06560456
  eigenvalues    EBANDS =     -3645.09794159
  atomic energy  EATOM  =     12065.27733323
  Solvation  Ediel_sol  =         0.00000000
  ---------------------------------------------------
  free energy    TOTEN  =      -646.88090251 eV

  energy without entropy =     -646.81529795  energy(sigma->0) =     -646.84810023


--------------------------------------------------------------------------------------------------------




--------------------------------------- Iteration      1(  12)  ---------------------------------------


    POTLOK:  cpu time    0.4044: real time    0.4083
    SETDIJ:  cpu time    0.0126: real time    0.0127
    EDDIAG:  cpu time    2.0270: real time    2.0419
  RMM-DIIS:  cpu time    8.3729: real time    8.4346
    ORTHCH:  cpu time    0.2842: real time    0.2854
       DOS:  cpu time    0.0010: real time    0.0010
    CHARGE:  cpu time    0.4780: real time    0.4840
    MIXING:  cpu time    0.0090: real time    0.0091
    --------------------------------------------
      LOOP:  cpu time   11.5892: real time   11.6769

 eigenvalue-minimisations  :  2944
 total energy-change (2. order) :-0.1495514E+00  (-0.1680129E-01)
 number of electron     292.9999982 magnetization       0.2041536
 augmentation part       12.9609895 magnetization      -0.2546673

 Broyden mixing:
  rms(total) = 0.67667E+00    rms(broyden)= 0.67574E+00
  rms(prec ) = 0.71034E+00
  weight for this iteration     100.00

 eigenvalues of (default mixing * dielectric matrix)
  average eigenvalue GAMMA=   0.8249
  2.0857  2.0857  0.3463  0.3463  0.5232  0.3767  0.0107

 Free energy of the ion-electron system (eV)
  ---------------------------------------------------
  alpha Z        PSCENC =       157.32594867
  Ewald energy   TEWEN  =     30469.61331741
  -Hartree energ DENC   =    -40639.07874508
  -exchange      EXHF   =         0.00000000
  -V(xc)+E(xc)   XCENC  =      1021.98322634
  PAW double counting   =     31120.16161180   -31218.90835016
  entropy T*S    EENTRO =        -0.02676121
  eigenvalues    EBANDS =     -3623.37803491
  atomic energy  EATOM  =     12065.27733323
  Solvation  Ediel_sol  =         0.00000000
  ---------------------------------------------------
  free energy    TOTEN  =      -647.03045390 eV

  energy without entropy =     -647.00369269  energy(sigma->0) =     -647.01707330


--------------------------------------------------------------------------------------------------------




--------------------------------------- Iteration      1(  13)  ---------------------------------------


    POTLOK:  cpu time    0.4355: real time    0.4400
    SETDIJ:  cpu time    0.0122: real time    0.0124
    EDDIAG:  cpu time    2.1912: real time    2.2165
  RMM-DIIS:  cpu time    8.4893: real time    8.5615
    ORTHCH:  cpu time    0.1973: real time    0.1980
       DOS:  cpu time    0.0010: real time    0.0010
    CHARGE:  cpu time    0.5177: real time    0.5244
    MIXING:  cpu time    0.0091: real time    0.0092
    --------------------------------------------
      LOOP:  cpu time   11.8534: real time   11.9631

 eigenvalue-minimisations  :  3005
 total energy-change (2. order) : 0.2575448E-01  (-0.1894268E-02)
 number of electron     292.9999982 magnetization       0.2961534
 augmentation part       12.9623098 magnetization      -0.1798839

 Broyden mixing:
  rms(total) = 0.69684E+00    rms(broyden)= 0.69678E+00
  rms(prec ) = 0.72964E+00
  weight for this iteration     100.00

 eigenvalues of (default mixing * dielectric matrix)
  average eigenvalue GAMMA=   0.8797
  2.2030  2.2030  0.6215  0.3456  0.3456  0.3790  0.4700  0.4700

 Free energy of the ion-electron system (eV)
  ---------------------------------------------------
  alpha Z        PSCENC =       157.32594867
  Ewald energy   TEWEN  =     30469.61331741
  -Hartree energ DENC   =    -40638.11195425
  -exchange      EXHF   =         0.00000000
  -V(xc)+E(xc)   XCENC  =      1021.96806386
  PAW double counting   =     31122.69358942   -31221.41143694
  entropy T*S    EENTRO =        -0.02700451
  eigenvalues    EBANDS =     -3624.33255631
  atomic energy  EATOM  =     12065.27733323
  Solvation  Ediel_sol  =         0.00000000
  ---------------------------------------------------
  free energy    TOTEN  =      -647.00469942 eV

  energy without entropy =     -646.97769491  energy(sigma->0) =     -646.99119717


--------------------------------------------------------------------------------------------------------




--------------------------------------- Iteration      1(  14)  ---------------------------------------


    POTLOK:  cpu time    0.4026: real time    0.4059
    SETDIJ:  cpu time    0.0123: real time    0.0123
    EDDIAG:  cpu time    2.0124: real time    2.0244
  RMM-DIIS:  cpu time    8.5696: real time    8.6307
    ORTHCH:  cpu time    0.4089: real time    0.4098
       DOS:  cpu time    0.0010: real time    0.0010
    CHARGE:  cpu time    0.4774: real time    0.4844
    MIXING:  cpu time    0.0433: real time    0.0435
    --------------------------------------------
      LOOP:  cpu time   11.9275: real time   12.0120

 eigenvalue-minimisations  :  3000
 total energy-change (2. order) :-0.2755433E-02  (-0.4595685E-02)
 number of electron     292.9999982 magnetization       0.4885321
 augmentation part       12.8508357 magnetization       0.0269790

 Broyden mixing:
  rms(total) = 0.59573E+00    rms(broyden)= 0.59570E+00
  rms(prec ) = 0.60801E+00
  weight for this iteration     100.00

 eigenvalues of (default mixing * dielectric matrix)
  average eigenvalue GAMMA=   0.9011
  2.2490  2.2490  0.7870  0.7870  0.5868  0.3461  0.3461  0.4274  0.3314

 Free energy of the ion-electron system (eV)
  ---------------------------------------------------
  alpha Z        PSCENC =       157.32594867
  Ewald energy   TEWEN  =     30469.61331741
  -Hartree energ DENC   =    -40650.80838239
  -exchange      EXHF   =         0.00000000
  -V(xc)+E(xc)   XCENC  =      1022.05115267
  PAW double counting   =     31232.91780573   -31331.31143013
  entropy T*S    EENTRO =        -0.02726405
  eigenvalues    EBANDS =     -3612.04593600
  atomic energy  EATOM  =     12065.27733323
  Solvation  Ediel_sol  =         0.00000000
  ---------------------------------------------------
  free energy    TOTEN  =      -647.00745486 eV

  energy without entropy =     -646.98019080  energy(sigma->0) =     -646.99382283


--------------------------------------------------------------------------------------------------------




--------------------------------------- Iteration      1(  15)  ---------------------------------------


    POTLOK:  cpu time    0.4030: real time    0.4092
    SETDIJ:  cpu time    0.0119: real time    0.0120
    EDDIAG:  cpu time    2.0453: real time    2.0609
  RMM-DIIS:  cpu time    8.4755: real time    8.5427
    ORTHCH:  cpu time    0.2467: real time    0.2474
       DOS:  cpu time    0.0011: real time    0.0010
    CHARGE:  cpu time    0.5176: real time    0.5241
    MIXING:  cpu time    0.0093: real time    0.0093
    --------------------------------------------
      LOOP:  cpu time   11.7104: real time   11.8065

 eigenvalue-minimisations  :  2996
 total energy-change (2. order) :-0.8511869E-01  (-0.1687987E-01)
 number of electron     292.9999982 magnetization       0.7541298
 augmentation part       12.9409039 magnetization       0.3787168

 Broyden mixing:
  rms(total) = 0.53089E+00    rms(broyden)= 0.53087E+00
  rms(prec ) = 0.55888E+00
  weight for this iteration     100.00

 eigenvalues of (default mixing * dielectric matrix)
  average eigenvalue GAMMA=   0.9204
  2.2123  2.2123  1.1069  1.1069  0.5642  0.3457  0.3457  0.3768  0.4668  0.4668

 Free energy of the ion-electron system (eV)
  ---------------------------------------------------
  alpha Z        PSCENC =       157.32594867
  Ewald energy   TEWEN  =     30469.61331741
  -Hartree energ DENC   =    -40667.49279142
  -exchange      EXHF   =         0.00000000
  -V(xc)+E(xc)   XCENC  =      1022.35727182
  PAW double counting   =     31272.27934694   -31370.50872179
  entropy T*S    EENTRO =        -0.01978666
  eigenvalues    EBANDS =     -3595.92449175
  atomic energy  EATOM  =     12065.27733323
  Solvation  Ediel_sol  =         0.00000000
  ---------------------------------------------------
  free energy    TOTEN  =      -647.09257355 eV

  energy without entropy =     -647.07278688  energy(sigma->0) =     -647.08268022


--------------------------------------------------------------------------------------------------------




--------------------------------------- Iteration      1(  16)  ---------------------------------------


    POTLOK:  cpu time    0.4031: real time    0.4075
    SETDIJ:  cpu time    0.0108: real time    0.0126
    EDDIAG:  cpu time    1.9872: real time    2.0061
  RMM-DIIS:  cpu time    8.5446: real time    8.6060
    ORTHCH:  cpu time    0.3182: real time    0.3228
       DOS:  cpu time    0.0010: real time    0.0010
    CHARGE:  cpu time    0.4817: real time    0.4905
    MIXING:  cpu time    0.0083: real time    0.0088
    --------------------------------------------
      LOOP:  cpu time   11.7548: real time   11.8553

 eigenvalue-minimisations  :  2994
 total energy-change (2. order) : 0.5496595E-01  (-0.1415414E-01)
 number of electron     292.9999982 magnetization       0.9259698
 augmentation part       12.8825549 magnetization       0.6693684

 Broyden mixing:
  rms(total) = 0.33725E+00    rms(broyden)= 0.33718E+00
  rms(prec ) = 0.35879E+00
  weight for this iteration     100.00

 eigenvalues of (default mixing * dielectric matrix)
  average eigenvalue GAMMA=   1.0168
  2.1631  2.1631  1.7049  1.7049  0.5972  0.5972  0.6903  0.3458  0.3458  0.5052
  0.3678

 Free energy of the ion-electron system (eV)
  ---------------------------------------------------
  alpha Z        PSCENC =       157.32594867
  Ewald energy   TEWEN  =     30469.61331741
  -Hartree energ DENC   =    -40687.96682812
  -exchange      EXHF   =         0.00000000
  -V(xc)+E(xc)   XCENC  =      1022.94736822
  PAW double counting   =     31222.56095753   -31320.81798602
  entropy T*S    EENTRO =        -0.02274044
  eigenvalues    EBANDS =     -3575.95497807
  atomic energy  EATOM  =     12065.27733323
  Solvation  Ediel_sol  =         0.00000000
  ---------------------------------------------------
  free energy    TOTEN  =      -647.03760759 eV

  energy without entropy =     -647.01486715  energy(sigma->0) =     -647.02623737


--------------------------------------------------------------------------------------------------------




--------------------------------------- Iteration      1(  17)  ---------------------------------------


    POTLOK:  cpu time    0.3872: real time    0.3953
    SETDIJ:  cpu time    0.0164: real time    0.0164
    EDDIAG:  cpu time    2.0709: real time    2.0898
  RMM-DIIS:  cpu time    8.5136: real time    8.5816
    ORTHCH:  cpu time    0.3970: real time    0.3979
       DOS:  cpu time    0.0023: real time    0.0025
    CHARGE:  cpu time    0.5108: real time    0.5172
    MIXING:  cpu time    0.0095: real time    0.0101
    --------------------------------------------
      LOOP:  cpu time   11.9077: real time   12.0108

 eigenvalue-minimisations  :  2977
 total energy-change (2. order) :-0.7833014E-01  (-0.5507560E-02)
 number of electron     292.9999982 magnetization       1.1756653
 augmentation part       12.8337831 magnetization       0.9187528

 Broyden mixing:
  rms(total) = 0.22496E+00    rms(broyden)= 0.22491E+00
  rms(prec ) = 0.24106E+00
  weight for this iteration     100.00

 eigenvalues of (default mixing * dielectric matrix)
  average eigenvalue GAMMA=   1.0866
  2.2234  2.2234  2.1599  2.1599  0.6486  0.6486  0.3459  0.3459  0.6718  0.6718
  0.3699  0.5700

 Free energy of the ion-electron system (eV)
  ---------------------------------------------------
  alpha Z        PSCENC =       157.32594867
  Ewald energy   TEWEN  =     30469.61331741
  -Hartree energ DENC   =    -40701.77052621
  -exchange      EXHF   =         0.00000000
  -V(xc)+E(xc)   XCENC  =      1023.17812320
  PAW double counting   =     31149.68940907   -31248.09305178
  entropy T*S    EENTRO =        -0.02643592
  eigenvalues    EBANDS =     -3562.31005540
  atomic energy  EATOM  =     12065.27733323
  Solvation  Ediel_sol  =         0.00000000
  ---------------------------------------------------
  free energy    TOTEN  =      -647.11593773 eV

  energy without entropy =     -647.08950181  energy(sigma->0) =     -647.10271977


--------------------------------------------------------------------------------------------------------




--------------------------------------- Iteration      1(  18)  ---------------------------------------


    POTLOK:  cpu time    0.3979: real time    0.4012
    SETDIJ:  cpu time    0.0122: real time    0.0123
    EDDIAG:  cpu time    2.0493: real time    2.0650
  RMM-DIIS:  cpu time    8.3982: real time    8.4594
    ORTHCH:  cpu time    0.2958: real time    0.2968
       DOS:  cpu time    0.0009: real time    0.0009
    CHARGE:  cpu time    0.5213: real time    0.5283
    MIXING:  cpu time    0.0097: real time    0.0098
    --------------------------------------------
      LOOP:  cpu time   11.6854: real time   11.7737

 eigenvalue-minimisations  :  2950
 total energy-change (2. order) :-0.1122241E+00  (-0.7204591E-02)
 number of electron     292.9999982 magnetization       1.4654785
 augmentation part       12.8455819 magnetization       1.1970401

 Broyden mixing:
  rms(total) = 0.15600E+00    rms(broyden)= 0.15596E+00
  rms(prec ) = 0.18168E+00
  weight for this iteration     100.00

 eigenvalues of (default mixing * dielectric matrix)
  average eigenvalue GAMMA=   1.1091
  2.4852  2.4852  2.0772  2.0772  0.8950  0.8950  0.6446  0.6446  0.3459  0.3459
  0.3694  0.5768  0.5768

 Free energy of the ion-electron system (eV)
  ---------------------------------------------------
  alpha Z        PSCENC =       157.32594867
  Ewald energy   TEWEN  =     30469.61331741
  -Hartree energ DENC   =    -40723.53853862
  -exchange      EXHF   =         0.00000000
  -V(xc)+E(xc)   XCENC  =      1023.44429345
  PAW double counting   =     31093.42525528   -31191.93069882
  entropy T*S    EENTRO =        -0.02615373
  eigenvalues    EBANDS =     -3540.81891874
  atomic energy  EATOM  =     12065.27733323
  Solvation  Ediel_sol  =         0.00000000
  ---------------------------------------------------
  free energy    TOTEN  =      -647.22816187 eV

  energy without entropy =     -647.20200814  energy(sigma->0) =     -647.21508500


--------------------------------------------------------------------------------------------------------




--------------------------------------- Iteration      1(  19)  ---------------------------------------


    POTLOK:  cpu time    0.3942: real time    0.4023
    SETDIJ:  cpu time    0.0121: real time    0.0121
    EDDIAG:  cpu time    1.9884: real time    2.0032
  RMM-DIIS:  cpu time    8.4349: real time    8.4962
    ORTHCH:  cpu time    0.3224: real time    0.3241
       DOS:  cpu time    0.0011: real time    0.0011
    CHARGE:  cpu time    0.4861: real time    0.4932
    MIXING:  cpu time    0.0097: real time    0.0097
    --------------------------------------------
      LOOP:  cpu time   11.6489: real time   11.7420

 eigenvalue-minimisations  :  2969
 total energy-change (2. order) :-0.1894520E-01  (-0.7188760E-02)
 number of electron     292.9999982 magnetization       1.4754038
 augmentation part       12.8410036 magnetization       1.2146208

 Broyden mixing:
  rms(total) = 0.11689E+00    rms(broyden)= 0.11683E+00
  rms(prec ) = 0.14619E+00
  weight for this iteration     100.00

 eigenvalues of (default mixing * dielectric matrix)
  average eigenvalue GAMMA=   1.1125
  2.4985  2.4985  2.1577  2.1577  0.9805  0.9805  0.6327  0.6327  0.3459  0.3459
  0.7173  0.7173  0.3695  0.5408

 Free energy of the ion-electron system (eV)
  ---------------------------------------------------
  alpha Z        PSCENC =       157.32594867
  Ewald energy   TEWEN  =     30469.61331741
  -Hartree energ DENC   =    -40749.94655339
  -exchange      EXHF   =         0.00000000
  -V(xc)+E(xc)   XCENC  =      1023.86944763
  PAW double counting   =     31061.62061058   -31160.12945618
  entropy T*S    EENTRO =        -0.03108715
  eigenvalues    EBANDS =     -3514.84666788
  atomic energy  EATOM  =     12065.27733323
  Solvation  Ediel_sol  =         0.00000000
  ---------------------------------------------------
  free energy    TOTEN  =      -647.24710707 eV

  energy without entropy =     -647.21601992  energy(sigma->0) =     -647.23156349


--------------------------------------------------------------------------------------------------------




--------------------------------------- Iteration      1(  20)  ---------------------------------------


    POTLOK:  cpu time    0.4342: real time    0.4386
    SETDIJ:  cpu time    0.0121: real time    0.0122
    EDDIAG:  cpu time    2.0464: real time    2.0690
  RMM-DIIS:  cpu time    8.6090: real time    8.6758
    ORTHCH:  cpu time    0.1534: real time    0.1539
       DOS:  cpu time    0.0009: real time    0.0009
    CHARGE:  cpu time    0.4830: real time    0.4915
    MIXING:  cpu time    0.0104: real time    0.0104
    --------------------------------------------
      LOOP:  cpu time   11.7492: real time   11.8523

 eigenvalue-minimisations  :  3048
 total energy-change (2. order) :-0.4552757E-01  (-0.2192119E-02)
 number of electron     292.9999982 magnetization       1.5779385
 augmentation part       12.8011535 magnetization       1.3090242

 Broyden mixing:
  rms(total) = 0.81360E-01    rms(broyden)= 0.81353E-01
  rms(prec ) = 0.96322E-01
  weight for this iteration     100.00

 eigenvalues of (default mixing * dielectric matrix)
  average eigenvalue GAMMA=   1.1016
  2.5717  2.5717  2.0241  1.6546  1.6546  0.8409  0.8409  0.8709  0.6346  0.6346
  0.3459  0.3459  0.3695  0.5931  0.5711

 Free energy of the ion-electron system (eV)
  ---------------------------------------------------
  alpha Z        PSCENC =       157.32594867
  Ewald energy   TEWEN  =     30469.61331741
  -Hartree energ DENC   =    -40753.13998275
  -exchange      EXHF   =         0.00000000
  -V(xc)+E(xc)   XCENC  =      1023.79873093
  PAW double counting   =     31067.98100732   -31166.46638819
  entropy T*S    EENTRO =        -0.02887388
  eigenvalues    EBANDS =     -3511.65372738
[...]
  Alpha Z   157.32595   157.32595   157.32595
  Ewald   40544.88391 40597.25448-50672.58032     4.85845    24.93401     8.37199
  Hartree 40017.37329 40002.02432-39224.47279     6.25700    16.98050     5.71513
  E(xc)   -1111.05646 -1110.67651 -1150.16805     0.00668     0.01418     0.00157
  Local  -83770.66918-83794.69933 86107.31802   -11.42267   -39.66224   -13.57820
  n-local  -289.03759  -286.89657  -269.28108    -0.20441    -0.00597    -0.21420
  augment    66.22495    64.84278    65.77495    -0.09864    -0.40665     0.01270
  Kinetic  4384.88857  4370.68159  4982.60504     0.77151    -1.84977    -0.31671
  Fock        0.00000     0.00000     0.00000     0.00000     0.00000     0.00000
  vdW        -1.48227    -1.63709    -0.04014     0.00181    -0.00256     0.00459
  -------------------------------------------------------------------------------------
  Total      -1.54885    -1.78038    -3.51843     0.16973     0.00149    -0.00313
  in kB      -0.87334    -1.00390    -1.98392     0.09570     0.00084    -0.00176
  external pressure =       -1.29 kB  Pullay stress =        0.00 kB


 VOLUME and BASIS-vectors are now :
 -----------------------------------------------------------------------------
  energy-cutoff  :      440.00
  volume of cell :     2841.41
      direct lattice vectors                 reciprocal lattice vectors
    14.853071780  0.023521220  0.000000000     0.067264056  0.039205183  0.000000000
    -7.426535890 12.741655181  0.000000000    -0.000124170  0.078410366  0.000000000
     0.000000000  0.000000000 15.000000000     0.000000000  0.000000000  0.066666667

  length of vectors
    14.853090404 14.747990103 15.000000000     0.077855633  0.078410464  0.066666667


 FORCES acting on ions
    electron-ion (+dipol)            ewald-force                    non-local-force                 convergence-correction
 -----------------------------------------------------------------------------------------------
   0.321E+01 0.135E+01 0.790E+01   -.337E+01 -.160E+01 -.793E+01   0.164E+00 0.260E+00 0.278E-01   -.204E-04 -.977E-04 -.749E-04
   -.312E+00 0.364E+01 0.805E+01   -.152E+00 -.395E+01 -.808E+01   0.458E+00 0.298E+00 0.289E-01   0.161E-03 0.324E-04 -.755E-04
   0.174E+00 0.455E+01 0.724E+01   -.146E+00 -.490E+01 -.726E+01   -.152E-01 0.333E+00 0.271E-01   -.925E-05 0.108E-03 -.648E-04
   -.203E+01 0.966E+01 0.714E+01   0.216E+01 -.104E+02 -.716E+01   -.110E+00 0.666E+00 0.172E-01   0.987E-04 0.366E-03 -.760E-04
   -.287E+01 0.136E+01 0.697E+01   0.295E+01 -.143E+01 -.699E+01   -.802E-01 0.770E-01 0.266E-01   -.178E-04 0.147E-03 -.661E-04
   -.116E+01 0.419E+01 0.672E+01   0.166E+01 -.440E+01 -.673E+01   -.486E+00 0.210E+00 0.960E-02   -.959E-04 0.357E-03 -.786E-04
   -.238E+01 -.658E-01 0.754E+01   0.248E+01 0.103E-01 -.755E+01   -.111E+00 0.599E-01 0.177E-01   0.869E-04 -.882E-04 -.755E-04
   0.157E+01 0.872E+00 0.779E+01   -.153E+01 -.882E+00 -.782E+01   -.654E-01 0.459E-02 0.326E-01   -.136E-03 0.452E-04 -.754E-04
   -.898E+00 -.798E+00 0.747E+01   0.966E+00 0.703E+00 -.749E+01   -.501E-01 0.110E+00 0.172E-01   0.527E-04 -.367E-03 -.735E-04
   0.825E+00 -.799E+00 0.764E+01   -.831E+00 0.656E+00 -.766E+01   0.122E-01 0.144E+00 0.296E-01   0.315E-04 -.119E-03 -.644E-04
   0.271E+01 0.617E-01 0.690E+01   -.282E+01 -.222E+00 -.690E+01   0.104E+00 0.164E+00 0.159E-02   -.912E-04 -.302E-03 -.760E-04
   0.814E+00 -.678E+00 0.668E+01   -.983E+00 0.483E+00 -.670E+01   0.178E+00 0.206E+00 0.215E-01   -.587E-04 -.140E-03 -.650E-04
   0.636E+01 0.603E+01 0.681E+01   -.663E+01 -.620E+01 -.682E+01   0.252E+00 0.183E+00 0.533E-02   0.691E-04 -.114E-05 -.692E-04
   0.627E+01 0.233E+01 0.620E+01   -.678E+01 -.264E+01 -.622E+01   0.509E+00 0.291E+00 0.993E-02   0.198E-03 0.200E-03 -.695E-04
   0.842E+01 0.149E+02 0.990E+01   -.863E+01 -.161E+02 -.992E+01   0.194E+00 0.120E+01 0.159E-01   0.221E-03 0.285E-03 -.862E-04
   0.214E+02 0.201E+02 0.133E+02   -.261E+02 -.230E+02 -.135E+02   0.466E+01 0.286E+01 0.246E+00   0.476E-03 0.572E-03 -.744E-04
   -.813E+01 0.136E+02 0.693E+01   0.844E+01 -.145E+02 -.696E+01   -.312E+00 0.847E+00 0.328E-01   0.319E-05 0.575E-03 -.815E-04
   -.264E+02 0.226E+02 0.727E+01   0.318E+02 -.248E+02 -.710E+01   -.541E+01 0.216E+01 -.171E+00   0.378E-04 0.917E-03 -.833E-04
   -.565E+01 0.657E+01 0.756E+01   0.584E+01 -.650E+01 -.757E+01   -.184E+00 -.731E-01 0.166E-02   -.203E-03 0.317E-03 -.896E-04
   -.599E+00 0.601E+01 0.913E+01   0.531E+00 -.597E+01 -.923E+01   0.679E-01 -.414E-01 0.820E-01   -.504E-03 0.634E-03 -.832E-04
   -.249E+01 0.443E+01 0.795E+01   0.255E+01 -.446E+01 -.796E+01   -.538E-01 0.558E-01 0.145E-01   -.132E-03 0.393E-04 -.696E-04
   -.248E+01 0.227E+01 0.758E+01   0.247E+01 -.234E+01 -.761E+01   -.110E-02 0.590E-01 0.273E-01   -.249E-03 0.177E-03 -.689E-04
   0.125E+01 0.225E+01 0.617E+01   -.133E+01 -.231E+01 -.616E+01   0.797E-01 0.646E-01 -.154E-01   0.391E-04 -.831E-04 -.560E-04
   0.663E+00 0.196E+01 0.626E+01   -.762E+00 -.203E+01 -.629E+01   0.130E+00 0.564E-01 0.267E-01   0.284E-04 0.129E-04 -.541E-04
   0.393E+01 0.446E+01 0.525E+01   -.414E+01 -.445E+01 -.523E+01   0.203E+00 -.465E-02 -.247E-01   0.110E-03 0.107E-03 -.617E-04
   0.494E+01 0.257E+01 0.613E+01   -.503E+01 -.260E+01 -.617E+01   0.113E+00 -.346E-02 0.271E-01   0.195E-03 0.115E-03 -.694E-04
   0.158E+02 0.105E+02 0.817E+01   -.169E+02 -.101E+02 -.811E+01   0.109E+01 -.380E+00 -.514E-01   0.513E-03 0.443E-03 -.760E-04
   0.195E+02 0.209E+01 0.890E+01   -.198E+02 -.146E+01 -.905E+01   0.291E+00 -.633E+00 0.156E+00   0.870E-03 0.396E-03 -.747E-04
   0.605E+00 0.233E+02 0.143E+02   -.237E+00 -.218E+02 -.149E+02   -.374E+00 -.146E+01 0.542E+00   0.615E-03 0.152E-02 -.725E-05
   -.533E+01 0.633E+01 0.933E+01   0.129E+02 0.395E+01 -.717E+01   -.760E+01 -.103E+02 -.214E+01   0.113E-02 0.145E-02 0.357E-03
   -.123E+02 0.200E+02 0.136E+02   0.132E+02 -.183E+02 -.139E+02   -.875E+00 -.163E+01 0.269E+00   -.399E-03 0.135E-02 -.157E-04
   -.321E+01 0.325E+02 0.338E+02   -.264E+01 -.283E+02 -.331E+02   0.590E+01 -.421E+01 -.715E+00   -.109E-02 0.141E-02 0.481E-03
   -.573E+01 0.109E+02 0.722E+01   0.567E+01 -.109E+02 -.720E+01   0.542E-01 0.792E-02 -.342E-01   -.531E-03 0.421E-03 -.736E-04
   -.144E+02 0.723E+01 0.731E+01   0.143E+02 -.710E+01 -.741E+01   0.178E+00 -.146E+00 0.963E-01   -.894E-03 0.384E-03 -.661E-04
   -.478E+00 0.433E+01 0.677E+01   0.406E+00 -.435E+01 -.676E+01   0.654E-01 0.283E-01 -.536E-02   -.149E-03 0.710E-04 -.607E-04
   -.334E+01 0.345E+01 0.703E+01   0.328E+01 -.350E+01 -.707E+01   0.636E-01 0.548E-01 0.401E-01   -.224E-03 0.134E-03 -.655E-04
   0.109E+01 0.107E-01 0.654E+01   -.120E+01 0.236E-01 -.654E+01   0.106E+00 -.192E-01 0.355E-02   0.381E-04 0.988E-04 -.622E-04
   -.234E+00 -.660E+00 0.755E+01   0.205E+00 0.656E+00 -.758E+01   0.300E-01 -.163E-01 0.408E-01   0.595E-04 0.178E-04 -.607E-04
   0.935E+01 -.129E+01 0.512E+01   -.966E+01 0.152E+01 -.509E+01   0.283E+00 -.204E+00 -.322E-01   0.510E-03 0.152E-03 -.896E-04
   0.680E+01 -.302E+01 0.275E+01   -.676E+01 0.315E+01 -.266E+01   -.260E-01 -.146E+00 -.887E-01   0.496E-03 -.324E-04 -.876E-04
   0.292E+02 -.185E+01 0.149E+02   -.291E+02 0.213E+01 -.157E+02   -.147E+00 -.289E+00 0.758E+00   0.140E-02 0.370E-03 0.150E-03
   0.283E+02 -.130E+02 0.140E+02   -.274E+02 0.140E+02 -.147E+02   -.822E+00 -.950E+00 0.748E+00   0.150E-02 -.237E-03 0.180E-03
   -.270E+02 0.973E+01 0.169E+02   0.263E+02 -.100E+02 -.174E+02   0.671E+00 0.290E+00 0.577E+00   -.158E-02 0.204E-03 0.179E-03
   -.266E+02 -.113E+02 0.124E+02   0.257E+02 0.118E+02 -.130E+02   0.893E+00 -.507E+00 0.652E+00   -.150E-02 -.359E-03 0.172E-03
   -.586E+01 0.160E+01 0.538E+01   0.581E+01 -.159E+01 -.534E+01   0.433E-01 0.949E-02 -.341E-01   -.551E-03 0.102E-03 -.826E-04
   -.661E+01 -.138E+01 0.540E+01   0.651E+01 0.137E+01 -.533E+01   0.744E-01 0.152E-01 -.589E-01   -.514E-03 -.786E-04 -.856E-04
   -.297E+01 -.360E+01 0.818E+01   0.293E+01 0.359E+01 -.823E+01   0.560E-01 0.116E-01 0.511E-01   -.167E-03 -.330E-04 -.682E-04
   -.161E+01 -.276E+01 0.692E+01   0.155E+01 0.276E+01 -.690E+01   0.546E-01 0.250E-01 -.254E-01   -.934E-04 -.522E-04 -.607E-04
   0.362E+01 -.403E+01 0.634E+01   -.364E+01 0.410E+01 -.638E+01   0.206E-01 -.707E-01 0.427E-01   0.198E-03 -.934E-04 -.653E-04
   0.146E+01 -.326E+01 0.583E+01   -.139E+01 0.330E+01 -.580E+01   -.798E-01 -.436E-01 -.204E-01   0.697E-04 -.126E-03 -.600E-04
   0.116E+02 -.873E+01 0.211E+01   -.114E+02 0.879E+01 -.215E+01   -.218E+00 -.487E-01 0.341E-01   0.837E-03 -.404E-03 -.734E-04
   0.525E+01 -.101E+02 0.546E+01   -.503E+01 0.102E+02 -.545E+01   -.205E+00 -.130E+00 -.265E-01   0.506E-03 -.419E-03 -.714E-04
   -.577E+01 -.394E+02 0.357E+02   0.119E+02 0.363E+02 -.352E+02   -.621E+01 0.317E+01 -.536E+00   0.109E-02 -.143E-02 0.509E-03
   0.771E+00 -.193E+02 0.145E+02   -.487E+00 0.185E+02 -.147E+02   -.309E+00 0.827E+00 0.187E+00   0.421E-03 -.126E-02 0.769E-05
   0.589E+01 -.364E+02 0.200E+02   -.120E+02 0.329E+02 -.189E+02   0.618E+01 0.352E+01 -.108E+01   -.112E-02 -.146E-02 0.418E-03
   -.532E+00 -.191E+02 0.114E+02   0.262E+00 0.181E+02 -.116E+02   0.271E+00 0.987E+00 0.203E+00   -.502E-03 -.124E-02 -.872E-05
   -.126E+02 -.703E+01 0.443E+01   0.124E+02 0.696E+01 -.454E+01   0.246E+00 0.642E-01 0.113E+00   -.798E-03 -.393E-03 -.596E-04
   -.507E+01 -.933E+01 0.693E+01   0.482E+01 0.934E+01 -.688E+01   0.268E+00 -.366E-01 -.429E-01   -.398E-03 -.404E-03 -.729E-04
   -.234E+01 -.164E+01 0.795E+01   0.224E+01 0.157E+01 -.797E+01   0.119E+00 0.600E-01 0.282E-01   -.132E-03 -.154E-03 -.691E-04
   -.178E+01 -.207E+01 0.807E+01   0.173E+01 0.197E+01 -.808E+01   0.610E-01 0.116E+00 0.160E-01   -.921E-04 -.449E-04 -.695E-04
   -.520E+00 -.149E+01 0.655E+01   0.542E+00 0.144E+01 -.658E+01   -.110E-01 0.422E-01 0.260E-01   -.296E-04 -.887E-04 -.532E-04
   -.106E+01 0.507E+00 0.604E+01   0.113E+01 -.577E+00 -.602E+01   -.916E-01 0.805E-01 -.245E-01   -.496E-05 0.267E-04 -.564E-04
   0.871E+00 -.333E+01 0.655E+01   -.785E+00 0.336E+01 -.658E+01   -.700E-01 -.177E-01 0.307E-01   0.195E-03 -.188E-03 -.671E-04
   0.153E+01 -.315E+01 0.737E+01   -.146E+01 0.312E+01 -.739E+01   -.731E-01 0.426E-01 0.178E-01   0.114E-03 -.847E-05 -.699E-04
   -.129E+01 -.818E+01 0.100E+02   0.175E+01 0.799E+01 -.101E+02   -.474E+00 0.201E+00 0.986E-01   0.454E-03 -.605E-03 -.775E-04
   0.247E+01 -.451E+01 0.825E+01   -.239E+01 0.437E+01 -.828E+01   -.898E-01 0.127E+00 0.263E-01   0.119E-03 -.341E-03 -.856E-04
   0.748E+00 -.923E+01 0.591E+01   -.707E+00 0.864E+01 -.554E+01   -.514E-01 0.626E+00 -.386E+00   -.271E-04 -.931E-03 -.750E-04
   0.357E+00 -.636E+01 0.673E+01   -.403E+00 0.596E+01 -.676E+01   0.477E-01 0.386E+00 0.182E-01   0.598E-05 -.634E-03 -.723E-04
   0.246E+01 -.709E+01 0.108E+02   -.295E+01 0.681E+01 -.109E+02   0.499E+00 0.301E+00 0.113E+00   -.452E-03 -.595E-03 -.802E-04
   -.147E+01 -.425E+01 0.884E+01   0.133E+01 0.402E+01 -.887E+01   0.147E+00 0.252E+00 0.341E-01   -.140E-03 -.272E-03 -.868E-04
   -.598E+01 -.190E+02 -.641E+03   0.694E+01 0.192E+02 0.623E+03   -.977E+00 -.163E+00 0.177E+02   0.307E-03 0.196E-04 -.286E-02
 -----------------------------------------------------------------------------------------------
   0.742E+00 -.601E-01 -.178E+02   0.117E-12 0.956E-12 -.227E-12   -.745E+00 0.544E-01 0.178E+02   0.344E-03 0.494E-03 -.460E-02
 
 
 POSITION                                       TOTAL-FORCE (eV/Angst)
 -----------------------------------------------------------------------------------
      0.00371      0.00113      7.46423         0.004387      0.002910     -0.003100
      0.00264      1.42518      7.46465        -0.006970     -0.015603     -0.006413
      2.48104      0.02856      7.46365         0.012964     -0.017633     -0.000795
      2.47918      1.44562      7.47528         0.019659     -0.030872      0.000989
      4.94754      0.03651      7.46544        -0.003913      0.008958     -0.000730
      4.94395      1.46141      7.47700         0.021486      0.003483      0.001123
     -0.00007     12.75324      7.46639        -0.003454      0.005057      0.006176
      7.42310      1.43616      7.46540        -0.027527     -0.006336      0.005731
      2.47758     12.73200      7.47399         0.018002      0.012981     -0.000649
      9.90356      1.41080      7.46239         0.006571     -0.001037      0.000919
      4.95166     12.73660      7.47549        -0.009399      0.002207     -0.000233
     12.37574      1.41372      7.46546         0.009398      0.009205     -0.000503
     13.61316      2.13388      7.46680        -0.018219      0.015031     -0.005503
     -1.23911      3.52597      7.47695        -0.006630     -0.022747     -0.011402
      1.24442      2.14930      7.47362        -0.008501      0.001943      0.000464
      1.24145      3.56440      7.49758         0.004262     -0.013585      0.007370
      3.70205      2.18229      7.49282        -0.001601      0.005318      0.002939
      3.69435      3.60435      7.53654        -0.012893     -0.021869     -0.001415
      6.18326      2.16207      7.47838        -0.001585     -0.006288     -0.005018
      6.17503      3.58405      7.50141        -0.001372     -0.008320     -0.011542
      8.66617      2.12839      7.46276        -0.000023      0.027061      0.006725
      8.66749      3.54632      7.47146        -0.013878     -0.005370      0.004039
     11.13938      2.12264      7.46340         0.004529      0.010999     -0.001829
     11.14031      3.54401      7.46534         0.030616     -0.007957     -0.003866
     12.37544      4.25770      7.47382         0.000508      0.000466     -0.009805
     -2.48380      5.65447      7.47932         0.014763     -0.025608     -0.008927
     -0.00447      4.24471      7.49725        -0.018489      0.018723      0.004182
     -0.03557      5.65952      7.51990        -0.001205     -0.008000      0.007311
      2.46133      4.29961      7.55643         0.002717     -0.007603      0.013393
      2.43481      5.68986      7.67369        -0.010846     -0.004721      0.016018
      4.92755      4.33663      7.54712        -0.003667     -0.011431     -0.001348
      4.98520      5.75085      7.62621         0.032004      0.002198     -0.007684
      7.43153      4.26125      7.49608        -0.001116      0.003783     -0.011506
      7.46289      5.67826      7.51796        -0.016536     -0.020132     -0.010628
      9.90681      4.25500      7.46844        -0.006706      0.003581      0.005433
      9.91592      5.67593      7.47495        -0.001803      0.006943      0.005487
     -3.70994      6.36744      7.47294        -0.004687      0.013963     -0.004800
     -3.70680      7.78959      7.47086         0.001666     -0.018670      0.002761
     -1.26031      6.36958      7.50187        -0.030833      0.020618      0.002368
     -1.25634      7.79093      7.50823         0.013564     -0.015238     -0.007542
      1.18971      6.34778      7.58034        -0.016010     -0.023823      0.012129
      1.20004      7.78697      7.57944         0.019631      0.012091      0.016291
      6.24722      6.38644      7.56813         0.016929      0.001074     -0.006960
      6.25107      7.81579      7.58037         0.006398     -0.008650      0.005552
      8.69399      6.39020      7.49690        -0.003730      0.019788      0.004781
      8.69749      7.80966      7.49781        -0.024630      0.001445      0.005191
     -4.93289      8.50250      7.47248         0.010111      0.006804      0.003689
     -4.93922      9.92487      7.46784        -0.008437      0.019216     -0.000512
     -2.47928      8.50472      7.47972         0.003877      0.002782      0.000699
     -2.47521      9.92722      7.47310        -0.001642     -0.002411      0.003398
     -0.02501      8.49911      7.53535        -0.020174      0.010504     -0.003601
     -0.00743      9.91884      7.50468         0.015793     -0.015052     -0.007284
      2.44623      8.44631      7.62202        -0.013468      0.013588     -0.002461
      2.48046      9.86230      7.54337        -0.012458     -0.005577     -0.005450
      4.99927      8.46039      7.65398         0.010559      0.010926      0.013584
      4.95880      9.87194      7.55360        -0.012582      0.012198      0.012786
      7.47014      8.52344      7.52648         0.010527     -0.010536      0.003856
      7.44604      9.93971      7.49818         0.013922     -0.013110      0.005279
     -6.17571     10.63325      7.47108         0.018396     -0.012514      0.004984
     -6.18075     12.05021      7.46248         0.010192      0.011238      0.002200
     -3.70826     10.63948      7.46475         0.010908     -0.004725     -0.004113
     -3.70921     12.06162      7.46401        -0.012962      0.011459     -0.005771
     -1.24171     10.63676      7.47755         0.016685      0.009160      0.005757
     -1.24171     12.05757      7.46630         0.000569      0.015617      0.004898
      1.24112     10.60354      7.50077        -0.015020      0.005001     -0.007188
      1.23820     12.02918      7.47652        -0.000583     -0.019191     -0.002233
      3.71807     10.59073      7.53646        -0.011144      0.021099     -0.010368
      3.71497     12.01059      7.49178         0.001583     -0.014128     -0.008030
      6.19597     10.61643      7.49907         0.007968      0.016070      0.006422
      6.19378     12.03972      7.47474        -0.002647      0.021533     -0.003474
      3.70922      7.08827      8.32905        -0.003808      0.001718     -0.022241
 -----------------------------------------------------------------------------------
    total drift:                               -0.002234     -0.005273      0.000272


--------------------------------------------------------------------------------------------------------



  FREE ENERGIE OF THE ION-ELECTRON SYSTEM (eV)
  ---------------------------------------------------
  free  energy   TOTEN  =      -653.77142384 eV

  energy  without entropy=     -653.74143454  energy(sigma->0) =     -653.75642919
 


--------------------------------------------------------------------------------------------------------


    POTLOK:  cpu time    0.4111: real time    0.4128


--------------------------------------------------------------------------------------------------------


 stress matrix after NEB project (eV)
     -1.54885      0.16973     -0.00313
      0.16973     -1.78038      0.00149
     -0.00313      0.00149     -3.51843
  FORCES: max atom, RMS     0.037167    0.020051
  FORCE total and by dimension    0.168955    0.032004
  Stress total and by dimension    4.243307    3.518427


--------------------------------------------------------------------------------------------------------


  
 reached required accuracy - stopping structural energy minimisation
     LOOP+:  cpu time  421.6195: real time  425.6490
    4ORBIT:  cpu time    0.0000: real time    0.0000

 total amount of memory used by VASP MPI-rank0   111505. kBytes
=======================================================================

   base      :      30000. kBytes
   nonlr-proj:       9914. kBytes
   fftplans  :      10852. kBytes
   grid      :      30996. kBytes
   one-center:        186. kBytes
   wavefun   :      29557. kBytes
 
  
  
 General timing and accounting informations for this job:
 ========================================================
  
                  Total CPU time used (sec):      431.236
                            User time (sec):      425.293
                          System time (sec):        5.943
                         Elapsed time (sec):      440.554
  
                   Maximum memory used (kb):      481760.
                   Average memory used (kb):           0.
  
                          Minor page faults:      1017817
                          Major page faults:            0
                 Voluntary context switches:         8864
