 running on   48 total cores
 distrk:  each k-point on   48 cores,    1 groups
 distr:  one band on   12 cores,    4 groups
 using from now: INCAR     
 vasp.5.4.4.18Apr17-6-g9f103f2a35 (build Jan 14 2022 15:04:31) complex          
  
 POSCAR found type information on POSCAR  C  N  C  Cr
 POSCAR found :  4 types and      71 ions
 scaLAPACK will be used
 LDA part: xc-table for Pade appr. of Perdew
 POSCAR found type information on POSCAR  C  N  C  Cr
 POSCAR found :  4 types and      71 ions
 POSCAR, INCAR and KPOINTS ok, starting setup
 FFT: planning ...
 WAVECAR not read
 entering main loop
       N       E                     dE             d eps       ncg     rms          rms(c)
DAV:   1     0.244802862626E+04    0.24480E+04   -0.10803E+05  3384   0.107E+03
DAV:   2    -0.235526628814E+03   -0.26836E+04   -0.25653E+04  4232   0.279E+02
DAV:   3    -0.687245354634E+03   -0.45172E+03   -0.44894E+03  3560   0.121E+02
DAV:   4    -0.703691506012E+03   -0.16446E+02   -0.16308E+02  3576   0.283E+01
DAV:   5    -0.704228050172E+03   -0.53654E+00   -0.53482E+00  4056   0.430E+00    0.468E+01
RMM:   6    -0.731969033853E+03   -0.27741E+02   -0.51957E+02  4110   0.391E+01    0.840E+01
RMM:   7    -0.662299470888E+03    0.69670E+02   -0.52652E+01  3010   0.137E+01    0.315E+01
RMM:   8    -0.662196123832E+03    0.10335E+00   -0.21006E+01  3115   0.720E+00    0.283E+01
RMM:   9    -0.647383561154E+03    0.14813E+02   -0.20845E+01  2973   0.853E+00    0.108E+01
RMM:  10    -0.647981551656E+03   -0.59799E+00   -0.24894E+00  3015   0.291E+00    0.138E+01
RMM:  11    -0.646880902510E+03    0.11006E+01   -0.35127E-01  3082   0.978E-01    0.689E+00
RMM:  12    -0.647030453903E+03   -0.14955E+00   -0.16801E-01  2944   0.911E-01    0.677E+00
RMM:  13    -0.647004699424E+03    0.25754E-01   -0.18943E-02  3005   0.389E-01    0.697E+00
RMM:  14    -0.647007454856E+03   -0.27554E-02   -0.45957E-02  3000   0.370E-01    0.596E+00
RMM:  15    -0.647092573547E+03   -0.85119E-01   -0.16880E-01  2996   0.499E-01    0.531E+00
RMM:  16    -0.647037607592E+03    0.54966E-01   -0.14154E-01  2994   0.552E-01    0.337E+00
RMM:  17    -0.647115937730E+03   -0.78330E-01   -0.55076E-02  2977   0.397E-01    0.225E+00
RMM:  18    -0.647228161871E+03   -0.11222E+00   -0.72046E-02  2950   0.391E-01    0.156E+00
RMM:  19    -0.647247107069E+03   -0.18945E-01   -0.71888E-02  2969   0.366E-01    0.117E+00
RMM:  20    -0.647292634638E+03   -0.45528E-01   -0.21921E-02  3048   0.186E-01    0.814E-01
RMM:  21    -0.647285282199E+03    0.73524E-02   -0.21746E-02  2955   0.226E-01    0.940E-01
RMM:  22    -0.647342984729E+03   -0.57703E-01   -0.17328E-02  3030   0.166E-01    0.575E-01
RMM:  23    -0.647348184404E+03   -0.51997E-02   -0.11158E-02  3000   0.124E-01    0.333E-01
RMM:  24    -0.647351482085E+03   -0.32977E-02   -0.38352E-03  3027   0.881E-02    0.207E-01
RMM:  25    -0.647352349603E+03   -0.86752E-03   -0.13316E-03  3037   0.526E-02    0.124E-01
RMM:  26    -0.647361025095E+03   -0.86755E-02   -0.12861E-03  2947   0.437E-02    0.148E-01
RMM:  27    -0.647364283314E+03   -0.32582E-02   -0.38971E-04  2366   0.266E-02    0.129E-01
RMM:  28    -0.647367207327E+03   -0.29240E-02   -0.24229E-04  2339   0.217E-02    0.837E-02
RMM:  29    -0.647369137124E+03   -0.19298E-02   -0.13812E-04  2234   0.145E-02    0.567E-02
RMM:  30    -0.647370188562E+03   -0.10514E-02   -0.78115E-05  2141   0.108E-02    0.448E-02
RMM:  31    -0.647370655168E+03   -0.46661E-03   -0.35490E-05  1941   0.712E-03    0.315E-02
RMM:  32    -0.647370961558E+03   -0.30639E-03   -0.41093E-05  2119   0.758E-03    0.170E-02
RMM:  33    -0.647371145234E+03   -0.18368E-03   -0.14338E-05  1502   0.466E-03    0.108E-02
RMM:  34    -0.647371236894E+03   -0.91660E-04   -0.85048E-06  1479   0.362E-03    0.654E-03
RMM:  35    -0.647371256157E+03   -0.19263E-04   -0.24879E-06  1177   0.238E-03    0.463E-03
RMM:  36    -0.647371263415E+03   -0.72584E-05   -0.11340E-06  1053   0.191E-03
   1 F= -.65377142E+03 E0= -.65375643E+03  d E =-.653771E+03  mag=     1.5865
 curvature:   0.00 expect dE= 0.000E+00 dE for cont linesearch  0.000E+00
 trial: gam= 0.00000 g(F)=  0.826E-03 g(S)=  0.000E+00 ort = 0.000E+00 (trialstep = 0.100E+01)
 search vector abs. value=  0.826E-03
 reached required accuracy - stopping structural energy minimisation
