 vasp.5.4.4.18Apr17-6-g9f103f2a35 (build Jan 14 2022 15:04:31) complex          
  
 executed on             LinuxIFC date 2023.01.27  22:54:35
 running on   48 total cores
 distrk:  each k-point on   48 cores,    1 groups
 distr:  one band on NCORES_PER_BAND=  12 cores,    4 groups


--------------------------------------------------------------------------------------------------------


 INCAR:
 POTCAR:    PAW_PBE C 08Apr2002                   
 POTCAR:    PAW_PBE N 08Apr2002                   
 POTCAR:    PAW_PBE C 08Apr2002                   
 POTCAR:    PAW_PBE Cr_pv 02Aug2007               
 POTCAR:    PAW_PBE C 08Apr2002                   
 POTCAR:    PAW_PBE O 08Apr2002                   
 POTCAR:    PAW_PBE C 08Apr2002                   
   SHA256 =  253f7b50bb8d59471dbedb8285d89021f4a42ed1a2c5d38a03a736e69125dd95 C/
   COPYR  = (c) Copyright 08Apr2002 Georg Kresse                                
   COPYR  = This file is part of the software VASP. Any use, copying, and all ot
   COPYR  = If you do not have a valid VASP license, you may not use, copy or di
   VRHFIN =C: s2p2                                                              
   LEXCH  = PE                                                                  
   EATOM  =   147.1560 eV,   10.8157 Ry                                         
                                                                                
   TITEL  = PAW_PBE C 08Apr2002                                                 
   LULTRA =        F    use ultrasoft PP ?                                      
   IUNSCR =        1    unscreen: 0-lin 1-nonlin 2-no                           
   RPACOR =    1.200    partial core radius                                     
   POMASS =   12.011; ZVAL   =    4.000    mass and valenz                      
   RCORE  =    1.500    outmost cutoff radius                                   
   RWIGS  =    1.630; RWIGS  =    0.863    wigner-seitz radius (au A)           
   ENMAX  =  400.000; ENMIN  =  300.000 eV                                      
   ICORE  =        2    local potential                                         
   LCOR   =        T    correct aug charges                                     
   LPAW   =        T    paw PP                                                  
   EAUG   =  644.873                                                            
   DEXC   =    0.000                                                            
   RMAX   =    1.529    core radius for proj-oper                               
   RAUG   =    1.300    factor for augmentation sphere                          
   RDEP   =    1.501    radius for radial grids                                 
   RDEPT  =    1.300    core radius for aug-charge                              
                                                                                
   Atomic configuration                                                         
    4 entries                                                                   
     n  l   j            E        occ.                                          
     1  0  0.50      -273.3789   2.0000                                         
     2  0  0.50       -13.7508   2.0000                                         
     2  1  0.50        -5.2854   2.0000                                         
     3  2  1.50        -5.4423   0.0000                                         
   Description                                                                  
     l       E           TYP  RCUT    TYP  RCUT                                 
     0    -13.7508458     23  1.200                                             
     0     -8.2022199     23  1.200                                             
     1     -5.2854383     23  1.500                                             
     1     34.0145650     23  1.500                                             
     2     -5.4423304      7  1.500                                             
  local pseudopotential read in
  partial core-charges read in
  partial kinetic energy density read in
  atomic valenz-charges read in
  non local Contribution for L=           0  read in
    real space projection operators read in
  non local Contribution for L=           0  read in
    real space projection operators read in
  non local Contribution for L=           1  read in
    real space projection operators read in
  non local Contribution for L=           1  read in
    real space projection operators read in
    PAW grid and wavefunctions read in
 
   number of l-projection  operators is LMAX  =           4
   number of lm-projection operators is LMMAX =           8
 
 POTCAR:    PAW_PBE N 08Apr2002                   
   SHA256 =  e053789ff3a61a86a1b75d8a110fcc91f86041011e7b0817c7c99e4e8a6349d7 N/
   COPYR  = (c) Copyright 08Apr2002 Georg Kresse                                
   COPYR  = This file is part of the software VASP. Any use, copying, and all ot
   COPYR  = If you do not have a valid VASP license, you may not use, copy or di
   VRHFIN =N: s2p3                                                              
   LEXCH  = PE                                                                  
   EATOM  =   264.5486 eV,   19.4438 Ry                                         
                                                                                
   TITEL  = PAW_PBE N 08Apr2002                                                 
   LULTRA =        F    use ultrasoft PP ?                                      
   IUNSCR =        1    unscreen: 0-lin 1-nonlin 2-no                           
   RPACOR =    1.200    partial core radius                                     
   POMASS =   14.001; ZVAL   =    5.000    mass and valenz                      
   RCORE  =    1.500    outmost cutoff radius                                   
   RWIGS  =    1.400; RWIGS  =    0.741    wigner-seitz radius (au A)           
   ENMAX  =  400.000; ENMIN  =  300.000 eV                                      
   ICORE  =        2    local potential                                         
   LCOR   =        T    correct aug charges                                     
   LPAW   =        T    paw PP                                                  
   EAUG   =  627.112                                                            
   DEXC   =    0.000                                                            
   RMAX   =    1.529    core radius for proj-oper                               
   RAUG   =    1.300    factor for augmentation sphere                          
   RDEP   =    1.514    radius for radial grids                                 
   RDEPT  =    1.338    core radius for aug-charge                              
                                                                                
   Atomic configuration                                                         
    4 entries                                                                   
     n  l   j            E        occ.                                          
     1  0  0.50      -384.7179   2.0000                                         
     2  0  0.50       -18.5828   2.0000                                         
     2  1  0.50        -7.0898   3.0000                                         
     3  2  1.50        -6.8029   0.0000                                         
   Description                                                                  
     l       E           TYP  RCUT    TYP  RCUT                                 
     0    -18.5828119     23  1.200                                             
     0    -13.5018863     23  1.200                                             
     1     -7.0897853     23  1.500                                             
     1      9.5240782     23  1.500                                             
     2     -6.8029130      7  1.500                                             
  local pseudopotential read in
  partial core-charges read in
  partial kinetic energy density read in
  atomic valenz-charges read in
  non local Contribution for L=           0  read in
    real space projection operators read in
  non local Contribution for L=           0  read in
    real space projection operators read in
  non local Contribution for L=           1  read in
    real space projection operators read in
  non local Contribution for L=           1  read in
    real space projection operators read in
    PAW grid and wavefunctions read in
 
   number of l-projection  operators is LMAX  =           4
   number of lm-projection operators is LMMAX =           8
 
 POTCAR:    PAW_PBE C 08Apr2002                   
   SHA256 =  253f7b50bb8d59471dbedb8285d89021f4a42ed1a2c5d38a03a736e69125dd95 C/
   COPYR  = (c) Copyright 08Apr2002 Georg Kresse                                
   COPYR  = This file is part of the software VASP. Any use, copying, and all ot
   COPYR  = If you do not have a valid VASP license, you may not use, copy or di
   VRHFIN =C: s2p2                                                              
   LEXCH  = PE                                                                  
   EATOM  =   147.1560 eV,   10.8157 Ry                                         
                                                                                
   TITEL  = PAW_PBE C 08Apr2002                                                 
   LULTRA =        F    use ultrasoft PP ?                                      
   IUNSCR =        1    unscreen: 0-lin 1-nonlin 2-no                           
   RPACOR =    1.200    partial core radius                                     
   POMASS =   12.011; ZVAL   =    4.000    mass and valenz                      
   RCORE  =    1.500    outmost cutoff radius                                   
   RWIGS  =    1.630; RWIGS  =    0.863    wigner-seitz radius (au A)           
   ENMAX  =  400.000; ENMIN  =  300.000 eV                                      
   ICORE  =        2    local potential                                         
   LCOR   =        T    correct aug charges                                     
   LPAW   =        T    paw PP                                                  
   EAUG   =  644.873                                                            
   DEXC   =    0.000                                                            
   RMAX   =    1.529    core radius for proj-oper                               
   RAUG   =    1.300    factor for augmentation sphere                          
   RDEP   =    1.501    radius for radial grids                                 
   RDEPT  =    1.300    core radius for aug-charge                              
                                                                                
   Atomic configuration                                                         
    4 entries                                                                   
     n  l   j            E        occ.                                          
     1  0  0.50      -273.3789   2.0000                                         
     2  0  0.50       -13.7508   2.0000                                         
     2  1  0.50        -5.2854   2.0000                                         
     3  2  1.50        -5.4423   0.0000                                         
   Description                                                                  
     l       E           TYP  RCUT    TYP  RCUT                                 
     0    -13.7508458     23  1.200                                             
     0     -8.2022199     23  1.200                                             
     1     -5.2854383     23  1.500                                             
     1     34.0145650     23  1.500                                             
     2     -5.4423304      7  1.500                                             
  local pseudopotential read in
  partial core-charges read in
  partial kinetic energy density read in
  atomic valenz-charges read in
  non local Contribution for L=           0  read in
    real space projection operators read in
  non local Contribution for L=           0  read in
    real space projection operators read in
  non local Contribution for L=           1  read in
    real space projection operators read in
  non local Contribution for L=           1  read in
    real space projection operators read in
    PAW grid and wavefunctions read in
 
   number of l-projection  operators is LMAX  =           4
   number of lm-projection operators is LMMAX =           8
 
 POTCAR:    PAW_PBE Cr_pv 02Aug2007               
   SHA256 =  c9a7df34d3cdbacf1090e328ef39c0b420964e11c23f63548d1ac9dd218cdba0 Cr
   COPYR  = (c) Copyright 02Aug2007 Georg Kresse                                
   COPYR  = This file is part of the software VASP. Any use, copying, and all ot
   COPYR  = If you do not have a valid VASP license, you may not use, copy or di
   VRHFIN =Cr : p6d5s1                                                          
   LEXCH  = PE                                                                  
   EATOM  =  1647.9177 eV,  121.1185 Ry                                         
                                                                                
   TITEL  = PAW_PBE Cr_pv 02Aug2007                                             
   LULTRA =        F    use ultrasoft PP ?                                      
   IUNSCR =        1    unscreen: 0-lin 1-nonlin 2-no                           
   RPACOR =    2.080    partial core radius                                     
   POMASS =   51.996; ZVAL   =   12.000    mass and valenz                      
   RCORE  =    2.300    outmost cutoff radius                                   
   RWIGS  =    2.500; RWIGS  =    1.323    wigner-seitz radius (au A)           
   ENMAX  =  265.681; ENMIN  =  199.261 eV                                      
   ICORE  =        3    local potential                                         
   LCOR   =        T    correct aug charges                                     
   LPAW   =        T    paw PP                                                  
   EAUG   =  519.424                                                            
   DEXC   =    0.000                                                            
   RMAX   =    2.356    core radius for proj-oper                               
   RAUG   =    1.300    factor for augmentation sphere                          
   RDEP   =    2.447    radius for radial grids                                 
   RDEPT  =    1.882    core radius for aug-charge                              
                                                                                
   Atomic configuration                                                         
    8 entries                                                                   
     n  l   j            E        occ.                                          
     1  0  0.50     -5880.4963   2.0000                                         
     2  0  0.50      -667.0865   2.0000                                         
     2  1  1.50      -560.6250   6.0000                                         
     3  0  0.50       -73.9860   2.0000                                         
     3  1  1.50       -45.4378   6.0000                                         
     3  2  2.50        -2.9137   5.0000                                         
     4  0  0.50        -4.0071   1.0000                                         
     4  3  2.50        -1.3606   0.0000                                         
   Description                                                                  
     l       E           TYP  RCUT    TYP  RCUT                                 
     1    -45.4377911     23  2.000                                             
     1      1.3605826     23  2.000                                             
     2     -2.9136672     23  2.300                                             
     2     -4.2742498     23  2.300                                             
     0     -4.0071320     23  2.300                                             
     0      9.4498803     23  2.300                                             
     3      2.7211652     23  2.300                                             
  local pseudopotential read in
  partial core-charges read in
  partial kinetic energy density read in
  atomic valenz-charges read in
  non local Contribution for L=           1  read in
    real space projection operators read in
  non local Contribution for L=           1  read in
    real space projection operators read in
  non local Contribution for L=           2  read in
    real space projection operators read in
  non local Contribution for L=           2  read in
    real space projection operators read in
  non local Contribution for L=           0  read in
    real space projection operators read in
  non local Contribution for L=           0  read in
    real space projection operators read in
    PAW grid and wavefunctions read in
 
   number of l-projection  operators is LMAX  =           6
   number of lm-projection operators is LMMAX =          18
 
 POTCAR:    PAW_PBE C 08Apr2002                   
   SHA256 =  253f7b50bb8d59471dbedb8285d89021f4a42ed1a2c5d38a03a736e69125dd95 C/
   COPYR  = (c) Copyright 08Apr2002 Georg Kresse                                
   COPYR  = This file is part of the software VASP. Any use, copying, and all ot
   COPYR  = If you do not have a valid VASP license, you may not use, copy or di
   VRHFIN =C: s2p2                                                              
   LEXCH  = PE                                                                  
   EATOM  =   147.1560 eV,   10.8157 Ry                                         
                                                                                
   TITEL  = PAW_PBE C 08Apr2002                                                 
   LULTRA =        F    use ultrasoft PP ?                                      
   IUNSCR =        1    unscreen: 0-lin 1-nonlin 2-no                           
   RPACOR =    1.200    partial core radius                                     
   POMASS =   12.011; ZVAL   =    4.000    mass and valenz                      
   RCORE  =    1.500    outmost cutoff radius                                   
   RWIGS  =    1.630; RWIGS  =    0.863    wigner-seitz radius (au A)           
   ENMAX  =  400.000; ENMIN  =  300.000 eV                                      
   ICORE  =        2    local potential                                         
   LCOR   =        T    correct aug charges                                     
   LPAW   =        T    paw PP                                                  
   EAUG   =  644.873                                                            
   DEXC   =    0.000                                                            
   RMAX   =    1.529    core radius for proj-oper                               
   RAUG   =    1.300    factor for augmentation sphere                          
   RDEP   =    1.501    radius for radial grids                                 
   RDEPT  =    1.300    core radius for aug-charge                              
                                                                                
   Atomic configuration                                                         
    4 entries                                                                   
     n  l   j            E        occ.                                          
     1  0  0.50      -273.3789   2.0000                                         
     2  0  0.50       -13.7508   2.0000                                         
     2  1  0.50        -5.2854   2.0000                                         
     3  2  1.50        -5.4423   0.0000                                         
   Description                                                                  
     l       E           TYP  RCUT    TYP  RCUT                                 
     0    -13.7508458     23  1.200                                             
     0     -8.2022199     23  1.200                                             
     1     -5.2854383     23  1.500                                             
     1     34.0145650     23  1.500                                             
     2     -5.4423304      7  1.500                                             
  local pseudopotential read in
  partial core-charges read in
  partial kinetic energy density read in
  atomic valenz-charges read in
  non local Contribution for L=           0  read in
    real space projection operators read in
  non local Contribution for L=           0  read in
    real space projection operators read in
  non local Contribution for L=           1  read in
    real space projection operators read in
  non local Contribution for L=           1  read in
    real space projection operators read in
    PAW grid and wavefunctions read in
 
   number of l-projection  operators is LMAX  =           4
   number of lm-projection operators is LMMAX =           8
 
 POTCAR:    PAW_PBE O 08Apr2002                   
   SHA256 =  818f92134a0a090dccd8ba1447fa70422a3b330e708bb4f08108d8ae51209ddf O/
   COPYR  = (c) Copyright 08Apr2002 Georg Kresse                                
   COPYR  = This file is part of the software VASP. Any use, copying, and all ot
   COPYR  = If you do not have a valid VASP license, you may not use, copy or di
   VRHFIN =O: s2p4                                                              
   LEXCH  = PE                                                                  
   EATOM  =   432.3788 eV,   31.7789 Ry                                         
                                                                                
   TITEL  = PAW_PBE O 08Apr2002                                                 
   LULTRA =        F    use ultrasoft PP ?                                      
   IUNSCR =        1    unscreen: 0-lin 1-nonlin 2-no                           
   RPACOR =    1.200    partial core radius                                     
   POMASS =   16.000; ZVAL   =    6.000    mass and valenz                      
   RCORE  =    1.520    outmost cutoff radius                                   
   RWIGS  =    1.550; RWIGS  =    0.820    wigner-seitz radius (au A)           
   ENMAX  =  400.000; ENMIN  =  300.000 eV                                      
   ICORE  =        2    local potential                                         
   LCOR   =        T    correct aug charges                                     
   LPAW   =        T    paw PP                                                  
   EAUG   =  605.392                                                            
   DEXC   =    0.000                                                            
   RMAX   =    1.553    core radius for proj-oper                               
   RAUG   =    1.300    factor for augmentation sphere                          
   RDEP   =    1.550    radius for radial grids                                 
   RDEPT  =    1.329    core radius for aug-charge                              
                                                                                
   Atomic configuration                                                         
    4 entries                                                                   
     n  l   j            E        occ.                                          
     1  0  0.50      -514.6923   2.0000                                         
     2  0  0.50       -23.9615   2.0000                                         
     2  1  0.50        -9.0305   4.0000                                         
     3  2  1.50        -9.5241   0.0000                                         
   Description                                                                  
     l       E           TYP  RCUT    TYP  RCUT                                 
     0    -23.9615318     23  1.200                                             
     0     -9.5240782     23  1.200                                             
     1     -9.0304911     23  1.520                                             
     1      8.1634956     23  1.520                                             
     2     -9.5240782      7  1.500                                             
  local pseudopotential read in
  partial core-charges read in
  partial kinetic energy density read in
  kinetic energy density of atom read in
  atomic valenz-charges read in
  non local Contribution for L=           0  read in
    real space projection operators read in
  non local Contribution for L=           0  read in
    real space projection operators read in
  non local Contribution for L=           1  read in
    real space projection operators read in
  non local Contribution for L=           1  read in
    real space projection operators read in
    PAW grid and wavefunctions read in
 
   number of l-projection  operators is LMAX  =           4
   number of lm-projection operators is LMMAX =           8
 

 ----------------------------------------------------------------------------- 
|                                                                             |
|  ADVICE TO THIS USER RUNNING 'VASP/VAMP'   (HEAR YOUR MASTER'S VOICE ...):  |
|                                                                             |
|      You have a (more or less) 'large supercell' and for larger cells       |
|      it might be more efficient to use real space projection opertators     |
|      So try LREAL= Auto  in the INCAR   file.                               |
|      Mind:          For very  accurate calculation you might also keep the  |
|      reciprocal projection scheme          (i.e. LREAL=.FALSE.)             |
|                                                                             |
 ----------------------------------------------------------------------------- 

  PAW_PBE C 08Apr2002                   :
 energy of atom  1       EATOM= -147.1560
 kinetic energy error for atom=    0.0132 (will be added to EATOM!!)
  PAW_PBE N 08Apr2002                   :
 energy of atom  2       EATOM= -264.5486
 kinetic energy error for atom=    0.0298 (will be added to EATOM!!)
  PAW_PBE C 08Apr2002                   :
 energy of atom  3       EATOM= -147.1560
 kinetic energy error for atom=    0.0132 (will be added to EATOM!!)
  PAW_PBE Cr_pv 02Aug2007               :
 energy of atom  4       EATOM=-1647.9177
 kinetic energy error for atom=    0.0134 (will be added to EATOM!!)
  PAW_PBE C 08Apr2002                   :
 energy of atom  5       EATOM= -147.1560
 kinetic energy error for atom=    0.0132 (will be added to EATOM!!)
  PAW_PBE O 08Apr2002                   :
 energy of atom  6       EATOM= -432.3788
 kinetic energy error for atom=    0.0458 (will be added to EATOM!!)
 
 
 POSCAR: POSCAR-clean                            
  positions in cartesian coordinates
  No initial velocities read in
 exchange correlation table for  LEXCH =        8
   RHO(1)=    0.500       N(1)  =     2000
   RHO(2)=  100.500       N(2)  =     4000

 VTST: version 3.2, (02/03/18)

 CHAIN: initializing optimizer
 
 OPT: Using VASP Dynamics algorithm
 CHAIN: Read ICHAIN            0
 
 POSCAR: POSCAR-clean                            
  positions in cartesian coordinates
  No initial velocities read in
 


--------------------------------------------------------------------------------------------------------


 ion  position               nearest neighbor table
   1  0.000  1.000  0.484-   2 1.42  60 1.42  70 1.43
   2  0.056  0.111  0.484-   1 1.42  13 1.43  15 1.43
   3  0.168  0.002  0.483-   4 1.42  60 1.43  62 1.43
   4  0.224  0.113  0.484-   3 1.42  15 1.43  17 1.43
   5  0.334  0.002  0.484-  62 1.42   6 1.42  64 1.42
   6  0.390  0.113  0.484-  19 1.42   5 1.42  17 1.43
   7  0.500  0.999  0.484-   8 1.42  64 1.43  66 1.43
   8  0.556  0.111  0.484-   7 1.42  21 1.43  19 1.43
   9  0.666  0.998  0.484-  10 1.42  66 1.42  68 1.44
  10  0.721  0.109  0.483-   9 1.42  23 1.43  21 1.43
  11  0.832  0.998  0.484-  12 1.42  70 1.42  68 1.44
  12  0.888  0.109  0.484-  11 1.42  23 1.43  13 1.43
  13  0.999  0.166  0.484-  14 1.42   2 1.43  12 1.43
  14  0.055  0.277  0.484-  13 1.42  27 1.42  25 1.42
  15  0.167  0.168  0.484-   4 1.43  16 1.43   2 1.43
  16  0.223  0.280  0.486-  27 1.43  15 1.43  29 1.44
  17  0.335  0.170  0.485-  18 1.42   4 1.43   6 1.43
  18  0.391  0.281  0.488-  17 1.42  31 1.44  29 1.44
  19  0.501  0.168  0.484-   6 1.42  20 1.42   8 1.43
  20  0.557  0.280  0.486-  19 1.42  33 1.43  31 1.44
  21  0.667  0.165  0.483-  22 1.42   8 1.43  10 1.43
  22  0.723  0.277  0.484-  21 1.42  35 1.42  33 1.43
  23  0.833  0.165  0.484-  24 1.42  10 1.43  12 1.43
  24  0.888  0.276  0.484-  23 1.42  35 1.42  25 1.42
  25  0.999  0.332  0.484-  26 1.42  24 1.42  14 1.42
  26  0.054  0.444  0.485-  39 1.41  37 1.42  25 1.42
  27  0.165  0.333  0.486-  28 1.42  14 1.42  16 1.43
  28  0.219  0.445  0.488-  41 1.41  27 1.42  39 1.43
  29  0.335  0.338  0.489-  30 1.42  18 1.44  16 1.44
  30  0.388  0.449  0.496-  41 1.41  29 1.42  71 2.00
  31  0.503  0.338  0.489-  32 1.42  18 1.44  20 1.44
  32  0.561  0.449  0.496-  43 1.41  31 1.42  71 1.99
  33  0.668  0.333  0.486-  34 1.42  20 1.43  22 1.43
  34  0.725  0.444  0.487-  43 1.41  33 1.42  45 1.42
  35  0.834  0.333  0.484-  24 1.42  22 1.42  36 1.43
  36  0.890  0.445  0.484-  45 1.41  37 1.42  35 1.43
  37  0.001  0.501  0.484-  26 1.42  38 1.42  36 1.42
  38  0.057  0.612  0.484-  49 1.40  47 1.42  37 1.42
  39  0.164  0.501  0.486-  26 1.41  40 1.42  28 1.43
  40  0.220  0.612  0.486-  49 1.40  39 1.42  51 1.42
  41  0.329  0.499  0.491-  28 1.41  30 1.41  42 1.43
  42  0.384  0.612  0.491-  53 1.41  51 1.41  41 1.43
  43  0.671  0.499  0.491-  32 1.41  34 1.41  44 1.44
  44  0.727  0.612  0.491-  55 1.41  57 1.41  43 1.44
  45  0.836  0.500  0.486-  36 1.41  46 1.42  34 1.42
  46  0.892  0.611  0.486-  47 1.42  45 1.42  57 1.42
  47  0.002  0.668  0.484-  38 1.42  46 1.42  48 1.42
  48  0.057  0.779  0.484-  59 1.42  61 1.42  47 1.42
  49  0.166  0.667  0.485-  40 1.40  38 1.40  50 1.41
  50  0.222  0.778  0.484-  49 1.41  63 1.42  61 1.42
  51  0.330  0.668  0.488-  42 1.41  52 1.41  40 1.42
  52  0.388  0.778  0.486-  51 1.41  65 1.42  63 1.42
  53  0.494  0.662  0.495-  42 1.41  54 1.41  71 2.00
  54  0.553  0.773  0.489-  53 1.41  67 1.44  65 1.44
  55  0.668  0.663  0.496-  44 1.41  56 1.42  71 2.00
  56  0.720  0.773  0.489-  55 1.42  67 1.44  69 1.44
  57  0.837  0.667  0.487-  44 1.41  58 1.42  46 1.42
  58  0.890  0.778  0.486-  57 1.42  69 1.42  59 1.43
  59  0.002  0.834  0.484-  48 1.42  60 1.42  58 1.43
  60  0.057  0.946  0.483-  59 1.42   1 1.42   3 1.43
  61  0.167  0.834  0.484-  48 1.42  50 1.42  62 1.43
  62  0.223  0.946  0.484-   5 1.42  61 1.43   3 1.43
  63  0.332  0.833  0.484-  50 1.42  64 1.42  52 1.42
  64  0.388  0.945  0.484-  63 1.42   5 1.42   7 1.43
  65  0.499  0.831  0.486-  52 1.42  66 1.43  54 1.44
  66  0.555  0.943  0.484-   9 1.42  65 1.43   7 1.43
  67  0.665  0.830  0.488-  68 1.42  56 1.44  54 1.44
  68  0.721  0.941  0.485-  67 1.42  11 1.44   9 1.44
  69  0.833  0.831  0.486-  70 1.42  58 1.42  56 1.44
  70  0.889  0.943  0.484-  69 1.42  11 1.42   1 1.43
  71  0.528  0.556  0.541-  32 1.99  55 2.00  30 2.00  53 2.00
  72  0.528  0.556  0.939-  73 1.16
  73  0.478  0.499  0.996-  72 1.16
 

IMPORTANT INFORMATION: All symmetrisations will be switched off!
NOSYMM: (Re-)initialisation of all symmetry stuff for point group C_1.

 
 
 KPOINTS: K-Points                                

Automatic generation of k-mesh.
Space group operators:
 irot       det(A)        alpha          n_x          n_y          n_z        tau_x        tau_y        tau_z
    1     1.000000     0.000000     1.000000     0.000000     0.000000     0.000000     0.000000     0.000000
 
 Subroutine IBZKPT returns following result:
 ===========================================
 
 Found      5 irreducible k-points:
 
 Following reciprocal coordinates:
            Coordinates               Weight
  0.000000  0.000000  0.000000      1.000000
  0.333333 -0.000000  0.000000      2.000000
  0.000000  0.333333  0.000000      2.000000
  0.333333  0.333333  0.000000      2.000000
 -0.333333  0.333333  0.000000      2.000000
 
 Following cartesian coordinates:
            Coordinates               Weight
  0.000000  0.000000  0.000000      1.000000
  0.022433  0.013069  0.000000      2.000000
  0.000006  0.026138  0.000000      2.000000
  0.022438  0.039207  0.000000      2.000000
 -0.022427  0.013069  0.000000      2.000000
 
 TETIRR: Found     24 inequivalent tetrahedra from       54


--------------------------------------------------------------------------------------------------------




 Dimension of arrays:
   k-points           NKPTS =      5   k-points in BZ     NKDIM =      5   number of bands    NBANDS=    192
   number of dos      NEDOS =   4000   number of ions     NIONS =     73
   non local maximal  LDIM  =      6   non local SUM 2l+1 LMDIM =     18
   total plane-waves  NPLWV = 512000
   max r-space proj   IRMAX =      1   max aug-charges    IRDMAX=   6466
   dimension x,y,z NGX =    80 NGY =   80 NGZ =   80
   dimension x,y,z NGXF=   160 NGYF=  160 NGZF=  160
   support grid    NGXF=   160 NGYF=  160 NGZF=  160
   ions per type =              48   1  21   1   1   1
   NGX,Y,Z   is equivalent  to a cutoff of   8.95,  9.01,  8.87 a.u.
   NGXF,Y,Z  is equivalent  to a cutoff of  17.90, 18.02, 17.73 a.u.

 SYSTEM =  unknown system                          
 POSCAR =  POSCAR-clean                            

 Startparameter for this run:
   NWRITE =      2    write-flag & timer
   PREC   = normal    normal or accurate (medium, high low for compatibility)
   ISTART =      0    job   : 0-new  1-cont  2-samecut
   ICHARG =      2    charge: 1-file 2-atom 10-const
   ISPIN  =      2    spin polarized calculation?
   LNONCOLLINEAR =      F non collinear calculations
   LSORBIT =      F    spin-orbit coupling
   INIWAV =      1    electr: 0-lowe 1-rand  2-diag
   LASPH  =      F    aspherical Exc in radial PAW
   METAGGA=      F    non-selfconsistent MetaGGA calc.

 Electronic Relaxation 1
   ENCUT  =  440.0 eV  32.34 Ry    5.69 a.u.  25.42 25.25 25.66*2*pi/ulx,y,z
   ENINI  =  440.0     initial cutoff
   ENAUG  =  644.9 eV  augmentation charge cutoff
   NELM   =    100;   NELMIN=  2; NELMDL= -5     # of ELM steps 
   EDIFF  = 0.1E-03   stopping-criterion for ELM
   LREAL  =      F    real-space projection
   NLSPLINE    = F    spline interpolate recip. space projectors
   LCOMPAT=      F    compatible to vasp.4.4
   GGA_COMPAT  = T    GGA compatible to vasp.4.4-vasp.4.6
   LMAXPAW     = -100 max onsite density
   LMAXMIX     =    2 max onsite mixed and CHGCAR
   VOSKOWN=      0    Vosko Wilk Nusair interpolation
   ROPT   =    0.00000   0.00000   0.00000   0.00000
   ROPT   =    0.00000   0.00000
 Ionic relaxation
   EDIFFG = -.1E-01   stopping-criterion for IOM
   NSW    =      0    number of steps for IOM
   NBLOCK =      1;   KBLOCK =      1    inner block; outer block 
   IBRION =     -1    ionic relax: 0-MD 1-quasi-New 2-CG
   NFREE  =      0    steps in history (QN), initial steepest desc. (CG)
   ISIF   =      2    stress and relaxation
   IWAVPR =     10    prediction:  0-non 1-charg 2-wave 3-comb
   ISYM   =      0    0-nonsym 1-usesym 2-fastsym
   LCORR  =      T    Harris-Foulkes like correction to forces

   POTIM  = 0.5000    time-step for ionic-motion
   TEIN   =    0.0    initial temperature
   TEBEG  =    0.0;   TEEND  =   0.0 temperature during run
   SMASS  =  -3.00    Nose mass-parameter (am)
   estimated Nose-frequenzy (Omega)   =  0.10E-29 period in steps =****** mass=  -0.505E-26a.u.
   SCALEE = 1.0000    scale energy and forces
   NPACO  =    256;   APACO  = 16.0  distance and # of slots for P.C.
   PSTRESS=    0.0 pullay stress

  Mass of Ions in am
   POMASS =  12.01 14.00 12.01 52.00 12.01 16.00
  Ionic Valenz
   ZVAL   =   4.00  5.00  4.00 12.00  4.00  6.00
  Atomic Wigner-Seitz radii
   RWIGS  =  -1.00 -1.00 -1.00 -1.00 -1.00 -1.00
  virtual crystal weights 
   VCA    =   1.00  1.00  1.00  1.00  1.00  1.00
   NELECT =     303.0000    total number of electrons
   NUPDOWN=      -1.0000    fix difference up-down

 DOS related values:
   EMIN   = -14.00;   EMAX   =  6.00  energy-range for DOS
   EFERMI =   0.00
   ISMEAR =    -5;   SIGMA  =   0.20  broadening in eV -4-tet -1-fermi 0-gaus

 Electronic relaxation 2 (details)
   IALGO  =     38    algorithm
   LDIAG  =      T    sub-space diagonalisation (order eigenvalues)
   LSUBROT=      F    optimize rotation matrix (better conditioning)
   TURBO    =      0    0=normal 1=particle mesh
   IRESTART =      0    0=no restart 2=restart with 2 vectors
   NREBOOT  =      0    no. of reboots
   NMIN     =      0    reboot dimension
   EREF     =   0.00    reference energy to select bands
   IMIX   =      4    mixing-type and parameters
     AMIX     =   0.25;   BMIX     =  0.00
     AMIX_MAG =   1.00;   BMIX_MAG =  0.00
     AMIN     =   0.10
     WC   =   100.;   INIMIX=   1;  MIXPRE=   1;  MAXMIX= -45

 Intra band minimization:
   WEIMIN = 0.0000     energy-eigenvalue tresh-hold
   EBREAK =  0.13E-06  absolut break condition
   DEPER  =   0.30     relativ break condition  

   TIME   =   0.40     timestep for ELM

  volume/ion in A,a.u.               =      38.94       262.80
  Fermi-wavevector in a.u.,A,eV,Ry     =   0.776199  1.466804  8.197308  0.602485
  Thomas-Fermi vector in A             =   1.878627
 
 Write flags
   LWAVE        =      F    write WAVECAR
   LDOWNSAMPLE  =      F    k-point downsampling of WAVECAR
   LCHARG       =      F    write CHGCAR
   LVTOT        =      F    write LOCPOT, total local potential
   LVHAR        =      F    write LOCPOT, Hartree potential only
   LELF         =      F    write electronic localiz. function (ELF)
   LORBIT       =     11    0 simple, 1 ext, 2 COOP (PROOUT), +10 PAW based schemes


 Dipole corrections
   LMONO  =      F    monopole corrections only (constant potential shift)
   LDIPOL =      F    correct potential (dipole corrections)
   IDIPOL =      0    1-x, 2-y, 3-z, 4-all directions 
   EPSILON=  1.0000000 bulk dielectric constant

 Exchange correlation treatment:
   GGA     =    --    GGA type
   LEXCH   =     8    internal setting for exchange type
   VOSKOWN=      0    Vosko Wilk Nusair interpolation
   LHFCALC =     F    Hartree Fock is set to
   LHFONE  =     F    Hartree Fock one center treatment
   AEXX    =    0.0000 exact exchange contribution

 Linear response parameters
   LEPSILON=     F    determine dielectric tensor
   LRPA    =     F    only Hartree local field effects (RPA)
   LNABLA  =     F    use nabla operator in PAW spheres
   LVEL    =     F    velocity operator in full k-point grid
   LINTERFAST=   F  fast interpolation
   KINTER  =     0    interpolate to denser k-point grid
   CSHIFT  =0.1000    complex shift for real part using Kramers Kronig
   OMEGAMAX=  -1.0    maximum frequency
   DEG_THRESHOLD= 0.2000000E-02 threshold for treating states as degnerate
   RTIME   =   -0.100 relaxation time in fs
  (WPLASMAI=    0.000 imaginary part of plasma frequency in eV, 0.658/RTIME)
   DFIELD  = 0.0000000 0.0000000 0.0000000 field for delta impulse in time
 
 Orbital magnetization related:
   ORBITALMAG=     F  switch on orbital magnetization
   LCHIMAG   =     F  perturbation theory with respect to B field
   DQ        =  0.001000  dq finite difference perturbation B field
   LLRAUG    =     F  two centre corrections for induced B field



--------------------------------------------------------------------------------------------------------


 Static calculation
 charge density and potential will be updated during run
 spin polarized calculation
 Variant of blocked Davidson
 Davidson routine will perform the subspace rotation
 perform sub-space diagonalisation
    after iterative eigenvector-optimisation
 modified Broyden-mixing scheme, WC =      100.0
 initial mixing is a Kerker type mixing with AMIX =  0.2500 and BMIX =      0.0001
 Hartree-type preconditioning will be used
 using additional bands           40
 reciprocal scheme for non local part
 use partial core corrections
 calculate Harris-corrections to forces 
   (improved forces if not selfconsistent)
 use gradient corrections 
 use of overlap-Matrix (Vanderbilt PP)
 Fermi weights with tetrahedron method with Bloechl corrections


--------------------------------------------------------------------------------------------------------


  energy-cutoff  :      440.00
  volume of cell :     2842.81
      direct lattice vectors                 reciprocal lattice vectors
    14.861163841 -0.003273593  0.000000000     0.067298117  0.039207262  0.000000000
    -7.430581921 12.754376365  0.000000000     0.000017273  0.078414524  0.000000000
     0.000000000  0.000000000 15.000000000     0.000000000  0.000000000  0.066666667

  length of vectors
    14.861164202 14.761018398 15.000000000     0.077886109  0.078414526  0.066666667


 
 k-points in units of 2pi/SCALE and weight: K-Points                                
   0.00000000  0.00000000  0.00000000       0.111
   0.02243271  0.01306909  0.00000000       0.222
   0.00000576  0.02613817  0.00000000       0.222
   0.02243846  0.03920726  0.00000000       0.222
  -0.02242695  0.01306909  0.00000000       0.222
 
 k-points in reciprocal lattice and weights: K-Points                                
   0.00000000  0.00000000  0.00000000       0.111
   0.33333333 -0.00000000  0.00000000       0.222
   0.00000000  0.33333333  0.00000000       0.222
   0.33333333  0.33333333  0.00000000       0.222
  -0.33333333  0.33333333  0.00000000       0.222
 
 position of ions in fractional coordinates (direct lattice) 
   0.00020348  0.99988595  0.48359732
   0.05592852  0.11141656  0.48366862
   0.16799075  0.00162876  0.48349730
   0.22356476  0.11320112  0.48421124
   0.33411718  0.00164312  0.48369995
   0.39003255  0.11326356  0.48434428
   0.49959222  0.99943481  0.48366615
   0.55560197  0.11110454  0.48360413
   0.66558687  0.99775225  0.48421702
   0.72148766  0.10924507  0.48349694
   0.83228355  0.99777595  0.48433309
   0.88795712  0.10932248  0.48369501
   0.99921940  0.16567548  0.48377548
   0.05457360  0.27690894  0.48445376
   0.16743769  0.16812073  0.48430652
   0.22309262  0.27998380  0.48601643
   0.33522337  0.17011620  0.48534800
   0.39088210  0.28144570  0.48840684
   0.50082782  0.16797025  0.48438689
   0.55687143  0.27966185  0.48601693
   0.66662085  0.16548949  0.48347465
   0.72278062  0.27695783  0.48397653
   0.83258295  0.16502667  0.48356933
   0.88827800  0.27648261  0.48370695
   0.99920467  0.33245288  0.48426403
   0.05440917  0.44370070  0.48469892
   0.16547977  0.33336055  0.48596285
   0.21936791  0.44468675  0.48762647
   0.33541639  0.33808989  0.48934922
   0.38767074  0.44890306  0.49550378
   0.50270385  0.33776044  0.48944303
   0.56124807  0.44860398  0.49566306
   0.66781350  0.33297132  0.48561279
   0.72503006  0.44397520  0.48720715
   0.83369999  0.33266332  0.48385929
   0.89014787  0.44456758  0.48421145
   0.00103587  0.50062101  0.48423960
   0.05690248  0.61194048  0.48427195
   0.16435845  0.50068779  0.48622577
   0.21968926  0.61187051  0.48630050
   0.32878196  0.49949853  0.49119549
   0.38429668  0.61170956  0.49118257
   0.67060518  0.49933585  0.49121677
   0.72715500  0.61187840  0.49119171
   0.83572743  0.50000439  0.48551106
   0.89187769  0.61124061  0.48551450
   0.00231262  0.66763583  0.48425241
   0.05666764  0.77908053  0.48387326
   0.16616411  0.66725425  0.48476021
   0.22191989  0.77784841  0.48426772
   0.33012138  0.66754491  0.48761842
   0.38826520  0.77833936  0.48591975
   0.49383041  0.66236014  0.49547300
   0.55278457  0.77299454  0.48936912
   0.66849588  0.66257597  0.49560888
   0.72048599  0.77324438  0.48947633
   0.83705421  0.66723632  0.48717615
   0.89044997  0.77815431  0.48558117
   0.00155293  0.83438482  0.48397082
   0.05690961  0.94571785  0.48347684
   0.16722777  0.83383689  0.48370216
   0.22336742  0.94563573  0.48357249
   0.33245471  0.83337349  0.48443813
   0.38841543  0.94499261  0.48378122
   0.49868443  0.83132772  0.48597675
   0.55477824  0.94312667  0.48430368
   0.66487068  0.82958512  0.48845643
   0.72051430  0.94087414  0.48535200
   0.83285520  0.83142311  0.48599847
   0.88850577  0.94308936  0.48437506
   0.52817276  0.55554693  0.54060301
   0.52817276  0.55554693  0.93926968
   0.47811078  0.49862470  0.99562549
 
 position of ions in cartesian coordinates  (Angst):
  -7.42671045 12.75292102  7.25395985
   0.00327300  1.42086569  7.25502937
   2.48443540  0.02022389  7.25245946
   2.48128242  1.44307778  7.26316861
   4.95316082  0.01986319  7.25549927
   4.95472348  1.44332922  7.26516423
  -0.00186037 12.74553227  7.25499232
   7.43132045  1.41525036  7.25406191
   2.47751566 12.72352887  7.26325525
   9.91039188  1.39099092  7.25245409
   4.95464634 12.72328539  7.26499635
  12.38374661  1.39143319  7.25542518
  13.61849799  2.10981642  7.25663214
  -1.24656738  3.53162219  7.26680647
   1.23908407  2.14372689  7.26459777
   1.23497335  3.57028851  7.29024645
   3.71774703  2.16862869  7.28022005
   3.71765761  3.58838482  7.32610259
   6.19476752  2.14071634  7.26580340
   6.19770726  3.56508949  7.29025394
   8.67707844  2.10853293  7.25211980
   8.68340331  3.53005834  7.25964789
  11.14690739  2.10208672  7.25354000
  11.14641818  3.52345534  7.25560430
  12.37902596  4.23695811  7.26396051
  -2.48837085  5.65894764  7.27048376
  -0.01784099  4.25126426  7.28944277
  -0.04421891  5.67098406  7.31439711
   2.47247340  4.31102763  7.34023832
   2.42562746  5.72420945  7.43255676
   4.96100772  4.30627807  7.34164543
   5.00741088  5.71982675  7.43494593
   7.45031512  4.24465538  7.28419186
   7.47579648  5.66025329  7.30810731
   9.91787015  4.24018402  7.25788937
   9.92523752  5.66726822  7.26317179
  -3.70451110  6.38510536  7.26359397
  -3.70143684  7.80473288  7.26407924
  -1.27784377  6.38542252  7.29338656
  -1.28171588  7.80330759  7.29450753
   1.17451786  6.36971594  7.36793234
   1.16573786  7.80071594  7.36773853
   6.25561761  6.36652202  7.36825150
   6.25975702  7.80174706  7.36787561
   8.70455863  6.37450831  7.28266590
   8.71246708  7.79307311  7.28271749
  -4.92655451  8.51527103  7.26378613
  -4.94687467  9.93650081  7.25809893
  -2.48869527  8.50986787  7.27140313
  -2.48187855  9.92024492  7.26401586
  -0.05425926  8.51303834  7.31427629
  -0.01344167  9.92596210  7.28879631
   2.41717335  8.44637393  7.43209501
   2.47122280  9.85725364  7.34053678
   5.01130180  8.44855491  7.43413323
   4.96160465  9.85989130  7.34214499
   7.48164563  8.50744298  7.30764223
   7.45098358  9.92195798  7.28371755
  -6.17688645 10.64205301  7.25956229
  -6.18149086 12.06185504  7.25215254
  -3.71069408 10.63452209  7.25553243
  -3.70712398 12.06026285  7.25358730
  -1.25178616 10.62807087  7.26657188
  -1.24953970 12.05151991  7.25671831
   1.23378223 10.60143416  7.28965130
   1.23667038 12.02717641  7.26455521
   3.71645192 10.57866435  7.32684642
   3.71643873 11.99790427  7.28027995
   6.19924004 10.60155685  7.28997698
   6.19652711 12.02560798  7.26562587
   3.72122494  7.08392564  8.10904521
   3.72122494  7.08392564 14.08904521
   3.40021099  6.35808195 14.93438240
 


--------------------------------------------------------------------------------------------------------


 k-point  1 :   0.0000 0.0000 0.0000  plane waves:   59577
 k-point  2 :   0.3333-0.0000 0.0000  plane waves:   59550
 k-point  3 :   0.0000 0.3333 0.0000  plane waves:   59602
 k-point  4 :   0.3333 0.3333 0.0000  plane waves:   59628
 k-point  5 :  -0.3333 0.3333 0.0000  plane waves:   59552

 maximum and minimum number of plane-waves per node :      4994     4923

 maximum number of plane-waves:     59628
 maximum index in each direction: 
   IXMAX=   25   IYMAX=   25   IZMAX=   25
   IXMIN=  -25   IYMIN=  -25   IZMIN=  -25


 parallel 3D FFT for wavefunctions:
    minimum data exchange during FFTs selected (reduces bandwidth)
 parallel 3D FFT for charge:
    minimum data exchange during FFTs selected (reduces bandwidth)


 total amount of memory used by VASP MPI-rank0   116094. kBytes
=======================================================================

   base      :      30000. kBytes
   nonl-proj :      27308. kBytes
   fftplans  :       4700. kBytes
   grid      :      15193. kBytes
   one-center:        217. kBytes
   wavefun   :      38676. kBytes
 
     INWAV:  cpu time    0.0000: real time    0.0000
 Broyden mixing: mesh for mixing (old mesh)
   NGX = 51   NGY = 51   NGZ = 51
  (NGX  =160   NGY  =160   NGZ  =160)
  gives a total of 132651 points

 initial charge density was supplied:
 charge density of overlapping atoms calculated
 number of electron     303.0000000 magnetization       2.0000000
 keeping initial charge density in first step


--------------------------------------------------------------------------------------------------------


 Maximum index for augmentation-charges          178 (set IRDMAX)


--------------------------------------------------------------------------------------------------------


 First call to EWALD:  gamma=   0.125
 Maximum number of real-space cells 3x 3x 3
 Maximum number of reciprocal cells 3x 3x 3

    FEWALD:  cpu time    0.0022: real time    0.0024


--------------------------------------- Iteration      1(   1)  ---------------------------------------


    POTLOK:  cpu time    0.1638: real time    0.2564
    SETDIJ:  cpu time    0.0087: real time    0.0098
     EDDAV:  cpu time   11.2488: real time   11.3885
 BZINTS: Fermi energy:  7.958017;303.000000 electrons
         Band energy:***********;  BLOECHL correction: -0.012406
       DOS:  cpu time    0.1068: real time    0.1078
    --------------------------------------------
      LOOP:  cpu time   11.5281: real time   11.7624

 eigenvalue-minimisations  :  4376
 total energy-change (2. order) : 0.2515908E+04  (-0.1119071E+05)
 number of electron     303.0000000 magnetization       2.0000000
 augmentation part      303.0000000 magnetization       2.0000000

 Free energy of the ion-electron system (eV)
  ---------------------------------------------------
  alpha Z        PSCENC =       167.27276889
  Ewald energy   TEWEN  =     28898.25081971
  -Hartree energ DENC   =    -38576.02302981
  -exchange      EXHF   =         0.00000000
  -V(xc)+E(xc)   XCENC  =      1022.22524868
  PAW double counting   =      9455.23336183    -9546.47664214
  entropy T*S    EENTRO =         0.00000000
  eigenvalues    EBANDS =     -1549.32771069
  atomic energy  EATOM  =     12644.75315347
  Solvation  Ediel_sol  =         0.00000000
  ---------------------------------------------------
  free energy    TOTEN  =      2515.90796995 eV

  energy without entropy =     2515.90796995  energy(sigma->0) =     2515.90796995


--------------------------------------------------------------------------------------------------------




--------------------------------------- Iteration      1(   2)  ---------------------------------------


     EDDAV:  cpu time   14.9939: real time   15.4538
 BZINTS: Fermi energy: -1.342487;303.000000 electrons
         Band energy:***********;  BLOECHL correction: -0.062788
       DOS:  cpu time    0.0115: real time    0.0115
    --------------------------------------------
      LOOP:  cpu time   15.0053: real time   15.4653

 eigenvalue-minimisations  :  5480
 total energy-change (2. order) :-0.2758677E+04  (-0.2629272E+04)
 number of electron     303.0000000 magnetization       2.0000000
 augmentation part      303.0000000 magnetization       2.0000000

 Free energy of the ion-electron system (eV)
  ---------------------------------------------------
  alpha Z        PSCENC =       167.27276889
  Ewald energy   TEWEN  =     28898.25081971
  -Hartree energ DENC   =    -38576.02302981
  -exchange      EXHF   =         0.00000000
  -V(xc)+E(xc)   XCENC  =      1022.22524868
  PAW double counting   =      9455.23336183    -9546.47664214
  entropy T*S    EENTRO =         0.00000000
  eigenvalues    EBANDS =     -4308.00514056
  atomic energy  EATOM  =     12644.75315347
  Solvation  Ediel_sol  =         0.00000000
  ---------------------------------------------------
  free energy    TOTEN  =      -242.76945992 eV

  energy without entropy =     -242.76945992  energy(sigma->0) =     -242.76945992


--------------------------------------------------------------------------------------------------------




--------------------------------------- Iteration      1(   3)  ---------------------------------------


     EDDAV:  cpu time   13.1544: real time   13.8161
 BZINTS: Fermi energy: -4.541818;303.000000 electrons
         Band energy:***********;  BLOECHL correction: -0.045880
       DOS:  cpu time    0.0117: real time    0.0118
    --------------------------------------------
      LOOP:  cpu time   13.1661: real time   13.8280

 eigenvalue-minimisations  :  4592
 total energy-change (2. order) :-0.4598931E+03  (-0.4565120E+03)
 number of electron     303.0000000 magnetization       2.0000000
 augmentation part      303.0000000 magnetization       2.0000000

 Free energy of the ion-electron system (eV)
  ---------------------------------------------------
  alpha Z        PSCENC =       167.27276889
  Ewald energy   TEWEN  =     28898.25081971
  -Hartree energ DENC   =    -38576.02302981
  -exchange      EXHF   =         0.00000000
  -V(xc)+E(xc)   XCENC  =      1022.22524868
  PAW double counting   =      9455.23336183    -9546.47664214
  entropy T*S    EENTRO =         0.00000000
  eigenvalues    EBANDS =     -4767.89826260
  atomic energy  EATOM  =     12644.75315347
  Solvation  Ediel_sol  =         0.00000000
  ---------------------------------------------------
  free energy    TOTEN  =      -702.66258196 eV

  energy without entropy =     -702.66258196  energy(sigma->0) =     -702.66258196


--------------------------------------------------------------------------------------------------------




--------------------------------------- Iteration      1(   4)  ---------------------------------------


     EDDAV:  cpu time   12.9269: real time   13.1211
 BZINTS: Fermi energy: -4.710423;303.000000 electrons
         Band energy:***********;  BLOECHL correction: -0.044883
       DOS:  cpu time    0.0118: real time    0.0119
    --------------------------------------------
      LOOP:  cpu time   12.9387: real time   13.1329

 eigenvalue-minimisations  :  4616
 total energy-change (2. order) :-0.1656064E+02  (-0.1641805E+02)
 number of electron     303.0000000 magnetization       2.0000000
 augmentation part      303.0000000 magnetization       2.0000000

 Free energy of the ion-electron system (eV)
  ---------------------------------------------------
  alpha Z        PSCENC =       167.27276889
  Ewald energy   TEWEN  =     28898.25081971
  -Hartree energ DENC   =    -38576.02302981
  -exchange      EXHF   =         0.00000000
  -V(xc)+E(xc)   XCENC  =      1022.22524868
  PAW double counting   =      9455.23336183    -9546.47664214
  entropy T*S    EENTRO =         0.00000000
  eigenvalues    EBANDS =     -4784.45889773
  atomic energy  EATOM  =     12644.75315347
  Solvation  Ediel_sol  =         0.00000000
  ---------------------------------------------------
  free energy    TOTEN  =      -719.22321709 eV

  energy without entropy =     -719.22321709  energy(sigma->0) =     -719.22321709


--------------------------------------------------------------------------------------------------------




--------------------------------------- Iteration      1(   5)  ---------------------------------------


     EDDAV:  cpu time   14.2186: real time   14.5978
 BZINTS: Fermi energy: -4.720478;303.000000 electrons
         Band energy:***********;  BLOECHL correction: -0.044477
       DOS:  cpu time    0.0117: real time    0.0117
    CHARGE:  cpu time    0.1962: real time    0.2019
    MIXING:  cpu time    0.0043: real time    0.0050
    --------------------------------------------
      LOOP:  cpu time   14.4308: real time   14.8165

 eigenvalue-minimisations  :  5288
 total energy-change (2. order) :-0.5450896E+00  (-0.5434332E+00)
 number of electron     302.9999969 magnetization       0.0144071
 augmentation part       12.3784155 magnetization       0.0673727

 Broyden mixing:
  rms(total) = 0.47661E+01    rms(broyden)= 0.47655E+01
  rms(prec ) = 0.55224E+01
  weight for this iteration     100.00

 Free energy of the ion-electron system (eV)
  ---------------------------------------------------
  alpha Z        PSCENC =       167.27276889
  Ewald energy   TEWEN  =     28898.25081971
  -Hartree energ DENC   =    -38576.02302981
  -exchange      EXHF   =         0.00000000
  -V(xc)+E(xc)   XCENC  =      1022.22524868
  PAW double counting   =      9455.23336183    -9546.47664214
  entropy T*S    EENTRO =         0.00000000
  eigenvalues    EBANDS =     -4785.00398733
  atomic energy  EATOM  =     12644.75315347
  Solvation  Ediel_sol  =         0.00000000
  ---------------------------------------------------
  free energy    TOTEN  =      -719.76830669 eV

  energy without entropy =     -719.76830669  energy(sigma->0) =     -719.76830669


--------------------------------------------------------------------------------------------------------




--------------------------------------- Iteration      1(   6)  ---------------------------------------


    POTLOK:  cpu time    0.1412: real time    0.1441
    SETDIJ:  cpu time    0.0105: real time    0.0106
     EDDAV:  cpu time   12.5187: real time   12.6476
 BZINTS: Fermi energy: -5.558840;303.000000 electrons
         Band energy:***********;  BLOECHL correction: -0.016858
       DOS:  cpu time    0.0123: real time    0.0123
    CHARGE:  cpu time    0.1673: real time    0.1736
    MIXING:  cpu time    0.0032: real time    0.0041
    --------------------------------------------
      LOOP:  cpu time   12.8533: real time   12.9923

 eigenvalue-minimisations  :  4832
 total energy-change (2. order) : 0.2652758E-01  (-0.8916315E+01)
 number of electron     303.0000018 magnetization       0.0117841
 augmentation part       18.0231598 magnetization       0.0294610

 Broyden mixing:
  rms(total) = 0.74529E+01    rms(broyden)= 0.74527E+01
  rms(prec ) = 0.85263E+01
  weight for this iteration     100.00

 eigenvalues of (default mixing * dielectric matrix)
  average eigenvalue GAMMA=   0.2841
  0.2841

 Free energy of the ion-electron system (eV)
  ---------------------------------------------------
  alpha Z        PSCENC =       167.27276889
  Ewald energy   TEWEN  =     28898.25081971
  -Hartree energ DENC   =    -38951.51329924
  -exchange      EXHF   =         0.00000000
  -V(xc)+E(xc)   XCENC  =      1035.01727106
  PAW double counting   =     13243.51295404   -13334.72964067
  entropy T*S    EENTRO =         0.00000000
  eigenvalues    EBANDS =     -4422.30580636
  atomic energy  EATOM  =     12644.75315347
  Solvation  Ediel_sol  =         0.00000000
  ---------------------------------------------------
  free energy    TOTEN  =      -719.74177910 eV

  energy without entropy =     -719.74177910  energy(sigma->0) =     -719.74177910


--------------------------------------------------------------------------------------------------------




--------------------------------------- Iteration      1(   7)  ---------------------------------------


    POTLOK:  cpu time    0.1396: real time    0.1457
    SETDIJ:  cpu time    0.0104: real time    0.0106
     EDDAV:  cpu time   13.3635: real time   13.5242
 BZINTS: Fermi energy: -4.116564;303.000000 electrons
         Band energy:***********;  BLOECHL correction: -0.013055
       DOS:  cpu time    0.0118: real time    0.0118
    CHARGE:  cpu time    0.1648: real time    0.1681
    MIXING:  cpu time    0.0038: real time    0.0042
    --------------------------------------------
      LOOP:  cpu time   13.6939: real time   13.8646

 eigenvalue-minimisations  :  5064
 total energy-change (2. order) : 0.4650173E+02  (-0.6450676E+01)
 number of electron     303.0000006 magnetization       0.5549281
 augmentation part       14.5286816 magnetization       0.3162367

 Broyden mixing:
  rms(total) = 0.26798E+01    rms(broyden)= 0.26791E+01
  rms(prec ) = 0.29546E+01
  weight for this iteration     100.00

 eigenvalues of (default mixing * dielectric matrix)
  average eigenvalue GAMMA=   0.6338
  0.9482  0.3194

 Free energy of the ion-electron system (eV)
  ---------------------------------------------------
  alpha Z        PSCENC =       167.27276889
  Ewald energy   TEWEN  =     28898.25081971
  -Hartree energ DENC   =    -39093.06399551
  -exchange      EXHF   =         0.00000000
  -V(xc)+E(xc)   XCENC  =      1039.50621681
  PAW double counting   =     14476.49087859   -14572.26693608
  entropy T*S    EENTRO =         0.00000000
  eigenvalues    EBANDS =     -4234.18295914
  atomic energy  EATOM  =     12644.75315347
  Solvation  Ediel_sol  =         0.00000000
  ---------------------------------------------------
  free energy    TOTEN  =      -673.24005325 eV

  energy without entropy =     -673.24005325  energy(sigma->0) =     -673.24005325


--------------------------------------------------------------------------------------------------------




--------------------------------------- Iteration      1(   8)  ---------------------------------------


    POTLOK:  cpu time    0.1683: real time    0.1762
    SETDIJ:  cpu time    0.0091: real time    0.0091
     EDDAV:  cpu time   12.9662: real time   13.0556
 BZINTS: Fermi energy: -2.495323;303.000000 electrons
         Band energy:***********;  BLOECHL correction: -0.033087
       DOS:  cpu time    0.0113: real time    0.0113
    CHARGE:  cpu time    0.1694: real time    0.1710
    MIXING:  cpu time    0.0035: real time    0.0035
    --------------------------------------------
      LOOP:  cpu time   13.3278: real time   13.4267

 eigenvalue-minimisations  :  4856
 total energy-change (2. order) : 0.3065770E+01  (-0.4021967E+01)
 number of electron     302.9999979 magnetization       0.1579031
 augmentation part       12.2170015 magnetization       0.1509866

 Broyden mixing:
  rms(total) = 0.26531E+01    rms(broyden)= 0.26524E+01
  rms(prec ) = 0.31327E+01
  weight for this iteration     100.00

 eigenvalues of (default mixing * dielectric matrix)
  average eigenvalue GAMMA=   1.1075
  2.5344  0.3940  0.3940

 Free energy of the ion-electron system (eV)
  ---------------------------------------------------
  alpha Z        PSCENC =       167.27276889
  Ewald energy   TEWEN  =     28898.25081971
  -Hartree energ DENC   =    -39379.41713935
  -exchange      EXHF   =         0.00000000
  -V(xc)+E(xc)   XCENC  =      1049.20396931
  PAW double counting   =     18193.58477895   -18292.57866157
  entropy T*S    EENTRO =         0.00000000
  eigenvalues    EBANDS =     -3951.24397251
  atomic energy  EATOM  =     12644.75315347
  Solvation  Ediel_sol  =         0.00000000
  ---------------------------------------------------
  free energy    TOTEN  =      -670.17428310 eV

  energy without entropy =     -670.17428310  energy(sigma->0) =     -670.17428310


--------------------------------------------------------------------------------------------------------




--------------------------------------- Iteration      1(   9)  ---------------------------------------


    POTLOK:  cpu time    0.1642: real time    0.1664
    SETDIJ:  cpu time    0.0089: real time    0.0089
     EDDAV:  cpu time   12.0912: real time   12.3936
 BZINTS: Fermi energy: -2.810821;303.000000 electrons
         Band energy:***********;  BLOECHL correction: -0.080615
       DOS:  cpu time    0.0115: real time    0.0115
    CHARGE:  cpu time    0.2120: real time    0.2135
    MIXING:  cpu time    0.0039: real time    0.0039
    --------------------------------------------
      LOOP:  cpu time   12.4918: real time   12.7979

 eigenvalue-minimisations  :  4568
 total energy-change (2. order) : 0.5605197E+01  (-0.2559735E+01)
 number of electron     303.0000013 magnetization      -0.1229481
 augmentation part       15.0099012 magnetization      -0.1437447

 Broyden mixing:
  rms(total) = 0.20883E+01    rms(broyden)= 0.20868E+01
  rms(prec ) = 0.26825E+01
  weight for this iteration     100.00

 eigenvalues of (default mixing * dielectric matrix)
  average eigenvalue GAMMA=   1.0719
  2.7500  0.8324  0.3526  0.3526

 Free energy of the ion-electron system (eV)
  ---------------------------------------------------
  alpha Z        PSCENC =       167.27276889
  Ewald energy   TEWEN  =     28898.25081971
  -Hartree energ DENC   =    -39799.94561261
  -exchange      EXHF   =         0.00000000
  -V(xc)+E(xc)   XCENC  =      1064.49106885
  PAW double counting   =     26020.10267289   -26122.49794081
  entropy T*S    EENTRO =         0.00000000
  eigenvalues    EBANDS =     -3536.99601689
  atomic energy  EATOM  =     12644.75315347
  Solvation  Ediel_sol  =         0.00000000
  ---------------------------------------------------
  free energy    TOTEN  =      -664.56908651 eV

  energy without entropy =     -664.56908651  energy(sigma->0) =     -664.56908651


--------------------------------------------------------------------------------------------------------




--------------------------------------- Iteration      1(  10)  ---------------------------------------


    POTLOK:  cpu time    0.1498: real time    0.1521
    SETDIJ:  cpu time    0.0107: real time    0.0107
     EDDAV:  cpu time   13.3125: real time   13.4771
 BZINTS: Fermi energy: -1.264667;303.000000 electrons
         Band energy:***********;  BLOECHL correction: -0.059563
       DOS:  cpu time    0.0117: real time    0.0117
    CHARGE:  cpu time    0.1660: real time    0.1664
    MIXING:  cpu time    0.0039: real time    0.0039
    --------------------------------------------
      LOOP:  cpu time   13.6545: real time   13.8220

 eigenvalue-minimisations  :  5232
 total energy-change (2. order) : 0.2428435E+01  (-0.2050772E+01)
 number of electron     303.0000000 magnetization      -0.1020738
 augmentation part       12.6277170 magnetization      -0.0741492

 Broyden mixing:
  rms(total) = 0.11496E+01    rms(broyden)= 0.11476E+01
  rms(prec ) = 0.13557E+01
  weight for this iteration     100.00

 eigenvalues of (default mixing * dielectric matrix)
  average eigenvalue GAMMA=   1.1749
  3.3950  1.1818  0.6364  0.3306  0.3306

 Free energy of the ion-electron system (eV)
  ---------------------------------------------------
  alpha Z        PSCENC =       167.27276889
  Ewald energy   TEWEN  =     28898.25081971
  -Hartree energ DENC   =    -39830.84278678
  -exchange      EXHF   =         0.00000000
  -V(xc)+E(xc)   XCENC  =      1065.70047829
  PAW double counting   =     27898.39077406   -28001.24958286
  entropy T*S    EENTRO =         0.00000000
  eigenvalues    EBANDS =     -3504.41627675
  atomic energy  EATOM  =     12644.75315347
  Solvation  Ediel_sol  =         0.00000000
  ---------------------------------------------------
  free energy    TOTEN  =      -662.14065199 eV

  energy without entropy =     -662.14065199  energy(sigma->0) =     -662.14065199


--------------------------------------------------------------------------------------------------------




--------------------------------------- Iteration      1(  11)  ---------------------------------------


    POTLOK:  cpu time    0.1506: real time    0.1533
    SETDIJ:  cpu time    0.0089: real time    0.0090
     EDDAV:  cpu time   13.9923: real time   14.1199
 BZINTS: Fermi energy: -1.764932;303.000000 electrons
         Band energy:***********;  BLOECHL correction: -0.010675
       DOS:  cpu time    0.0119: real time    0.0119
    CHARGE:  cpu time    0.1650: real time    0.1676
    MIXING:  cpu time    0.0033: real time    0.0035
    --------------------------------------------
      LOOP:  cpu time   14.3320: real time   14.4652

 eigenvalue-minimisations  :  5360
 total energy-change (2. order) : 0.6052419E+00  (-0.1379483E+00)
 number of electron     303.0000008 magnetization      -0.6183515
 augmentation part       13.4438241 magnetization      -0.2594824

 Broyden mixing:
  rms(total) = 0.70774E+00    rms(broyden)= 0.70668E+00
  rms(prec ) = 0.72794E+00
  weight for this iteration     100.00

 eigenvalues of (default mixing * dielectric matrix)
  average eigenvalue GAMMA=   1.0744
  3.4213  1.1450  0.9060  0.3425  0.3425  0.2892

 Free energy of the ion-electron system (eV)
  ---------------------------------------------------
  alpha Z        PSCENC =       167.27276889
  Ewald energy   TEWEN  =     28898.25081971
  -Hartree energ DENC   =    -39815.87978745
  -exchange      EXHF   =         0.00000000
  -V(xc)+E(xc)   XCENC  =      1065.48696761
  PAW double counting   =     29674.99677399   -29777.35243809
  entropy T*S    EENTRO =         0.00000000
  eigenvalues    EBANDS =     -3519.06366821
  atomic energy  EATOM  =     12644.75315347
  Solvation  Ediel_sol  =         0.00000000
  ---------------------------------------------------
  free energy    TOTEN  =      -661.53541009 eV

  energy without entropy =     -661.53541009  energy(sigma->0) =     -661.53541009


--------------------------------------------------------------------------------------------------------




--------------------------------------- Iteration      1(  12)  ---------------------------------------


    POTLOK:  cpu time    0.1385: real time    0.1420
    SETDIJ:  cpu time    0.0091: real time    0.0098
     EDDAV:  cpu time   12.5360: real time   12.6783
 BZINTS: Fermi energy: -1.996426;303.000000 electrons
         Band energy:***********;  BLOECHL correction: -0.000130
       DOS:  cpu time    0.0108: real time    0.0115
    CHARGE:  cpu time    0.1663: real time    0.1683
    MIXING:  cpu time    0.0039: real time    0.0039
    --------------------------------------------
      LOOP:  cpu time   12.8645: real time   13.0138

 eigenvalue-minimisations  :  4752
 total energy-change (2. order) :-0.3035008E+00  (-0.4081639E-01)
 number of electron     303.0000007 magnetization      -0.9365401
 augmentation part       13.6830361 magnetization      -0.6134487

 Broyden mixing:
  rms(total) = 0.68407E+00    rms(broyden)= 0.68365E+00
  rms(prec ) = 0.75736E+00
  weight for this iteration     100.00

 eigenvalues of (default mixing * dielectric matrix)
  average eigenvalue GAMMA=   1.1875
  3.5400  1.3634  1.3634  0.6915  0.6915  0.3315  0.3315

 Free energy of the ion-electron system (eV)
  ---------------------------------------------------
  alpha Z        PSCENC =       167.27276889
  Ewald energy   TEWEN  =     28898.25081971
  -Hartree energ DENC   =    -39781.95624306
  -exchange      EXHF   =         0.00000000
  -V(xc)+E(xc)   XCENC  =      1064.53651909
  PAW double counting   =     30540.05562462   -30641.82501981
  entropy T*S    EENTRO =         0.00000000
  eigenvalues    EBANDS =     -3552.92653384
  atomic energy  EATOM  =     12644.75315347
  Solvation  Ediel_sol  =         0.00000000
  ---------------------------------------------------
  free energy    TOTEN  =      -661.83891092 eV

  energy without entropy =     -661.83891092  energy(sigma->0) =     -661.83891092


--------------------------------------------------------------------------------------------------------




--------------------------------------- Iteration      1(  13)  ---------------------------------------


    POTLOK:  cpu time    0.1505: real time    0.1526
    SETDIJ:  cpu time    0.0510: real time    0.0521
     EDDAV:  cpu time   12.5691: real time   12.6966
 BZINTS: Fermi energy: -2.086944;303.000000 electrons
         Band energy:***********;  BLOECHL correction:  0.000000
       DOS:  cpu time    0.0059: real time    0.0059
    CHARGE:  cpu time    0.1651: real time    0.1662
    MIXING:  cpu time    0.0041: real time    0.0041
    --------------------------------------------
      LOOP:  cpu time   12.9457: real time   13.0776

 eigenvalue-minimisations  :  4720
 total energy-change (2. order) :-0.1762031E+00  (-0.4397399E-01)
 number of electron     303.0000004 magnetization      -0.9093345
 augmentation part       13.6739740 magnetization      -0.8448718

 Broyden mixing:
  rms(total) = 0.46373E+00    rms(broyden)= 0.46363E+00
  rms(prec ) = 0.54383E+00
  weight for this iteration     100.00

 eigenvalues of (default mixing * dielectric matrix)
  average eigenvalue GAMMA=   1.3042
  3.6444  1.8736  1.8736  0.8850  0.8850  0.6081  0.3318  0.3318

 Free energy of the ion-electron system (eV)
  ---------------------------------------------------
  alpha Z        PSCENC =       167.27276889
  Ewald energy   TEWEN  =     28898.25081971
  -Hartree energ DENC   =    -39755.24043367
  -exchange      EXHF   =         0.00000000
  -V(xc)+E(xc)   XCENC  =      1063.97715863
  PAW double counting   =     31551.37863711   -31652.61933688
  entropy T*S    EENTRO =         0.00000000
  eigenvalues    EBANDS =     -3579.78788125
  atomic energy  EATOM  =     12644.75315347
  Solvation  Ediel_sol  =         0.00000000
  ---------------------------------------------------
  free energy    TOTEN  =      -662.01511399 eV

  energy without entropy =     -662.01511399  energy(sigma->0) =     -662.01511399


--------------------------------------------------------------------------------------------------------




--------------------------------------- Iteration      1(  14)  ---------------------------------------


    POTLOK:  cpu time    0.1476: real time    0.1504
    SETDIJ:  cpu time    0.0082: real time    0.0087
     EDDAV:  cpu time   12.3758: real time   12.5512
 BZINTS: Fermi energy: -2.101400;303.000000 electrons
         Band energy:***********;  BLOECHL correction:  0.000000
       DOS:  cpu time    0.0050: real time    0.0052
    CHARGE:  cpu time    0.1649: real time    0.1654
    MIXING:  cpu time    0.0042: real time    0.0042
    --------------------------------------------
      LOOP:  cpu time   12.7058: real time   12.8851

 eigenvalue-minimisations  :  4720
 total energy-change (2. order) :-0.2150985E-02  (-0.1730179E-01)
 number of electron     303.0000001 magnetization      -0.9010751
 augmentation part       13.5892041 magnetization      -0.9772531

 Broyden mixing:
  rms(total) = 0.32331E+00    rms(broyden)= 0.32323E+00
  rms(prec ) = 0.38051E+00
  weight for this iteration     100.00

 eigenvalues of (default mixing * dielectric matrix)
  average eigenvalue GAMMA=   1.4217
  3.6095  2.5349  2.5349  1.0347  1.0347  0.3317  0.3317  0.6915  0.6915

 Free energy of the ion-electron system (eV)
  ---------------------------------------------------
  alpha Z        PSCENC =       167.27276889
  Ewald energy   TEWEN  =     28898.25081971
  -Hartree energ DENC   =    -39752.31233803
  -exchange      EXHF   =         0.00000000
  -V(xc)+E(xc)   XCENC  =      1064.00071613
  PAW double counting   =     31778.50806231   -31879.63509225
  entropy T*S    EENTRO =         0.00000000
  eigenvalues    EBANDS =     -3582.85535521
  atomic energy  EATOM  =     12644.75315347
  Solvation  Ediel_sol  =         0.00000000
  ---------------------------------------------------
  free energy    TOTEN  =      -662.01726498 eV

  energy without entropy =     -662.01726498  energy(sigma->0) =     -662.01726498


--------------------------------------------------------------------------------------------------------




--------------------------------------- Iteration      1(  15)  ---------------------------------------


    POTLOK:  cpu time    0.1658: real time    0.1682
    SETDIJ:  cpu time    0.0089: real time    0.0089
     EDDAV:  cpu time   12.1888: real time   12.3297
 BZINTS: Fermi energy: -2.092995;303.000000 electrons
         Band energy:***********;  BLOECHL correction: -0.000321
       DOS:  cpu time    0.0121: real time    0.0121
    CHARGE:  cpu time    0.2189: real time    0.2209
    MIXING:  cpu time    0.0046: real time    0.0046
    --------------------------------------------
      LOOP:  cpu time   12.5990: real time   12.7445

 eigenvalue-minimisations  :  4664
 total energy-change (2. order) : 0.5909192E-02  (-0.8930663E-02)
 number of electron     303.0000000 magnetization      -0.9336390
 augmentation part       13.5679071 magnetization      -1.1160062

 Broyden mixing:
  rms(total) = 0.25512E+00    rms(broyden)= 0.25507E+00
  rms(prec ) = 0.30701E+00
  weight for this iteration     100.00

 eigenvalues of (default mixing * dielectric matrix)
  average eigenvalue GAMMA=   1.3464
  3.5638  2.5494  2.5494  1.1341  1.1341  0.3318  0.3318  0.6902  0.6902  0.4890

 Free energy of the ion-electron system (eV)
  ---------------------------------------------------
  alpha Z        PSCENC =       167.27276889
  Ewald energy   TEWEN  =     28898.25081971
  -Hartree energ DENC   =    -39750.51929878
  -exchange      EXHF   =         0.00000000
  -V(xc)+E(xc)   XCENC  =      1064.04792107
  PAW double counting   =     31811.96749718   -31912.99288344
  entropy T*S    EENTRO =         0.00000000
  eigenvalues    EBANDS =     -3584.79133388
  atomic energy  EATOM  =     12644.75315347
  Solvation  Ediel_sol  =         0.00000000
  ---------------------------------------------------
  free energy    TOTEN  =      -662.01135579 eV

  energy without entropy =     -662.01135579  energy(sigma->0) =     -662.01135579


--------------------------------------------------------------------------------------------------------




--------------------------------------- Iteration      1(  16)  ---------------------------------------


    POTLOK:  cpu time    0.1281: real time    0.1305
    SETDIJ:  cpu time    0.0086: real time    0.0087
     EDDAV:  cpu time   11.9905: real time   12.1690
 BZINTS: Fermi energy: -2.090740;303.000000 electrons
         Band energy:***********;  BLOECHL correction: -0.000708
       DOS:  cpu time    0.0119: real time    0.0120
    CHARGE:  cpu time    0.2210: real time    0.2258
    MIXING:  cpu time    0.0044: real time    0.0054
    --------------------------------------------
      LOOP:  cpu time   12.3646: real time   12.5514

 eigenvalue-minimisations  :  4408
 total energy-change (2. order) : 0.5049005E-02  (-0.1444446E-02)
 number of electron     303.0000000 magnetization      -0.9618838
 augmentation part       13.5470607 magnetization      -1.1550241

 Broyden mixing:
  rms(total) = 0.21213E+00    rms(broyden)= 0.21213E+00
  rms(prec ) = 0.25905E+00
  weight for this iteration     100.00

 eigenvalues of (default mixing * dielectric matrix)
  average eigenvalue GAMMA=   1.3389
  3.6214  2.5424  2.5424  1.2350  1.2350  0.3317  0.3317  0.7943  0.7943  0.6498
  0.6498

 Free energy of the ion-electron system (eV)
  ---------------------------------------------------
  alpha Z        PSCENC =       167.27276889
  Ewald energy   TEWEN  =     28898.25081971
  -Hartree energ DENC   =    -39748.47365605
  -exchange      EXHF   =         0.00000000
  -V(xc)+E(xc)   XCENC  =      1064.00624054
  PAW double counting   =     31828.24616510   -31929.23479184
  entropy T*S    EENTRO =         0.00000000
  eigenvalues    EBANDS =     -3586.82700659
  atomic energy  EATOM  =     12644.75315347
  Solvation  Ediel_sol  =         0.00000000
  ---------------------------------------------------
  free energy    TOTEN  =      -662.00630678 eV

  energy without entropy =     -662.00630678  energy(sigma->0) =     -662.00630678


[...]
   -.159E+02 0.123E+02 0.361E+01   0.215E+02 -.155E+02 -.340E+01   -.558E+01 0.309E+01 -.206E+00   -.160E-01 -.331E-03 -.391E-02
   0.235E+02 0.114E+02 0.147E+02   -.223E+02 -.119E+02 -.152E+02   -.129E+01 0.615E+00 0.544E+00   -.946E-01 -.261E-01 -.359E-01
   0.236E+02 -.105E+02 0.145E+02   -.220E+02 0.105E+02 -.150E+02   -.158E+01 -.135E+00 0.523E+00   -.925E-01 0.291E-01 -.355E-01
   -.277E+02 0.954E+01 0.141E+02   0.267E+02 -.983E+01 -.146E+02   0.103E+01 0.485E+00 0.588E+00   0.981E-01 -.266E-01 -.357E-01
   -.277E+02 -.102E+02 0.141E+02   0.266E+02 0.105E+02 -.146E+02   0.106E+01 -.446E+00 0.576E+00   0.962E-01 0.324E-01 -.356E-01
   -.387E+01 0.303E+01 0.715E+01   0.345E+01 -.316E+01 -.710E+01   0.410E+00 0.177E+00 -.381E-01   0.207E-01 -.798E-03 -.413E-02
   -.379E+01 -.170E+01 0.711E+01   0.305E+01 0.136E+01 -.705E+01   0.691E+00 0.292E+00 -.548E-01   0.189E-01 0.955E-03 -.411E-02
   0.634E+01 -.341E+01 0.749E+01   -.777E+01 0.387E+01 -.752E+01   0.145E+01 -.419E+00 0.285E-01   0.775E-02 0.671E-05 -.252E-02
   0.488E+01 -.770E+01 0.688E+01   -.565E+01 0.812E+01 -.686E+01   0.802E+00 -.484E+00 -.157E-01   0.655E-02 0.218E-02 -.213E-02
   0.604E+01 -.640E+01 0.705E+01   -.602E+01 0.675E+01 -.714E+01   -.615E-01 -.260E+00 0.828E-01   -.670E-02 0.102E-02 -.322E-02
   0.281E+01 -.305E+02 0.566E+01   -.274E+01 0.368E+02 -.569E+01   -.108E+00 -.634E+01 0.265E-01   -.568E-02 0.108E-02 -.209E-02
   0.398E+01 -.685E+01 0.652E+01   -.220E+01 0.706E+01 -.659E+01   -.172E+01 -.251E+00 0.955E-01   -.304E-01 0.595E-02 -.793E-02
   -.704E+00 -.163E+02 0.760E+01   0.165E+01 0.167E+02 -.756E+01   -.101E+01 -.413E+00 -.431E-01   -.183E-01 0.980E-02 -.507E-02
   -.807E+01 -.357E+02 0.259E+02   0.149E+02 0.317E+02 -.249E+02   -.643E+01 0.371E+01 -.904E+00   -.126E+00 0.140E+00 -.863E-01
   -.260E+01 -.223E+02 0.132E+02   0.313E+01 0.211E+02 -.133E+02   -.503E+00 0.108E+01 0.212E+00   -.239E-01 0.565E-01 -.226E-01
   0.550E+01 -.372E+02 0.256E+02   -.120E+02 0.333E+02 -.247E+02   0.618E+01 0.358E+01 -.897E+00   0.123E+00 0.145E+00 -.867E-01
   0.140E+00 -.219E+02 0.124E+02   -.499E+00 0.207E+02 -.126E+02   0.333E+00 0.105E+01 0.228E+00   0.210E-01 0.602E-01 -.227E-01
   -.129E+02 -.698E+01 0.813E+01   0.123E+02 0.684E+01 -.820E+01   0.541E+00 0.119E+00 0.107E+00   0.337E-01 0.944E-02 -.821E-02
   -.418E+01 -.126E+02 0.854E+01   0.377E+01 0.126E+02 -.851E+01   0.451E+00 -.661E-03 -.287E-01   0.196E-01 0.121E-01 -.516E-02
   0.636E+00 -.597E+01 0.835E+01   -.121E+01 0.622E+01 -.838E+01   0.490E+00 -.267E+00 0.325E-01   0.994E-02 0.477E-02 -.253E-02
   -.174E+00 -.521E+01 0.803E+01   0.910E-01 0.542E+01 -.803E+01   0.804E-01 -.216E+00 0.492E-02   0.346E-02 -.582E-03 -.197E-02
   0.399E+01 -.124E+02 0.639E+01   -.503E+01 0.134E+02 -.642E+01   0.104E+01 -.102E+01 0.293E-01   0.143E-02 0.119E-04 -.172E-02
   0.263E+01 -.453E+01 0.620E+01   -.266E+01 0.526E+01 -.619E+01   0.968E-02 -.713E+00 -.177E-01   0.169E-03 -.514E-02 -.168E-02
   -.130E+01 -.142E+02 0.676E+01   0.249E+01 0.152E+02 -.679E+01   -.111E+01 -.968E+00 0.269E-01   -.987E-02 0.192E-02 -.244E-02
   -.420E+00 -.703E+01 0.699E+01   0.448E+00 0.773E+01 -.700E+01   -.689E-02 -.680E+00 0.652E-02   -.440E-02 -.206E-02 -.193E-02
   -.419E+01 -.120E+02 0.109E+02   0.521E+01 0.119E+02 -.110E+02   -.955E+00 0.746E-01 0.949E-01   -.117E-01 0.196E-01 -.680E-02
   0.853E+00 -.756E+01 0.911E+01   -.699E+00 0.753E+01 -.914E+01   -.178E+00 -.179E-01 0.319E-01   -.310E-02 0.105E-01 -.311E-02
   -.454E+00 -.105E+02 0.678E+01   0.532E+00 0.975E+01 -.643E+01   -.869E-01 0.702E+00 -.338E+00   -.275E-02 0.449E-01 -.154E-01
   -.379E+00 -.943E+01 0.781E+01   0.409E+00 0.896E+01 -.783E+01   -.344E-01 0.465E+00 0.337E-01   -.249E-02 0.138E-01 -.471E-02
   0.853E+00 -.994E+01 0.103E+02   -.151E+01 0.966E+01 -.104E+02   0.623E+00 0.270E+00 0.971E-01   0.136E-01 0.221E-01 -.687E-02
   -.210E+01 -.671E+01 0.860E+01   0.201E+01 0.655E+01 -.863E+01   0.111E+00 0.138E+00 0.340E-01   0.558E-02 0.107E-01 -.318E-02
   -.162E+01 -.360E+01 -.607E+03   0.138E+01 0.351E+01 0.588E+03   0.295E+00 0.955E-01 0.192E+02   -.205E-01 0.187E-01 -.135E+00
   -.639E+02 -.144E+03 0.107E+03   0.712E+02 0.160E+03 -.126E+03   -.774E+01 -.175E+02 0.204E+02   -.514E-03 0.309E-04 0.139E-01
   0.554E+02 0.126E+03 -.140E+03   -.711E+02 -.162E+03 0.181E+03   0.162E+02 0.366E+02 -.426E+02   -.291E-02 -.478E-02 0.146E-01
 -----------------------------------------------------------------------------------------------
   -.856E+01 -.190E+02 0.396E+01   -.142E-13 -.568E-12 0.512E-12   0.857E+01 0.190E+02 -.303E+01   -.803E-02 0.385E-02 -.913E+00
 
 
 POSITION                                       TOTAL-FORCE (eV/Angst)
 -----------------------------------------------------------------------------------
     -7.42671     12.75292      7.25396         0.008226      0.003307      0.004937
      0.00327      1.42087      7.25503         0.002086      0.003783      0.001900
      2.48444      0.02022      7.25246         0.009958     -0.002660     -0.001587
      2.48128      1.44308      7.26317         0.036243      0.003742      0.000058
      4.95316      0.01986      7.25550        -0.009793     -0.004135     -0.004372
      4.95472      1.44333      7.26516        -0.049186     -0.017354     -0.002698
     -0.00186     12.74553      7.25499         0.001356      0.005961      0.004040
      7.43132      1.41525      7.25406        -0.013218      0.007795      0.003572
      2.47752     12.72353      7.26326         0.030217      0.016779     -0.001502
      9.91039      1.39099      7.25245         0.015564     -0.013745     -0.001325
      4.95465     12.72329      7.26500        -0.032560      0.024112     -0.003014
     12.38375      1.39143      7.25543        -0.009351     -0.022294     -0.004940
     13.61850      2.10982      7.25663         0.017568      0.014893     -0.002068
     -1.24657      3.53162      7.26681         0.070393      0.014673     -0.005624
      1.23908      2.14373      7.26460        -0.010158      0.011509      0.002778
      1.23497      3.57029      7.29025         0.051732     -0.013150      0.000959
      3.71775      2.16863      7.28022        -0.004604     -0.049529      0.000138
      3.71766      3.58838      7.32610        -0.041835      0.006750     -0.012677
      6.19477      2.14072      7.26580         0.036036     -0.001668      0.000045
      6.19771      3.56509      7.29025        -0.010465     -0.016556     -0.005471
      8.67708      2.10853      7.25212        -0.021229      0.019979      0.000661
      8.68340      3.53006      7.25965        -0.074251     -0.010740     -0.000858
     11.14691      2.10209      7.25354        -0.007904      0.023340     -0.002769
     11.14642      3.52346      7.25560        -0.008338      0.023250     -0.005440
     12.37903      4.23696      7.26396        -0.037609      0.043654     -0.007448
     -2.48837      5.65895      7.27048        -0.023215     -0.035531     -0.009928
     -0.01784      4.25126      7.28944        -0.078386     -0.035180     -0.006361
     -0.04422      5.67098      7.31440         0.035370      0.022169      0.013669
      2.47247      4.31103      7.34024         0.042650     -0.016132      0.011947
      2.42563      5.72421      7.43256         0.251858      0.157283     -0.055745
      4.96101      4.30628      7.34165        -0.029735      0.015224      0.003809
      5.00741      5.71983      7.43495        -0.238302      0.112842     -0.109104
      7.45032      4.24466      7.28419         0.052457     -0.025438     -0.002221
      7.47580      5.66025      7.30811        -0.055938      0.043782      0.032964
      9.91787      4.24018      7.25789         0.056876      0.023929     -0.001133
      9.92524      5.66727      7.26317         0.008635     -0.041787     -0.001861
     -3.70451      6.38511      7.26359         0.005568      0.009626     -0.005527
     -3.70144      7.80473      7.26408         0.003641     -0.001159     -0.000500
     -1.27784      6.38542      7.29339        -0.003026      0.049065     -0.007248
     -1.28172      7.80331      7.29451         0.010749     -0.049869     -0.008004
      1.17452      6.36972      7.36793        -0.135724      0.146354     -0.000747
      1.16574      7.80072      7.36774        -0.102074     -0.136397      0.015241
      6.25562      6.36652      7.36825         0.150440      0.154351      0.001719
      6.25976      7.80175      7.36788         0.113080     -0.166859     -0.000581
      8.70456      6.37451      7.28267         0.013611      0.045538      0.003139
      8.71247      7.79307      7.28272        -0.023384     -0.039174      0.004072
     -4.92655      8.51527      7.26379         0.040223      0.037905     -0.000787
     -4.94687      9.93650      7.25810         0.043877     -0.064008      0.000475
     -2.48870      8.50987      7.27140        -0.047520      0.092582     -0.007841
     -2.48188      9.92024      7.26402        -0.045345     -0.091423     -0.004158
     -0.05426      8.51304      7.31428         0.015175     -0.036816      0.026166
     -0.01344      9.92596      7.28880        -0.088108      0.006339     -0.007035
      2.41717      8.44637      7.43210         0.262937     -0.134910     -0.064322
      2.47122      9.85725      7.34054         0.022174     -0.007076      0.013893
      5.01130      8.44855      7.43413        -0.250450     -0.119807     -0.085651
      4.96160      9.85989      7.34214        -0.018845      0.000364     -0.002891
      7.48165      8.50744      7.30764        -0.033362     -0.014653      0.034143
      7.45098      9.92196      7.28372         0.068869      0.014936     -0.002020
     -6.17689     10.64205      7.25956        -0.077267     -0.005477     -0.000430
     -6.18149     12.06186      7.25215         0.000305     -0.007017     -0.000778
     -3.71069     10.63452      7.25553         0.012889     -0.014047     -0.001451
     -3.70712     12.06026      7.25359        -0.023090      0.015487     -0.003891
     -1.25179     10.62807      7.26657         0.069745     -0.006964     -0.006559
     -1.24954     12.05152      7.25672         0.018951      0.018721     -0.004011
      1.23378     10.60143      7.28965         0.051244      0.017878     -0.008480
      1.23667     12.02718      7.26456        -0.024219     -0.033461     -0.001812
      3.71645     10.57866      7.32685        -0.012010      0.002919     -0.005101
      3.71644     11.99790      7.28028        -0.006267      0.006088      0.002205
      6.19924     10.60156      7.28998        -0.026102      0.008089     -0.010032
      6.19653     12.02561      7.26563         0.021235     -0.011336     -0.000424
      3.72122      7.08393      8.10905         0.021827      0.023252      0.312925
      3.72122      7.08393     14.08905        -0.489584     -1.107625      1.270799
      3.40021      6.35808     14.93438         0.488688      1.105726     -1.277829
 -----------------------------------------------------------------------------------
    total drift:                                0.001724     -0.001220      0.024223


--------------------------------------------------------------------------------------------------------



  FREE ENERGIE OF THE ION-ELECTRON SYSTEM (eV)
  ---------------------------------------------------
  free  energy   TOTEN  =      -668.39197810 eV

  energy  without entropy=     -668.39197810  energy(sigma->0) =     -668.39197810
 


--------------------------------------------------------------------------------------------------------


    POTLOK:  cpu time    0.1437: real time    0.1444


--------------------------------------------------------------------------------------------------------


 stress matrix after NEB project (eV)
     -1.52647     -0.26305      0.42351
     -0.26305     -3.00774      0.92804
      0.42351      0.92804     -3.95379
  FORCES: max atom, RMS     1.759060    0.307932
  FORCE total and by dimension    2.630968    1.277829
  Stress total and by dimension    5.406358    3.953790
     LOOP+:  cpu time  301.5961: real time  306.2616
    4ORBIT:  cpu time    0.0000: real time    0.0000
 


 total charge     
 
# of ion       s       p       d       tot
------------------------------------------
    1        0.864   1.782   0.000   2.646
    2        0.864   1.781   0.000   2.645
    3        0.864   1.782   0.000   2.645
    4        0.863   1.781   0.000   2.644
    5        0.865   1.788   0.000   2.653
    6        0.863   1.783   0.000   2.647
    7        0.863   1.779   0.000   2.642
    8        0.863   1.779   0.000   2.642
    9        0.863   1.784   0.000   2.647
   10        0.865   1.783   0.000   2.648
   11        0.863   1.784   0.000   2.647
   12        0.865   1.780   0.000   2.645
   13        0.865   1.789   0.000   2.653
   14        0.866   1.789   0.000   2.655
   15        0.863   1.779   0.000   2.642
   16        0.863   1.769   0.000   2.632
   17        0.863   1.773   0.000   2.636
   18        0.863   1.772   0.000   2.634
   19        0.864   1.780   0.000   2.644
   20        0.863   1.772   0.000   2.635
   21        0.864   1.787   0.000   2.651
   22        0.865   1.787   0.000   2.653
   23        0.864   1.788   0.000   2.652
   24        0.866   1.787   0.000   2.653
   25        0.864   1.795   0.000   2.659
   26        0.869   1.800   0.000   2.669
   27        0.866   1.788   0.000   2.653
   28        0.869   1.802   0.000   2.671
   29        0.862   1.756   0.000   2.618
   30        0.874   1.687   0.000   2.561
   31        0.862   1.759   0.000   2.621
   32        0.874   1.689   0.000   2.563
   33        0.867   1.789   0.000   2.656
   34        0.871   1.803   0.000   2.674
   35        0.864   1.788   0.000   2.652
   36        0.866   1.794   0.000   2.661
   37        0.865   1.801   0.000   2.666
   38        0.855   1.762   0.000   2.617
   39        0.865   1.804   0.000   2.670
   40        0.856   1.765   0.000   2.621
   41        0.877   1.793   0.000   2.670
   42        0.876   1.787   0.000   2.663
   43        0.877   1.787   0.000   2.664
   44        0.876   1.786   0.000   2.662
   45        0.868   1.802   0.000   2.670
   46        0.866   1.796   0.000   2.662
   47        0.865   1.804   0.000   2.669
   48        0.866   1.794   0.000   2.660
   49        1.212   2.710   0.000   3.922
   50        0.853   1.756   0.000   2.608
   51        0.869   1.811   0.000   2.679
   52        0.868   1.794   0.000   2.662
   53        0.874   1.687   0.000   2.561
   54        0.862   1.756   0.000   2.619
   55        0.875   1.690   0.000   2.565
   56        0.862   1.759   0.000   2.621
   57        0.870   1.802   0.000   2.672
   58        0.867   1.789   0.000   2.656
   59        0.865   1.795   0.000   2.660
   60        0.866   1.787   0.000   2.653
   61        0.863   1.795   0.000   2.658
   62        0.863   1.785   0.000   2.648
   63        0.863   1.796   0.000   2.660
   64        0.863   1.785   0.000   2.649
   65        0.863   1.776   0.000   2.639
   66        0.864   1.779   0.000   2.643
   67        0.863   1.771   0.000   2.634
   68        0.863   1.770   0.000   2.633
   69        0.863   1.773   0.000   2.636
   70        0.864   1.777   0.000   2.641
   71        0.391   6.286   4.283  10.960
   72        1.036   1.403   0.000   2.439
   73        1.637   3.515   0.000   5.151
--------------------------------------------------
tot         63.995 136.638   4.283 204.916
 


 magnetization (x)
 
# of ion       s       p       d       tot
------------------------------------------
    1        0.000   0.001   0.000   0.001
    2        0.000   0.002   0.000   0.003
    3       -0.000  -0.001   0.000  -0.002
    4        0.001   0.011   0.000   0.011
    5       -0.000  -0.000   0.000  -0.000
    6        0.001   0.010   0.000   0.011
    7        0.000   0.001   0.000   0.001
    8        0.000   0.002   0.000   0.003
    9        0.000   0.007   0.000   0.007
   10        0.000   0.002   0.000   0.002
   11        0.000   0.006   0.000   0.006
   12        0.000   0.005   0.000   0.005
   13       -0.000  -0.001   0.000  -0.001
   14        0.000   0.008   0.000   0.009
   15       -0.000  -0.000   0.000  -0.000
   16        0.001   0.008   0.000   0.009
   17       -0.001  -0.006   0.000  -0.007
   18        0.002   0.028   0.000   0.029
   19        0.000   0.001   0.000   0.001
   20        0.001   0.007   0.000   0.008
   21       -0.000  -0.001   0.000  -0.001
   22        0.000   0.007   0.000   0.008
   23        0.000   0.007   0.000   0.007
   24       -0.000  -0.000   0.000  -0.000
   25        0.000   0.005   0.000   0.005
   26        0.000   0.007   0.000   0.008
   27       -0.000  -0.001   0.000  -0.001
   28        0.000   0.005   0.000   0.005
   29       -0.001  -0.008   0.000  -0.009
   30        0.015   0.087   0.000   0.102
   31       -0.001  -0.008   0.000  -0.009
   32        0.015   0.088   0.000   0.103
   33       -0.000  -0.001   0.000  -0.001
   34        0.000   0.005   0.000   0.005
   35        0.000   0.006   0.000   0.006
   36        0.000   0.003   0.000   0.003
   37       -0.000   0.001   0.000   0.001
   38        0.000   0.002   0.000   0.002
   39        0.000   0.004   0.000   0.004
   40        0.001   0.015   0.000   0.016
   41       -0.001   0.005   0.000   0.004
   42       -0.000   0.012   0.000   0.012
   43       -0.001   0.007   0.000   0.007
   44       -0.000   0.011   0.000   0.011
   45        0.000   0.005   0.000   0.005
   46        0.001   0.011   0.000   0.011
   47       -0.000  -0.000   0.000  -0.000
   48        0.000   0.008   0.000   0.008
   49        0.000   0.005   0.000   0.005
   50        0.001   0.010   0.000   0.010
   51        0.000   0.003   0.000   0.004
   52       -0.000  -0.000   0.000  -0.000
   53        0.015   0.082   0.000   0.097
   54       -0.001  -0.005   0.000  -0.006
   55        0.015   0.082   0.000   0.097
   56       -0.001  -0.004   0.000  -0.005
   57        0.000   0.003   0.000   0.003
   58       -0.000  -0.001   0.000  -0.001
   59        0.000   0.003   0.000   0.003
   60        0.000   0.004   0.000   0.004
   61       -0.000  -0.002   0.000  -0.002
   62        0.001   0.009   0.000   0.010
   63        0.000   0.005   0.000   0.005
   64        0.000   0.003   0.000   0.003
   65        0.001   0.004   0.000   0.004
   66        0.000   0.004   0.000   0.004
   67        0.002   0.025   0.000   0.027
   68       -0.001  -0.005   0.000  -0.005
   69        0.001   0.003   0.000   0.004
   70        0.000   0.004   0.000   0.004
   71       -0.034   0.014  -1.950  -1.971
   72        0.000   0.000   0.000   0.000
   73        0.000   0.000   0.000   0.000
--------------------------------------------------
tot          0.033   0.621  -1.950  -1.296
 
 BZINTS: Fermi energy: -2.026046;303.000000 electrons
         Band energy:***********;  BLOECHL correction: -0.003217

 total amount of memory used by VASP MPI-rank0   116094. kBytes
=======================================================================

   base      :      30000. kBytes
   nonl-proj :      27308. kBytes
   fftplans  :       4700. kBytes
   grid      :      15193. kBytes
   one-center:        217. kBytes
   wavefun   :      38676. kBytes
 
  
  
 General timing and accounting informations for this job:
 ========================================================
  
                  Total CPU time used (sec):      319.195
                            User time (sec):      309.279
                          System time (sec):        9.916
                         Elapsed time (sec):      332.990
  
                   Maximum memory used (kb):      473684.
                   Average memory used (kb):           0.
  
                          Minor page faults:      1683573
                          Major page faults:            0
                 Voluntary context switches:         8452
