 vasp.5.4.4.18Apr17-6-g9f103f2a35 (build Jan 14 2022 15:04:31) complex          
  
 executed on             LinuxIFC date 2023.01.27  22:53:26
 running on   48 total cores
 distrk:  each k-point on   48 cores,    1 groups
 distr:  one band on NCORES_PER_BAND=  12 cores,    4 groups


--------------------------------------------------------------------------------------------------------


 INCAR:
 POTCAR:    PAW_PBE C 08Apr2002                   
 POTCAR:    PAW_PBE N 08Apr2002                   
 POTCAR:    PAW_PBE C 08Apr2002                   
 POTCAR:    PAW_PBE Cr_pv 02Aug2007               
 POTCAR:    PAW_PBE C 08Apr2002                   
 POTCAR:    PAW_PBE O 08Apr2002                   
 POTCAR:    PAW_PBE C 08Apr2002                   
   SHA256 =  253f7b50bb8d59471dbedb8285d89021f4a42ed1a2c5d38a03a736e69125dd95 C/
   COPYR  = (c) Copyright 08Apr2002 Georg Kresse                                
   COPYR  = This file is part of the software VASP. Any use, copying, and all ot
   COPYR  = If you do not have a valid VASP license, you may not use, copy or di
   VRHFIN =C: s2p2                                                              
   LEXCH  = PE                                                                  
   EATOM  =   147.1560 eV,   10.8157 Ry                                         
                                                                                
   TITEL  = PAW_PBE C 08Apr2002                                                 
   LULTRA =        F    use ultrasoft PP ?                                      
   IUNSCR =        1    unscreen: 0-lin 1-nonlin 2-no                           
   RPACOR =    1.200    partial core radius                                     
   POMASS =   12.011; ZVAL   =    4.000    mass and valenz                      
   RCORE  =    1.500    outmost cutoff radius                                   
   RWIGS  =    1.630; RWIGS  =    0.863    wigner-seitz radius (au A)           
   ENMAX  =  400.000; ENMIN  =  300.000 eV                                      
   ICORE  =        2    local potential                                         
   LCOR   =        T    correct aug charges                                     
   LPAW   =        T    paw PP                                                  
   EAUG   =  644.873                                                            
   DEXC   =    0.000                                                            
   RMAX   =    1.529    core radius for proj-oper                               
   RAUG   =    1.300    factor for augmentation sphere                          
   RDEP   =    1.501    radius for radial grids                                 
   RDEPT  =    1.300    core radius for aug-charge                              
                                                                                
   Atomic configuration                                                         
    4 entries                                                                   
     n  l   j            E        occ.                                          
     1  0  0.50      -273.3789   2.0000                                         
     2  0  0.50       -13.7508   2.0000                                         
     2  1  0.50        -5.2854   2.0000                                         
     3  2  1.50        -5.4423   0.0000                                         
   Description                                                                  
     l       E           TYP  RCUT    TYP  RCUT                                 
     0    -13.7508458     23  1.200                                             
     0     -8.2022199     23  1.200                                             
     1     -5.2854383     23  1.500                                             
     1     34.0145650     23  1.500                                             
     2     -5.4423304      7  1.500                                             
  local pseudopotential read in
  partial core-charges read in
  partial kinetic energy density read in
  atomic valenz-charges read in
  non local Contribution for L=           0  read in
    real space projection operators read in
  non local Contribution for L=           0  read in
    real space projection operators read in
  non local Contribution for L=           1  read in
    real space projection operators read in
  non local Contribution for L=           1  read in
    real space projection operators read in
    PAW grid and wavefunctions read in
 
   number of l-projection  operators is LMAX  =           4
   number of lm-projection operators is LMMAX =           8
 
 POTCAR:    PAW_PBE N 08Apr2002                   
   SHA256 =  e053789ff3a61a86a1b75d8a110fcc91f86041011e7b0817c7c99e4e8a6349d7 N/
   COPYR  = (c) Copyright 08Apr2002 Georg Kresse                                
   COPYR  = This file is part of the software VASP. Any use, copying, and all ot
   COPYR  = If you do not have a valid VASP license, you may not use, copy or di
   VRHFIN =N: s2p3                                                              
   LEXCH  = PE                                                                  
   EATOM  =   264.5486 eV,   19.4438 Ry                                         
                                                                                
   TITEL  = PAW_PBE N 08Apr2002                                                 
   LULTRA =        F    use ultrasoft PP ?                                      
   IUNSCR =        1    unscreen: 0-lin 1-nonlin 2-no                           
   RPACOR =    1.200    partial core radius                                     
   POMASS =   14.001; ZVAL   =    5.000    mass and valenz                      
   RCORE  =    1.500    outmost cutoff radius                                   
   RWIGS  =    1.400; RWIGS  =    0.741    wigner-seitz radius (au A)           
   ENMAX  =  400.000; ENMIN  =  300.000 eV                                      
   ICORE  =        2    local potential                                         
   LCOR   =        T    correct aug charges                                     
   LPAW   =        T    paw PP                                                  
   EAUG   =  627.112                                                            
   DEXC   =    0.000                                                            
   RMAX   =    1.529    core radius for proj-oper                               
   RAUG   =    1.300    factor for augmentation sphere                          
   RDEP   =    1.514    radius for radial grids                                 
   RDEPT  =    1.338    core radius for aug-charge                              
                                                                                
   Atomic configuration                                                         
    4 entries                                                                   
     n  l   j            E        occ.                                          
     1  0  0.50      -384.7179   2.0000                                         
     2  0  0.50       -18.5828   2.0000                                         
     2  1  0.50        -7.0898   3.0000                                         
     3  2  1.50        -6.8029   0.0000                                         
   Description                                                                  
     l       E           TYP  RCUT    TYP  RCUT                                 
     0    -18.5828119     23  1.200                                             
     0    -13.5018863     23  1.200                                             
     1     -7.0897853     23  1.500                                             
     1      9.5240782     23  1.500                                             
     2     -6.8029130      7  1.500                                             
  local pseudopotential read in
  partial core-charges read in
  partial kinetic energy density read in
  atomic valenz-charges read in
  non local Contribution for L=           0  read in
    real space projection operators read in
  non local Contribution for L=           0  read in
    real space projection operators read in
  non local Contribution for L=           1  read in
    real space projection operators read in
  non local Contribution for L=           1  read in
    real space projection operators read in
    PAW grid and wavefunctions read in
 
   number of l-projection  operators is LMAX  =           4
   number of lm-projection operators is LMMAX =           8
 
 POTCAR:    PAW_PBE C 08Apr2002                   
   SHA256 =  253f7b50bb8d59471dbedb8285d89021f4a42ed1a2c5d38a03a736e69125dd95 C/
   COPYR  = (c) Copyright 08Apr2002 Georg Kresse                                
   COPYR  = This file is part of the software VASP. Any use, copying, and all ot
   COPYR  = If you do not have a valid VASP license, you may not use, copy or di
   VRHFIN =C: s2p2                                                              
   LEXCH  = PE                                                                  
   EATOM  =   147.1560 eV,   10.8157 Ry                                         
                                                                                
   TITEL  = PAW_PBE C 08Apr2002                                                 
   LULTRA =        F    use ultrasoft PP ?                                      
   IUNSCR =        1    unscreen: 0-lin 1-nonlin 2-no                           
   RPACOR =    1.200    partial core radius                                     
   POMASS =   12.011; ZVAL   =    4.000    mass and valenz                      
   RCORE  =    1.500    outmost cutoff radius                                   
   RWIGS  =    1.630; RWIGS  =    0.863    wigner-seitz radius (au A)           
   ENMAX  =  400.000; ENMIN  =  300.000 eV                                      
   ICORE  =        2    local potential                                         
   LCOR   =        T    correct aug charges                                     
   LPAW   =        T    paw PP                                                  
   EAUG   =  644.873                                                            
   DEXC   =    0.000                                                            
   RMAX   =    1.529    core radius for proj-oper                               
   RAUG   =    1.300    factor for augmentation sphere                          
   RDEP   =    1.501    radius for radial grids                                 
   RDEPT  =    1.300    core radius for aug-charge                              
                                                                                
   Atomic configuration                                                         
    4 entries                                                                   
     n  l   j            E        occ.                                          
     1  0  0.50      -273.3789   2.0000                                         
     2  0  0.50       -13.7508   2.0000                                         
     2  1  0.50        -5.2854   2.0000                                         
     3  2  1.50        -5.4423   0.0000                                         
   Description                                                                  
     l       E           TYP  RCUT    TYP  RCUT                                 
     0    -13.7508458     23  1.200                                             
     0     -8.2022199     23  1.200                                             
     1     -5.2854383     23  1.500                                             
     1     34.0145650     23  1.500                                             
     2     -5.4423304      7  1.500                                             
  local pseudopotential read in
  partial core-charges read in
  partial kinetic energy density read in
  atomic valenz-charges read in
  non local Contribution for L=           0  read in
    real space projection operators read in
  non local Contribution for L=           0  read in
    real space projection operators read in
  non local Contribution for L=           1  read in
    real space projection operators read in
  non local Contribution for L=           1  read in
    real space projection operators read in
    PAW grid and wavefunctions read in
 
   number of l-projection  operators is LMAX  =           4
   number of lm-projection operators is LMMAX =           8
 
 POTCAR:    PAW_PBE Cr_pv 02Aug2007               
   SHA256 =  c9a7df34d3cdbacf1090e328ef39c0b420964e11c23f63548d1ac9dd218cdba0 Cr
   COPYR  = (c) Copyright 02Aug2007 Georg Kresse                                
   COPYR  = This file is part of the software VASP. Any use, copying, and all ot
   COPYR  = If you do not have a valid VASP license, you may not use, copy or di
   VRHFIN =Cr : p6d5s1                                                          
   LEXCH  = PE                                                                  
   EATOM  =  1647.9177 eV,  121.1185 Ry                                         
                                                                                
   TITEL  = PAW_PBE Cr_pv 02Aug2007                                             
   LULTRA =        F    use ultrasoft PP ?                                      
   IUNSCR =        1    unscreen: 0-lin 1-nonlin 2-no                           
   RPACOR =    2.080    partial core radius                                     
   POMASS =   51.996; ZVAL   =   12.000    mass and valenz                      
   RCORE  =    2.300    outmost cutoff radius                                   
   RWIGS  =    2.500; RWIGS  =    1.323    wigner-seitz radius (au A)           
   ENMAX  =  265.681; ENMIN  =  199.261 eV                                      
   ICORE  =        3    local potential                                         
   LCOR   =        T    correct aug charges                                     
   LPAW   =        T    paw PP                                                  
   EAUG   =  519.424                                                            
   DEXC   =    0.000                                                            
   RMAX   =    2.356    core radius for proj-oper                               
   RAUG   =    1.300    factor for augmentation sphere                          
   RDEP   =    2.447    radius for radial grids                                 
   RDEPT  =    1.882    core radius for aug-charge                              
                                                                                
   Atomic configuration                                                         
    8 entries                                                                   
     n  l   j            E        occ.                                          
     1  0  0.50     -5880.4963   2.0000                                         
     2  0  0.50      -667.0865   2.0000                                         
     2  1  1.50      -560.6250   6.0000                                         
     3  0  0.50       -73.9860   2.0000                                         
     3  1  1.50       -45.4378   6.0000                                         
     3  2  2.50        -2.9137   5.0000                                         
     4  0  0.50        -4.0071   1.0000                                         
     4  3  2.50        -1.3606   0.0000                                         
   Description                                                                  
     l       E           TYP  RCUT    TYP  RCUT                                 
     1    -45.4377911     23  2.000                                             
     1      1.3605826     23  2.000                                             
     2     -2.9136672     23  2.300                                             
     2     -4.2742498     23  2.300                                             
     0     -4.0071320     23  2.300                                             
     0      9.4498803     23  2.300                                             
     3      2.7211652     23  2.300                                             
  local pseudopotential read in
  partial core-charges read in
  partial kinetic energy density read in
  atomic valenz-charges read in
  non local Contribution for L=           1  read in
    real space projection operators read in
  non local Contribution for L=           1  read in
    real space projection operators read in
  non local Contribution for L=           2  read in
    real space projection operators read in
  non local Contribution for L=           2  read in
    real space projection operators read in
  non local Contribution for L=           0  read in
    real space projection operators read in
  non local Contribution for L=           0  read in
    real space projection operators read in
    PAW grid and wavefunctions read in
 
   number of l-projection  operators is LMAX  =           6
   number of lm-projection operators is LMMAX =          18
 
 POTCAR:    PAW_PBE C 08Apr2002                   
   SHA256 =  253f7b50bb8d59471dbedb8285d89021f4a42ed1a2c5d38a03a736e69125dd95 C/
   COPYR  = (c) Copyright 08Apr2002 Georg Kresse                                
   COPYR  = This file is part of the software VASP. Any use, copying, and all ot
   COPYR  = If you do not have a valid VASP license, you may not use, copy or di
   VRHFIN =C: s2p2                                                              
   LEXCH  = PE                                                                  
   EATOM  =   147.1560 eV,   10.8157 Ry                                         
                                                                                
   TITEL  = PAW_PBE C 08Apr2002                                                 
   LULTRA =        F    use ultrasoft PP ?                                      
   IUNSCR =        1    unscreen: 0-lin 1-nonlin 2-no                           
   RPACOR =    1.200    partial core radius                                     
   POMASS =   12.011; ZVAL   =    4.000    mass and valenz                      
   RCORE  =    1.500    outmost cutoff radius                                   
   RWIGS  =    1.630; RWIGS  =    0.863    wigner-seitz radius (au A)           
   ENMAX  =  400.000; ENMIN  =  300.000 eV                                      
   ICORE  =        2    local potential                                         
   LCOR   =        T    correct aug charges                                     
   LPAW   =        T    paw PP                                                  
   EAUG   =  644.873                                                            
   DEXC   =    0.000                                                            
   RMAX   =    1.529    core radius for proj-oper                               
   RAUG   =    1.300    factor for augmentation sphere                          
   RDEP   =    1.501    radius for radial grids                                 
   RDEPT  =    1.300    core radius for aug-charge                              
                                                                                
   Atomic configuration                                                         
    4 entries                                                                   
     n  l   j            E        occ.                                          
     1  0  0.50      -273.3789   2.0000                                         
     2  0  0.50       -13.7508   2.0000                                         
     2  1  0.50        -5.2854   2.0000                                         
     3  2  1.50        -5.4423   0.0000                                         
   Description                                                                  
     l       E           TYP  RCUT    TYP  RCUT                                 
     0    -13.7508458     23  1.200                                             
     0     -8.2022199     23  1.200                                             
     1     -5.2854383     23  1.500                                             
     1     34.0145650     23  1.500                                             
     2     -5.4423304      7  1.500                                             
  local pseudopotential read in
  partial core-charges read in
  partial kinetic energy density read in
  atomic valenz-charges read in
  non local Contribution for L=           0  read in
    real space projection operators read in
  non local Contribution for L=           0  read in
    real space projection operators read in
  non local Contribution for L=           1  read in
    real space projection operators read in
  non local Contribution for L=           1  read in
    real space projection operators read in
    PAW grid and wavefunctions read in
 
   number of l-projection  operators is LMAX  =           4
   number of lm-projection operators is LMMAX =           8
 
 POTCAR:    PAW_PBE O 08Apr2002                   
   SHA256 =  818f92134a0a090dccd8ba1447fa70422a3b330e708bb4f08108d8ae51209ddf O/
   COPYR  = (c) Copyright 08Apr2002 Georg Kresse                                
   COPYR  = This file is part of the software VASP. Any use, copying, and all ot
   COPYR  = If you do not have a valid VASP license, you may not use, copy or di
   VRHFIN =O: s2p4                                                              
   LEXCH  = PE                                                                  
   EATOM  =   432.3788 eV,   31.7789 Ry                                         
                                                                                
   TITEL  = PAW_PBE O 08Apr2002                                                 
   LULTRA =        F    use ultrasoft PP ?                                      
   IUNSCR =        1    unscreen: 0-lin 1-nonlin 2-no                           
   RPACOR =    1.200    partial core radius                                     
   POMASS =   16.000; ZVAL   =    6.000    mass and valenz                      
   RCORE  =    1.520    outmost cutoff radius                                   
   RWIGS  =    1.550; RWIGS  =    0.820    wigner-seitz radius (au A)           
   ENMAX  =  400.000; ENMIN  =  300.000 eV                                      
   ICORE  =        2    local potential                                         
   LCOR   =        T    correct aug charges                                     
   LPAW   =        T    paw PP                                                  
   EAUG   =  605.392                                                            
   DEXC   =    0.000                                                            
   RMAX   =    1.553    core radius for proj-oper                               
   RAUG   =    1.300    factor for augmentation sphere                          
   RDEP   =    1.550    radius for radial grids                                 
   RDEPT  =    1.329    core radius for aug-charge                              
                                                                                
   Atomic configuration                                                         
    4 entries                                                                   
     n  l   j            E        occ.                                          
     1  0  0.50      -514.6923   2.0000                                         
     2  0  0.50       -23.9615   2.0000                                         
     2  1  0.50        -9.0305   4.0000                                         
     3  2  1.50        -9.5241   0.0000                                         
   Description                                                                  
     l       E           TYP  RCUT    TYP  RCUT                                 
     0    -23.9615318     23  1.200                                             
     0     -9.5240782     23  1.200                                             
     1     -9.0304911     23  1.520                                             
     1      8.1634956     23  1.520                                             
     2     -9.5240782      7  1.500                                             
  local pseudopotential read in
  partial core-charges read in
  partial kinetic energy density read in
  kinetic energy density of atom read in
  atomic valenz-charges read in
  non local Contribution for L=           0  read in
    real space projection operators read in
  non local Contribution for L=           0  read in
    real space projection operators read in
  non local Contribution for L=           1  read in
    real space projection operators read in
  non local Contribution for L=           1  read in
    real space projection operators read in
    PAW grid and wavefunctions read in
 
   number of l-projection  operators is LMAX  =           4
   number of lm-projection operators is LMMAX =           8
 

 ----------------------------------------------------------------------------- 
|                                                                             |
|  ADVICE TO THIS USER RUNNING 'VASP/VAMP'   (HEAR YOUR MASTER'S VOICE ...):  |
|                                                                             |
|      You have a (more or less) 'large supercell' and for larger cells       |
|      it might be more efficient to use real space projection opertators     |
|      So try LREAL= Auto  in the INCAR   file.                               |
|      Mind:          For very  accurate calculation you might also keep the  |
|      reciprocal projection scheme          (i.e. LREAL=.FALSE.)             |
|                                                                             |
 ----------------------------------------------------------------------------- 

  PAW_PBE C 08Apr2002                   :
 energy of atom  1       EATOM= -147.1560
 kinetic energy error for atom=    0.0132 (will be added to EATOM!!)
  PAW_PBE N 08Apr2002                   :
 energy of atom  2       EATOM= -264.5486
 kinetic energy error for atom=    0.0298 (will be added to EATOM!!)
  PAW_PBE C 08Apr2002                   :
 energy of atom  3       EATOM= -147.1560
 kinetic energy error for atom=    0.0132 (will be added to EATOM!!)
  PAW_PBE Cr_pv 02Aug2007               :
 energy of atom  4       EATOM=-1647.9177
 kinetic energy error for atom=    0.0134 (will be added to EATOM!!)
  PAW_PBE C 08Apr2002                   :
 energy of atom  5       EATOM= -147.1560
 kinetic energy error for atom=    0.0132 (will be added to EATOM!!)
  PAW_PBE O 08Apr2002                   :
 energy of atom  6       EATOM= -432.3788
 kinetic energy error for atom=    0.0458 (will be added to EATOM!!)
 
 
 POSCAR: POSCAR-clean                            
  positions in direct lattice
  velocities in cartesian coordinates
 exchange correlation table for  LEXCH =        8
   RHO(1)=    0.500       N(1)  =     2000
   RHO(2)=  100.500       N(2)  =     4000

 VTST: version 3.2, (02/03/18)

 CHAIN: initializing optimizer
 
 OPT: Using VASP Dynamics algorithm
 CHAIN: Read ICHAIN            0
 
 POSCAR: POSCAR-clean                            
  positions in direct lattice
  velocities in cartesian coordinates
 


--------------------------------------------------------------------------------------------------------


 ion  position               nearest neighbor table
   1  1.000  1.000  0.491-   2 1.43  60 1.43  70 1.44
   2  0.056  0.112  0.491-   1 1.43  13 1.43  15 1.44
   3  0.168  0.002  0.490-   4 1.43  62 1.43  60 1.43
   4  0.224  0.114  0.492-   3 1.43  15 1.43  17 1.44
   5  0.334  0.003  0.490-   6 1.42  62 1.43  64 1.43
   6  0.390  0.114  0.493-   5 1.42  19 1.43  17 1.44
   7  0.500  0.000  0.491-   8 1.42  64 1.42  66 1.44
   8  0.556  0.112  0.492-   7 1.42  21 1.43  19 1.44
   9  0.665  0.997  0.493-  66 1.42  10 1.42  68 1.44
  10  0.722  0.109  0.491-   9 1.42  23 1.43  21 1.43
  11  0.831  0.997  0.493-  12 1.43  70 1.43  68 1.44
  12  0.888  0.109  0.491-  11 1.43  23 1.43  13 1.43
  13  0.999  0.166  0.490-  14 1.43   2 1.43  12 1.43
  14  0.055  0.277  0.489-  13 1.43  27 1.43  25 1.43
  15  0.168  0.169  0.492-   4 1.43  16 1.43   2 1.44
  16  0.224  0.281  0.494-  15 1.43  27 1.43  29 1.44
  17  0.336  0.171  0.495-  18 1.43   4 1.44   6 1.44
  18  0.392  0.283  0.501-  17 1.43  29 1.44  31 1.44
  19  0.501  0.168  0.493-  20 1.42   6 1.43   8 1.44
  20  0.558  0.280  0.497-  19 1.42  33 1.43  31 1.45
  21  0.667  0.165  0.491-  22 1.42   8 1.43  10 1.43
  22  0.723  0.277  0.492-  21 1.42  35 1.43  33 1.43
  23  0.833  0.165  0.490-  24 1.42  10 1.43  12 1.43
  24  0.889  0.276  0.489-  23 1.42  25 1.43  35 1.43
  25  1.000  0.333  0.488-  26 1.42  24 1.43  14 1.43
  26  0.055  0.444  0.487-  39 1.42  37 1.42  25 1.42
  27  0.166  0.334  0.492-  28 1.42  14 1.43  16 1.43
  28  0.220  0.446  0.492-  41 1.41  27 1.42  39 1.42
  29  0.336  0.339  0.501-  30 1.43  16 1.44  18 1.44
  30  0.388  0.450  0.509-  41 1.42  29 1.43  71 1.95
  31  0.504  0.338  0.504-  32 1.42  18 1.44  20 1.45
  32  0.563  0.449  0.512-  43 1.41  31 1.42  71 1.99
  33  0.668  0.333  0.495-  34 1.42  22 1.43  20 1.43
  34  0.726  0.443  0.496-  43 1.41  33 1.42  45 1.42
  35  0.834  0.332  0.490-  36 1.42  22 1.43  24 1.43
  36  0.890  0.444  0.490-  45 1.42  37 1.42  35 1.42
  37  0.001  0.500  0.488-  36 1.42  26 1.42  38 1.42
  38  0.056  0.612  0.488-  49 1.42  47 1.42  37 1.42
  39  0.165  0.501  0.488-  26 1.42  40 1.42  28 1.42
  40  0.220  0.612  0.488-  51 1.42  49 1.42  39 1.42
  41  0.330  0.502  0.499-  28 1.41  30 1.42  42 1.43
  42  0.385  0.614  0.499-  53 1.37  51 1.41  41 1.43
  43  0.672  0.499  0.502-  34 1.41  32 1.41  44 1.43
  44  0.728  0.611  0.498-  57 1.41  55 1.41  43 1.43
  45  0.836  0.500  0.492-  36 1.42  34 1.42  46 1.42
  46  0.892  0.611  0.493-  47 1.41  45 1.42  57 1.42
  47  0.002  0.668  0.490-  46 1.41  38 1.42  48 1.43
  48  0.057  0.779  0.490-  61 1.42  47 1.43  59 1.43
  49  0.166  0.668  0.487-  38 1.42  40 1.42  50 1.42
  50  0.222  0.780  0.488-  63 1.42  49 1.42  61 1.43
  51  0.331  0.668  0.491-  42 1.41  52 1.42  40 1.42
  52  0.387  0.779  0.491-  51 1.42  65 1.42  63 1.42
  53  0.491  0.666  0.508-  42 1.37  54 1.38  71 2.03
  54  0.550  0.773  0.500-  53 1.38  65 1.44  67 1.44
  55  0.668  0.661  0.499-  44 1.41  56 1.42  71 2.00
  56  0.719  0.771  0.496-  55 1.42  67 1.45  69 1.45
  57  0.837  0.667  0.494-  44 1.41  58 1.42  46 1.42
  58  0.890  0.778  0.493-  57 1.42  59 1.43  69 1.43
  59  0.001  0.835  0.491-  60 1.42  58 1.43  48 1.43
  60  0.056  0.946  0.490-  59 1.42   1 1.43   3 1.43
  61  0.167  0.835  0.489-  48 1.42  62 1.42  50 1.43
  62  0.223  0.947  0.489-  61 1.42   5 1.43   3 1.43
  63  0.333  0.835  0.489-  64 1.42  50 1.42  52 1.42
  64  0.389  0.947  0.490-  63 1.42   7 1.42   5 1.43
  65  0.498  0.832  0.494-  52 1.42  66 1.42  54 1.44
  66  0.555  0.944  0.492-  65 1.42   9 1.42   7 1.44
  67  0.662  0.827  0.497-  68 1.43  54 1.44  56 1.45
  68  0.719  0.940  0.494-  67 1.43   9 1.44  11 1.44
  69  0.832  0.831  0.494-  70 1.43  58 1.43  56 1.45
  70  0.888  0.943  0.493-  69 1.43  11 1.43   1 1.44
  71  0.528  0.557  0.547-  72 1.93  30 1.95  32 1.99  55 2.00  53 2.03
  72  0.502  0.522  0.672-  73 1.16  71 1.93
  73  0.500  0.512  0.749-  72 1.16
 

IMPORTANT INFORMATION: All symmetrisations will be switched off!
NOSYMM: (Re-)initialisation of all symmetry stuff for point group C_1.

 
 
 KPOINTS: K-Points                                

Automatic generation of k-mesh.
Space group operators:
 irot       det(A)        alpha          n_x          n_y          n_z        tau_x        tau_y        tau_z
    1     1.000000     0.000000     1.000000     0.000000     0.000000     0.000000     0.000000     0.000000
 
 Subroutine IBZKPT returns following result:
 ===========================================
 
 Found      5 irreducible k-points:
 
 Following reciprocal coordinates:
            Coordinates               Weight
  0.000000  0.000000  0.000000      1.000000
  0.333333  0.000000  0.000000      2.000000
 -0.000000  0.333333  0.000000      2.000000
  0.333333  0.333333  0.000000      2.000000
 -0.333333  0.333333  0.000000      2.000000
 
 Following cartesian coordinates:
            Coordinates               Weight
  0.000000  0.000000  0.000000      1.000000
  0.022424  0.013064  0.000000      2.000000
  0.000106  0.026129  0.000000      2.000000
  0.022529  0.039193  0.000000      2.000000
 -0.022318  0.013064  0.000000      2.000000
 
 TETIRR: Found     24 inequivalent tetrahedra from       54


--------------------------------------------------------------------------------------------------------




 Dimension of arrays:
   k-points           NKPTS =      5   k-points in BZ     NKDIM =      5   number of bands    NBANDS=    192
   number of dos      NEDOS =   4000   number of ions     NIONS =     73
   non local maximal  LDIM  =      6   non local SUM 2l+1 LMDIM =     18
   total plane-waves  NPLWV = 512000
   max r-space proj   IRMAX =      1   max aug-charges    IRDMAX=   6447
   dimension x,y,z NGX =    80 NGY =   80 NGZ =   80
   dimension x,y,z NGXF=   160 NGYF=  160 NGZF=  160
   support grid    NGXF=   160 NGYF=  160 NGZF=  160
   ions per type =              52   1  17   1   1   1
   NGX,Y,Z   is equivalent  to a cutoff of   8.93,  8.99,  8.87 a.u.
   NGXF,Y,Z  is equivalent  to a cutoff of  17.85, 17.97, 17.73 a.u.

 SYSTEM =  unknown system                          
 POSCAR =  POSCAR-clean                            

 Startparameter for this run:
   NWRITE =      2    write-flag & timer
   PREC   = normal    normal or accurate (medium, high low for compatibility)
   ISTART =      0    job   : 0-new  1-cont  2-samecut
   ICHARG =      2    charge: 1-file 2-atom 10-const
   ISPIN  =      2    spin polarized calculation?
   LNONCOLLINEAR =      F non collinear calculations
   LSORBIT =      F    spin-orbit coupling
   INIWAV =      1    electr: 0-lowe 1-rand  2-diag
   LASPH  =      F    aspherical Exc in radial PAW
   METAGGA=      F    non-selfconsistent MetaGGA calc.

 Electronic Relaxation 1
   ENCUT  =  440.0 eV  32.34 Ry    5.69 a.u.  25.49 25.31 25.66*2*pi/ulx,y,z
   ENINI  =  440.0     initial cutoff
   ENAUG  =  644.9 eV  augmentation charge cutoff
   NELM   =    100;   NELMIN=  2; NELMDL= -5     # of ELM steps 
   EDIFF  = 0.1E-03   stopping-criterion for ELM
   LREAL  =      F    real-space projection
   NLSPLINE    = F    spline interpolate recip. space projectors
   LCOMPAT=      F    compatible to vasp.4.4
   GGA_COMPAT  = T    GGA compatible to vasp.4.4-vasp.4.6
   LMAXPAW     = -100 max onsite density
   LMAXMIX     =    2 max onsite mixed and CHGCAR
   VOSKOWN=      0    Vosko Wilk Nusair interpolation
   ROPT   =    0.00000   0.00000   0.00000   0.00000
   ROPT   =    0.00000   0.00000
 Ionic relaxation
   EDIFFG = -.1E-01   stopping-criterion for IOM
   NSW    =      0    number of steps for IOM
   NBLOCK =      1;   KBLOCK =      1    inner block; outer block 
   IBRION =     -1    ionic relax: 0-MD 1-quasi-New 2-CG
   NFREE  =      0    steps in history (QN), initial steepest desc. (CG)
   ISIF   =      2    stress and relaxation
   IWAVPR =     10    prediction:  0-non 1-charg 2-wave 3-comb
   ISYM   =      0    0-nonsym 1-usesym 2-fastsym
   LCORR  =      T    Harris-Foulkes like correction to forces

   POTIM  = 0.5000    time-step for ionic-motion
   TEIN   =    0.0    initial temperature
   TEBEG  =    0.0;   TEEND  =   0.0 temperature during run
   SMASS  =  -3.00    Nose mass-parameter (am)
   estimated Nose-frequenzy (Omega)   =  0.10E-29 period in steps =****** mass=  -0.507E-26a.u.
   SCALEE = 1.0000    scale energy and forces
   NPACO  =    256;   APACO  = 16.0  distance and # of slots for P.C.
   PSTRESS=    0.0 pullay stress

  Mass of Ions in am
   POMASS =  12.01 14.00 12.01 52.00 12.01 16.00
  Ionic Valenz
   ZVAL   =   4.00  5.00  4.00 12.00  4.00  6.00
  Atomic Wigner-Seitz radii
   RWIGS  =  -1.00 -1.00 -1.00 -1.00 -1.00 -1.00
  virtual crystal weights 
   VCA    =   1.00  1.00  1.00  1.00  1.00  1.00
   NELECT =     303.0000    total number of electrons
   NUPDOWN=      -1.0000    fix difference up-down

 DOS related values:
   EMIN   = -14.00;   EMAX   =  6.00  energy-range for DOS
   EFERMI =   0.00
   ISMEAR =    -5;   SIGMA  =   0.20  broadening in eV -4-tet -1-fermi 0-gaus

 Electronic relaxation 2 (details)
   IALGO  =     38    algorithm
   LDIAG  =      T    sub-space diagonalisation (order eigenvalues)
   LSUBROT=      F    optimize rotation matrix (better conditioning)
   TURBO    =      0    0=normal 1=particle mesh
   IRESTART =      0    0=no restart 2=restart with 2 vectors
   NREBOOT  =      0    no. of reboots
   NMIN     =      0    reboot dimension
   EREF     =   0.00    reference energy to select bands
   IMIX   =      4    mixing-type and parameters
     AMIX     =   0.25;   BMIX     =  0.00
     AMIX_MAG =   1.00;   BMIX_MAG =  0.00
     AMIN     =   0.10
     WC   =   100.;   INIMIX=   1;  MIXPRE=   1;  MAXMIX= -45

 Intra band minimization:
   WEIMIN = 0.0000     energy-eigenvalue tresh-hold
   EBREAK =  0.13E-06  absolut break condition
   DEPER  =   0.30     relativ break condition  

   TIME   =   0.40     timestep for ELM

  volume/ion in A,a.u.               =      39.06       263.59
  Fermi-wavevector in a.u.,A,eV,Ry     =   0.775422  1.465336  8.180906  0.601280
  Thomas-Fermi vector in A             =   1.877686
 
 Write flags
   LWAVE        =      F    write WAVECAR
   LDOWNSAMPLE  =      F    k-point downsampling of WAVECAR
   LCHARG       =      F    write CHGCAR
   LVTOT        =      F    write LOCPOT, total local potential
   LVHAR        =      F    write LOCPOT, Hartree potential only
   LELF         =      F    write electronic localiz. function (ELF)
   LORBIT       =     11    0 simple, 1 ext, 2 COOP (PROOUT), +10 PAW based schemes


 Dipole corrections
   LMONO  =      F    monopole corrections only (constant potential shift)
   LDIPOL =      F    correct potential (dipole corrections)
   IDIPOL =      0    1-x, 2-y, 3-z, 4-all directions 
   EPSILON=  1.0000000 bulk dielectric constant

 Exchange correlation treatment:
   GGA     =    --    GGA type
   LEXCH   =     8    internal setting for exchange type
   VOSKOWN=      0    Vosko Wilk Nusair interpolation
   LHFCALC =     F    Hartree Fock is set to
   LHFONE  =     F    Hartree Fock one center treatment
   AEXX    =    0.0000 exact exchange contribution

 Linear response parameters
   LEPSILON=     F    determine dielectric tensor
   LRPA    =     F    only Hartree local field effects (RPA)
   LNABLA  =     F    use nabla operator in PAW spheres
   LVEL    =     F    velocity operator in full k-point grid
   LINTERFAST=   F  fast interpolation
   KINTER  =     0    interpolate to denser k-point grid
   CSHIFT  =0.1000    complex shift for real part using Kramers Kronig
   OMEGAMAX=  -1.0    maximum frequency
   DEG_THRESHOLD= 0.2000000E-02 threshold for treating states as degnerate
   RTIME   =   -0.100 relaxation time in fs
  (WPLASMAI=    0.000 imaginary part of plasma frequency in eV, 0.658/RTIME)
   DFIELD  = 0.0000000 0.0000000 0.0000000 field for delta impulse in time
 
 Orbital magnetization related:
   ORBITALMAG=     F  switch on orbital magnetization
   LCHIMAG   =     F  perturbation theory with respect to B field
   DQ        =  0.001000  dq finite difference perturbation B field
   LLRAUG    =     F  two centre corrections for induced B field



--------------------------------------------------------------------------------------------------------


 Static calculation
 charge density and potential will be updated during run
 spin polarized calculation
 Variant of blocked Davidson
 Davidson routine will perform the subspace rotation
 perform sub-space diagonalisation
    after iterative eigenvector-optimisation
 modified Broyden-mixing scheme, WC =      100.0
 initial mixing is a Kerker type mixing with AMIX =  0.2500 and BMIX =      0.0001
 Hartree-type preconditioning will be used
 using additional bands           40
 reciprocal scheme for non local part
 use partial core corrections
 calculate Harris-corrections to forces 
   (improved forces if not selfconsistent)
 use gradient corrections 
 use of overlap-Matrix (Vanderbilt PP)
 Fermi weights with tetrahedron method with Bloechl corrections


--------------------------------------------------------------------------------------------------------


  energy-cutoff  :      440.00
  volume of cell :     2851.36
      direct lattice vectors                 reciprocal lattice vectors
    14.900557007 -0.060417792  0.000000000     0.067270503  0.039193260  0.000000000
    -7.450278504 12.787504481  0.000000000     0.000317836  0.078386520  0.000000000
     0.000000000  0.000000000 15.000000000     0.000000000  0.000000000  0.066666667

  length of vectors
    14.900679496 14.799558123 15.000000000     0.077855200  0.078387164  0.066666667


 
 k-points in units of 2pi/SCALE and weight: K-Points                                
   0.00000000  0.00000000  0.00000000       0.111
   0.02242350  0.01306442  0.00000000       0.222
   0.00010595  0.02612884  0.00000000       0.222
   0.02252945  0.03919326  0.00000000       0.222
  -0.02231756  0.01306442  0.00000000       0.222
 
 k-points in reciprocal lattice and weights: K-Points                                
   0.00000000  0.00000000  0.00000000       0.111
   0.33333333  0.00000000  0.00000000       0.222
  -0.00000000  0.33333333  0.00000000       0.222
   0.33333333  0.33333333  0.00000000       0.222
  -0.33333333  0.33333333  0.00000000       0.222
 
 position of ions in fractional coordinates (direct lattice) 
   0.99960572  0.99987271  0.49117718
   0.05569804  0.11157355  0.49069375
   0.16777593  0.00246693  0.48990778
   0.22382652  0.11424353  0.49185340
   0.33439787  0.00278519  0.49010898
   0.39033943  0.11419349  0.49256266
   0.49986298  0.00029147  0.49104990
   0.55597900  0.11158288  0.49157855
   0.66543050  0.99739642  0.49301413
   0.72175219  0.10902297  0.49140274
   0.83128729  0.99691181  0.49263128
   0.88755227  0.10870191  0.49076132
   0.99910473  0.16558488  0.49012181
   0.05509816  0.27730074  0.48936966
   0.16760905  0.16875193  0.49192328
   0.22372391  0.28064980  0.49444572
   0.33564152  0.17109352  0.49464130
   0.39156213  0.28254062  0.50124589
   0.50126508  0.16832408  0.49323240
   0.55750480  0.27978856  0.49673286
   0.66689561  0.16527521  0.49145043
   0.72302877  0.27653953  0.49177779
   0.83273833  0.16471933  0.49022351
   0.88863088  0.27629182  0.48874887
   0.99961259  0.33259594  0.48795891
   0.05490315  0.44416929  0.48733927
   0.16620063  0.33407526  0.49185059
   0.22043763  0.44561312  0.49217924
   0.33573780  0.33872551  0.50142404
   0.38787366  0.45028679  0.50948563
   0.50395543  0.33809902  0.50380513
   0.56311209  0.44873236  0.51242483
   0.66843153  0.33250185  0.49506839
   0.72588333  0.44345109  0.49624035
   0.83396407  0.33222210  0.48972040
   0.89019916  0.44382627  0.48951039
   0.00058961  0.50015928  0.48773241
   0.05596969  0.61165130  0.48786883
   0.16509498  0.50059482  0.48836299
   0.22035708  0.61190477  0.48793766
   0.33025753  0.50206731  0.49914398
   0.38532689  0.61439022  0.49861535
   0.67217548  0.49872961  0.50209965
   0.72778709  0.61096396  0.49800561
   0.83635392  0.49970828  0.49242649
   0.89176834  0.61115949  0.49253219
   0.00164634  0.66758342  0.48981253
   0.05651363  0.77928610  0.48950619
   0.16634533  0.66795803  0.48729103
   0.22218780  0.77959262  0.48815649
   0.33070001  0.66847105  0.49094171
   0.38740630  0.77939905  0.49125222
   0.49145837  0.66558302  0.50757149
   0.55007052  0.77297692  0.49965037
   0.66806363  0.66051000  0.49908567
   0.71906470  0.77133714  0.49627389
   0.83721938  0.66695133  0.49435621
   0.89010250  0.77805407  0.49262722
   0.00111855  0.83457168  0.49074448
   0.05631729  0.94590169  0.49046583
   0.16730191  0.83535760  0.48857247
   0.22315843  0.94694499  0.48920755
   0.33295890  0.83538528  0.48946320
   0.38920135  0.94659747  0.49017891
   0.49795954  0.83226436  0.49389769
   0.55471988  0.94367730  0.49244275
   0.66243018  0.82725906  0.49748215
   0.71910392  0.93950105  0.49426800
   0.83203290  0.83082924  0.49365095
   0.88772724  0.94261296  0.49261213
   0.52769969  0.55687852  0.54709300
   0.50245667  0.52211921  0.67196896
   0.49998057  0.51182823  0.74903941
 
 position of ions in cartesian coordinates  (Angst):
   7.44535185 12.72548276  7.36765767
  -0.00132211  1.42338208  7.36040627
   2.48157544  0.02140926  7.34861676
   2.48399371  1.44736650  7.37780093
   4.96196414  0.01541201  7.35163477
   4.96550156  1.43666638  7.38843983
   7.44606532 -0.02647342  7.36574849
   7.45307324  1.39327561  7.37367818
   2.48440395 12.71400739  7.39521197
   9.94225809  1.35052508  7.37104112
   4.95937311 12.69778963  7.38946918
  12.41516378  1.33640216  7.36141975
  13.65356359  2.05705364  7.35182708
  -1.24497440  3.54265552  7.34054489
   1.24021933  2.14778945  7.37884922
   1.24269173  3.57529369  7.41668585
   3.72655117  2.16758049  7.41961955
   3.72948744  3.58933216  7.51868842
   6.21506764  2.12215955  7.39848594
   6.22262938  3.54411427  7.45099294
   8.70576973  2.07316514  7.37175648
   8.71323498  3.49256664  7.37666679
  11.18106001  2.05603700  7.35335259
  11.18264406  3.47939378  7.33123298
  12.41685204  4.19267772  7.31938372
  -2.49109744  5.67649961  7.31008908
  -0.01247181  4.26194738  7.37775882
  -0.03529837  5.68496147  7.38268860
   2.47908087  4.31116938  7.52136063
   2.42477152  5.73460989  7.64228438
   4.99028468  4.29299487  7.55707696
   5.04750268  5.70414507  7.68637242
   7.48277074  4.21148379  7.42602587
   7.51223185  5.62677657  7.44360523
   9.95138204  4.19790534  7.34580599
   9.95783396  5.62164661  7.34265580
  -3.71754041  6.39575340  7.31598615
  -3.72299301  7.81811216  7.31803246
  -1.26956370  6.39138378  7.32544488
  -1.27541770  7.81142152  7.31906486
   1.18047995  6.40023450  7.48715972
   1.16420706  7.83323709  7.47923026
   6.30011451  6.33689575  7.53149476
   6.29258131  7.76873309  7.47008418
   8.73917336  6.33949126  7.38639739
   8.73453648  7.76132610  7.38798284
  -4.94915098  8.53662657  7.34718798
  -4.96381383  9.96171003  7.34259280
  -2.49783535  8.53146612  7.30936547
  -2.49746015  9.95561998  7.32234737
  -0.05268106  8.52809633  7.36412563
  -0.03417032  9.94316264  7.36878328
   2.36422464  8.48145301  7.61357229
   2.43746379  9.85121174  7.49475551
   5.03353669  8.40591169  7.48628502
   4.96778812  9.82003282  7.44410839
   7.50606196  8.47806011  7.41534315
   7.46630349  9.89559188  7.38940833
  -6.20112449 10.67202157  7.36116719
  -6.20807201 12.09231948  7.35698746
  -3.73075512 10.67203108  7.32858710
  -3.72981900 12.09558059  7.33811322
  -1.26257993 10.66237640  7.34194799
  -1.25309782 12.08110470  7.35268368
   1.21927321 10.61249862  7.40846538
   1.23497645 12.03376273  7.38664121
   3.70726832 10.53855632  7.46223232
   3.71550447 11.97042725  7.41401999
   6.20784441 10.57396305  7.40476425
   6.20490129 12.00003290  7.38918196
   3.71411924  7.08920409  8.20639498
   3.59695080  6.64624439 10.07953437
   3.63672609  6.51479803 11.23559108
 


--------------------------------------------------------------------------------------------------------


 k-point  1 :   0.0000 0.0000 0.0000  plane waves:   59727
 k-point  2 :   0.3333 0.0000 0.0000  plane waves:   59738
 k-point  3 :  -0.0000 0.3333 0.0000  plane waves:   59792
 k-point  4 :   0.3333 0.3333 0.0000  plane waves:   59781
 k-point  5 :  -0.3333 0.3333 0.0000  plane waves:   59752

 maximum and minimum number of plane-waves per node :      5008     4944

 maximum number of plane-waves:     59792
 maximum index in each direction: 
   IXMAX=   25   IYMAX=   25   IZMAX=   25
   IXMIN=  -25   IYMIN=  -25   IZMIN=  -25


 parallel 3D FFT for wavefunctions:
    minimum data exchange during FFTs selected (reduces bandwidth)
 parallel 3D FFT for charge:
    minimum data exchange during FFTs selected (reduces bandwidth)


 total amount of memory used by VASP MPI-rank0   116462. kBytes
=======================================================================

   base      :      30000. kBytes
   nonl-proj :      27461. kBytes
   fftplans  :       4700. kBytes
   grid      :      15193. kBytes
   one-center:        217. kBytes
   wavefun   :      38891. kBytes
 
     INWAV:  cpu time    0.0000: real time    0.0001
 Broyden mixing: mesh for mixing (old mesh)
   NGX = 51   NGY = 51   NGZ = 51
  (NGX  =160   NGY  =160   NGZ  =160)
  gives a total of 132651 points

 initial charge density was supplied:
 charge density of overlapping atoms calculated
 number of electron     303.0000000 magnetization       2.0000000
 keeping initial charge density in first step


--------------------------------------------------------------------------------------------------------


 Maximum index for augmentation-charges          180 (set IRDMAX)


--------------------------------------------------------------------------------------------------------


 First call to EWALD:  gamma=   0.125
 Maximum number of real-space cells 3x 3x 3
 Maximum number of reciprocal cells 3x 3x 3

    FEWALD:  cpu time    0.0030: real time    0.0031


--------------------------------------- Iteration      1(   1)  ---------------------------------------


    POTLOK:  cpu time    0.2146: real time    0.2521
    SETDIJ:  cpu time    0.0087: real time    0.0094
     EDDAV:  cpu time   11.2648: real time   12.1924
 BZINTS: Fermi energy:  8.060429;303.000000 electrons
         Band energy:***********;  BLOECHL correction: -0.006098
       DOS:  cpu time    0.1171: real time    1.5493
    --------------------------------------------
      LOOP:  cpu time   11.6052: real time   14.0032

 eigenvalue-minimisations  :  4368
 total energy-change (2. order) : 0.2538879E+04  (-0.1118864E+05)
 number of electron     303.0000000 magnetization       2.0000000
 augmentation part      303.0000000 magnetization       2.0000000

 Free energy of the ion-electron system (eV)
  ---------------------------------------------------
  alpha Z        PSCENC =       166.77096332
  Ewald energy   TEWEN  =     30648.76239497
  -Hartree energ DENC   =    -40322.13146619
  -exchange      EXHF   =         0.00000000
  -V(xc)+E(xc)   XCENC  =      1022.68627465
  PAW double counting   =      9455.23336183    -9546.47664214
  entropy T*S    EENTRO =         0.00000000
  eigenvalues    EBANDS =     -1530.71878317
  atomic energy  EATOM  =     12644.75315347
  Solvation  Ediel_sol  =         0.00000000
  ---------------------------------------------------
  free energy    TOTEN  =      2538.87925674 eV

  energy without entropy =     2538.87925674  energy(sigma->0) =     2538.87925674


--------------------------------------------------------------------------------------------------------




--------------------------------------- Iteration      1(   2)  ---------------------------------------


     EDDAV:  cpu time   15.0117: real time   15.9377
 BZINTS: Fermi energy: -1.688947;303.000000 electrons
         Band energy:***********;  BLOECHL correction: -0.024308
       DOS:  cpu time    0.0114: real time    0.0115
    --------------------------------------------
      LOOP:  cpu time   15.0231: real time   15.9492

 eigenvalue-minimisations  :  5480
 total energy-change (2. order) :-0.2779105E+04  (-0.2654741E+04)
 number of electron     303.0000000 magnetization       2.0000000
 augmentation part      303.0000000 magnetization       2.0000000

 Free energy of the ion-electron system (eV)
  ---------------------------------------------------
  alpha Z        PSCENC =       166.77096332
  Ewald energy   TEWEN  =     30648.76239497
  -Hartree energ DENC   =    -40322.13146619
  -exchange      EXHF   =         0.00000000
  -V(xc)+E(xc)   XCENC  =      1022.68627465
  PAW double counting   =      9455.23336183    -9546.47664214
  entropy T*S    EENTRO =         0.00000000
  eigenvalues    EBANDS =     -4309.82419309
  atomic energy  EATOM  =     12644.75315347
  Solvation  Ediel_sol  =         0.00000000
  ---------------------------------------------------
  free energy    TOTEN  =      -240.22615317 eV

  energy without entropy =     -240.22615317  energy(sigma->0) =     -240.22615317


--------------------------------------------------------------------------------------------------------




--------------------------------------- Iteration      1(   3)  ---------------------------------------


     EDDAV:  cpu time   12.6031: real time   12.8194
 BZINTS: Fermi energy: -4.540554;303.000000 electrons
         Band energy:***********;  BLOECHL correction: -0.047703
       DOS:  cpu time    0.0107: real time    0.0107
    --------------------------------------------
      LOOP:  cpu time   12.6139: real time   12.8301

 eigenvalue-minimisations  :  4584
 total energy-change (2. order) :-0.4626478E+03  (-0.4588784E+03)
 number of electron     303.0000000 magnetization       2.0000000
 augmentation part      303.0000000 magnetization       2.0000000

 Free energy of the ion-electron system (eV)
  ---------------------------------------------------
  alpha Z        PSCENC =       166.77096332
  Ewald energy   TEWEN  =     30648.76239497
  -Hartree energ DENC   =    -40322.13146619
  -exchange      EXHF   =         0.00000000
  -V(xc)+E(xc)   XCENC  =      1022.68627465
  PAW double counting   =      9455.23336183    -9546.47664214
  entropy T*S    EENTRO =         0.00000000
  eigenvalues    EBANDS =     -4772.47196426
  atomic energy  EATOM  =     12644.75315347
  Solvation  Ediel_sol  =         0.00000000
  ---------------------------------------------------
  free energy    TOTEN  =      -702.87392435 eV

  energy without entropy =     -702.87392435  energy(sigma->0) =     -702.87392435


--------------------------------------------------------------------------------------------------------




--------------------------------------- Iteration      1(   4)  ---------------------------------------


     EDDAV:  cpu time   13.0980: real time   13.2289
 BZINTS: Fermi energy: -4.692189;303.000000 electrons
         Band energy:***********;  BLOECHL correction: -0.044180
       DOS:  cpu time    0.0114: real time    0.0115
    --------------------------------------------
      LOOP:  cpu time   13.1094: real time   13.2404

 eigenvalue-minimisations  :  4640
 total energy-change (2. order) :-0.1661209E+02  (-0.1647842E+02)
 number of electron     303.0000000 magnetization       2.0000000
 augmentation part      303.0000000 magnetization       2.0000000

 Free energy of the ion-electron system (eV)
  ---------------------------------------------------
  alpha Z        PSCENC =       166.77096332
  Ewald energy   TEWEN  =     30648.76239497
  -Hartree energ DENC   =    -40322.13146619
  -exchange      EXHF   =         0.00000000
  -V(xc)+E(xc)   XCENC  =      1022.68627465
  PAW double counting   =      9455.23336183    -9546.47664214
  entropy T*S    EENTRO =         0.00000000
  eigenvalues    EBANDS =     -4789.08404950
  atomic energy  EATOM  =     12644.75315347
  Solvation  Ediel_sol  =         0.00000000
  ---------------------------------------------------
  free energy    TOTEN  =      -719.48600959 eV

  energy without entropy =     -719.48600959  energy(sigma->0) =     -719.48600959


--------------------------------------------------------------------------------------------------------




--------------------------------------- Iteration      1(   5)  ---------------------------------------


     EDDAV:  cpu time   14.2252: real time   14.4556
 BZINTS: Fermi energy: -4.700054;303.000000 electrons
         Band energy:***********;  BLOECHL correction: -0.044759
       DOS:  cpu time    0.0115: real time    0.0116
    CHARGE:  cpu time    0.1642: real time    0.1679
    MIXING:  cpu time    0.0049: real time    0.0049
    --------------------------------------------
      LOOP:  cpu time   14.4057: real time   14.6399

 eigenvalue-minimisations  :  5304
 total energy-change (2. order) :-0.5439233E+00  (-0.5414575E+00)
 number of electron     302.9999978 magnetization       0.0571610
 augmentation part       12.4114513 magnetization       0.0758066

 Broyden mixing:
  rms(total) = 0.47913E+01    rms(broyden)= 0.47906E+01
  rms(prec ) = 0.55197E+01
  weight for this iteration     100.00

 Free energy of the ion-electron system (eV)
  ---------------------------------------------------
  alpha Z        PSCENC =       166.77096332
  Ewald energy   TEWEN  =     30648.76239497
  -Hartree energ DENC   =    -40322.13146619
  -exchange      EXHF   =         0.00000000
  -V(xc)+E(xc)   XCENC  =      1022.68627465
  PAW double counting   =      9455.23336183    -9546.47664214
  entropy T*S    EENTRO =         0.00000000
  eigenvalues    EBANDS =     -4789.62797276
  atomic energy  EATOM  =     12644.75315347
  Solvation  Ediel_sol  =         0.00000000
  ---------------------------------------------------
  free energy    TOTEN  =      -720.02993285 eV

  energy without entropy =     -720.02993285  energy(sigma->0) =     -720.02993285


--------------------------------------------------------------------------------------------------------




--------------------------------------- Iteration      1(   6)  ---------------------------------------


    POTLOK:  cpu time    0.1478: real time    0.1501
    SETDIJ:  cpu time    0.0086: real time    0.0086
     EDDAV:  cpu time   12.7798: real time   13.3851
 BZINTS: Fermi energy: -5.540684;303.000000 electrons
         Band energy:***********;  BLOECHL correction: -0.011496
       DOS:  cpu time    0.0119: real time    0.0120
    CHARGE:  cpu time    0.1645: real time    0.1707
    MIXING:  cpu time    0.0035: real time    0.0067
    --------------------------------------------
      LOOP:  cpu time   13.1160: real time   13.7332

 eigenvalue-minimisations  :  4856
 total energy-change (2. order) :-0.2224879E+01  (-0.7521819E+01)
 number of electron     303.0000015 magnetization       0.0532652
 augmentation part       17.9560122 magnetization       0.0464266

 Broyden mixing:
  rms(total) = 0.76728E+01    rms(broyden)= 0.76725E+01
  rms(prec ) = 0.87193E+01
  weight for this iteration     100.00

 eigenvalues of (default mixing * dielectric matrix)
  average eigenvalue GAMMA=   0.2575
  0.2575

 Free energy of the ion-electron system (eV)
  ---------------------------------------------------
  alpha Z        PSCENC =       166.77096332
  Ewald energy   TEWEN  =     30648.76239497
  -Hartree energ DENC   =    -40678.59033983
  -exchange      EXHF   =         0.00000000
  -V(xc)+E(xc)   XCENC  =      1035.39972081
  PAW double counting   =     13255.06655542   -13346.49677084
  entropy T*S    EENTRO =         0.00000000
  eigenvalues    EBANDS =     -4447.92048897
  atomic energy  EATOM  =     12644.75315347
  Solvation  Ediel_sol  =         0.00000000
  ---------------------------------------------------
  free energy    TOTEN  =      -722.25481166 eV

  energy without entropy =     -722.25481166  energy(sigma->0) =     -722.25481166


--------------------------------------------------------------------------------------------------------




--------------------------------------- Iteration      1(   7)  ---------------------------------------


    POTLOK:  cpu time    0.1342: real time    0.1397
    SETDIJ:  cpu time    0.0088: real time    0.0088
     EDDAV:  cpu time   13.0511: real time   13.1697
 BZINTS: Fermi energy: -4.657582;303.000000 electrons
         Band energy:***********;  BLOECHL correction: -0.016715
       DOS:  cpu time    0.0112: real time    0.0113
    CHARGE:  cpu time    0.1649: real time    0.1713
    MIXING:  cpu time    0.0035: real time    0.0046
    --------------------------------------------
      LOOP:  cpu time   13.3735: real time   13.5055

 eigenvalue-minimisations  :  5024
 total energy-change (2. order) : 0.4448504E+02  (-0.5824869E+01)
 number of electron     302.9999982 magnetization       0.0887720
 augmentation part       14.9248086 magnetization       0.0504492

 Broyden mixing:
  rms(total) = 0.28496E+01    rms(broyden)= 0.28491E+01
  rms(prec ) = 0.32651E+01
  weight for this iteration     100.00

 eigenvalues of (default mixing * dielectric matrix)
  average eigenvalue GAMMA=   0.6235
  0.9256  0.3214

 Free energy of the ion-electron system (eV)
  ---------------------------------------------------
  alpha Z        PSCENC =       166.77096332
  Ewald energy   TEWEN  =     30648.76239497
  -Hartree energ DENC   =    -40828.09745943
  -exchange      EXHF   =         0.00000000
  -V(xc)+E(xc)   XCENC  =      1039.59698942
  PAW double counting   =     14391.59941956   -14487.24662478
  entropy T*S    EENTRO =         0.00000000
  eigenvalues    EBANDS =     -4253.90861238
  atomic energy  EATOM  =     12644.75315347
  Solvation  Ediel_sol  =         0.00000000
  ---------------------------------------------------
  free energy    TOTEN  =      -677.76977586 eV

  energy without entropy =     -677.76977586  energy(sigma->0) =     -677.76977586


--------------------------------------------------------------------------------------------------------




--------------------------------------- Iteration      1(   8)  ---------------------------------------


    POTLOK:  cpu time    0.1401: real time    0.1428
    SETDIJ:  cpu time    0.0108: real time    0.0108
     EDDAV:  cpu time   13.3964: real time   13.5775
 BZINTS: Fermi energy: -2.492687;303.000000 electrons
         Band energy:***********;  BLOECHL correction: -0.031105
       DOS:  cpu time    0.0111: real time    0.0111
    CHARGE:  cpu time    0.1597: real time    0.1649
    MIXING:  cpu time    0.0038: real time    0.0043
    --------------------------------------------
      LOOP:  cpu time   13.7217: real time   13.9115

 eigenvalue-minimisations  :  5248
 total energy-change (2. order) :-0.1497192E+00  (-0.6434403E+01)
 number of electron     302.9999982 magnetization       0.0259500
 augmentation part       12.0627524 magnetization       0.0023384

 Broyden mixing:
  rms(total) = 0.28594E+01    rms(broyden)= 0.28585E+01
  rms(prec ) = 0.34472E+01
  weight for this iteration     100.00

 eigenvalues of (default mixing * dielectric matrix)
  average eigenvalue GAMMA=   1.0760
  2.4770  0.3754  0.3754

 Free energy of the ion-electron system (eV)
  ---------------------------------------------------
  alpha Z        PSCENC =       166.77096332
  Ewald energy   TEWEN  =     30648.76239497
  -Hartree energ DENC   =    -41089.98195602
  -exchange      EXHF   =         0.00000000
  -V(xc)+E(xc)   XCENC  =      1048.35007387
  PAW double counting   =     17611.92574358   -17710.73837960
  entropy T*S    EENTRO =         0.00000000
  eigenvalues    EBANDS =     -3997.76148862
  atomic energy  EATOM  =     12644.75315347
  Solvation  Ediel_sol  =         0.00000000
  ---------------------------------------------------
  free energy    TOTEN  =      -677.91949503 eV

  energy without entropy =     -677.91949503  energy(sigma->0) =     -677.91949503


--------------------------------------------------------------------------------------------------------




--------------------------------------- Iteration      1(   9)  ---------------------------------------


    POTLOK:  cpu time    0.1388: real time    0.1411
    SETDIJ:  cpu time    0.0104: real time    0.0104
     EDDAV:  cpu time   12.2731: real time   12.3713
 BZINTS: Fermi energy: -2.597430;303.000000 electrons
         Band energy:***********;  BLOECHL correction: -0.041707
       DOS:  cpu time    0.0109: real time    0.0110
    CHARGE:  cpu time    0.2066: real time    0.2083
    MIXING:  cpu time    0.0040: real time    0.0040
    --------------------------------------------
      LOOP:  cpu time   12.6438: real time   12.7461

 eigenvalue-minimisations  :  4576
 total energy-change (2. order) : 0.1310257E+02  (-0.2677520E+01)
 number of electron     302.9999993 magnetization       0.0095494
 augmentation part       13.2238928 magnetization      -0.0164427

 Broyden mixing:
  rms(total) = 0.10815E+01    rms(broyden)= 0.10800E+01
  rms(prec ) = 0.11594E+01
  weight for this iteration     100.00

 eigenvalues of (default mixing * dielectric matrix)
  average eigenvalue GAMMA=   1.1816
  3.0161  0.9631  0.3736  0.3736

 Free energy of the ion-electron system (eV)
  ---------------------------------------------------
  alpha Z        PSCENC =       166.77096332
  Ewald energy   TEWEN  =     30648.76239497
  -Hartree energ DENC   =    -41540.77865522
  -exchange      EXHF   =         0.00000000
  -V(xc)+E(xc)   XCENC  =      1064.96012737
  PAW double counting   =     25823.99789449   -25926.67514827
  entropy T*S    EENTRO =         0.00000000
  eigenvalues    EBANDS =     -3546.60765601
  atomic energy  EATOM  =     12644.75315347
  Solvation  Ediel_sol  =         0.00000000
  ---------------------------------------------------
  free energy    TOTEN  =      -664.81692589 eV

  energy without entropy =     -664.81692589  energy(sigma->0) =     -664.81692589


--------------------------------------------------------------------------------------------------------




--------------------------------------- Iteration      1(  10)  ---------------------------------------


    POTLOK:  cpu time    0.1481: real time    0.1503
    SETDIJ:  cpu time    0.0100: real time    0.0100
     EDDAV:  cpu time   12.5915: real time   12.7157
 BZINTS: Fermi energy: -2.274554;303.000000 electrons
         Band energy:***********;  BLOECHL correction: -0.007705
       DOS:  cpu time    0.0119: real time    0.0120
    CHARGE:  cpu time    0.1638: real time    0.1642
    MIXING:  cpu time    0.0038: real time    0.0038
    --------------------------------------------
      LOOP:  cpu time   12.9291: real time   13.0561

 eigenvalue-minimisations  :  4696
 total energy-change (2. order) : 0.2181946E+00  (-0.6158699E+00)
 number of electron     302.9999993 magnetization      -0.3783833
 augmentation part       13.4227171 magnetization      -0.1785974

 Broyden mixing:
  rms(total) = 0.79961E+00    rms(broyden)= 0.79848E+00
  rms(prec ) = 0.82987E+00
  weight for this iteration     100.00

 eigenvalues of (default mixing * dielectric matrix)
  average eigenvalue GAMMA=   1.1048
  3.2516  0.3743  0.3743  0.8219  0.7020

 Free energy of the ion-electron system (eV)
  ---------------------------------------------------
  alpha Z        PSCENC =       166.77096332
  Ewald energy   TEWEN  =     30648.76239497
  -Hartree energ DENC   =    -41543.94217467
  -exchange      EXHF   =         0.00000000
  -V(xc)+E(xc)   XCENC  =      1065.79353191
  PAW double counting   =     27719.67599486   -27822.43033993
  entropy T*S    EENTRO =         0.00000000
  eigenvalues    EBANDS =     -3543.98225526
  atomic energy  EATOM  =     12644.75315347
  Solvation  Ediel_sol  =         0.00000000
  ---------------------------------------------------
  free energy    TOTEN  =      -664.59873133 eV

  energy without entropy =     -664.59873133  energy(sigma->0) =     -664.59873133


--------------------------------------------------------------------------------------------------------




--------------------------------------- Iteration      1(  11)  ---------------------------------------


    POTLOK:  cpu time    0.1241: real time    0.1262
    SETDIJ:  cpu time    0.0105: real time    0.0105
     EDDAV:  cpu time   12.0830: real time   12.1782
 BZINTS: Fermi energy: -2.388375;303.000000 electrons
         Band energy:***********;  BLOECHL correction: -0.013249
       DOS:  cpu time    0.0122: real time    0.0122
    CHARGE:  cpu time    0.1632: real time    0.1644
    MIXING:  cpu time    0.0038: real time    0.0038
    --------------------------------------------
      LOOP:  cpu time   12.3967: real time   12.4953

 eigenvalue-minimisations  :  4472
 total energy-change (2. order) :-0.2372468E-01  (-0.7745098E-01)
 number of electron     302.9999991 magnetization      -1.0912367
 augmentation part       13.4146675 magnetization      -0.4605018

 Broyden mixing:
  rms(total) = 0.70396E+00    rms(broyden)= 0.70338E+00
  rms(prec ) = 0.72352E+00
  weight for this iteration     100.00

 eigenvalues of (default mixing * dielectric matrix)
  average eigenvalue GAMMA=   0.9592
  3.2611  0.6746  0.6746  0.3829  0.3829  0.3788

 Free energy of the ion-electron system (eV)
  ---------------------------------------------------
  alpha Z        PSCENC =       166.77096332
  Ewald energy   TEWEN  =     30648.76239497
  -Hartree energ DENC   =    -41533.45209894
  -exchange      EXHF   =         0.00000000
  -V(xc)+E(xc)   XCENC  =      1065.46266973
  PAW double counting   =     29318.67806712   -29421.18654449
  entropy T*S    EENTRO =         0.00000000
  eigenvalues    EBANDS =     -3554.41106119
  atomic energy  EATOM  =     12644.75315347
  Solvation  Ediel_sol  =         0.00000000
  ---------------------------------------------------
  free energy    TOTEN  =      -664.62245601 eV

  energy without entropy =     -664.62245601  energy(sigma->0) =     -664.62245601


--------------------------------------------------------------------------------------------------------




--------------------------------------- Iteration      1(  12)  ---------------------------------------


    POTLOK:  cpu time    0.1384: real time    0.1405
    SETDIJ:  cpu time    0.0094: real time    0.0099
     EDDAV:  cpu time   12.5230: real time   12.6484
 BZINTS: Fermi energy: -2.447469;303.000000 electrons
         Band energy:***********;  BLOECHL correction: -0.027952
       DOS:  cpu time    0.0121: real time    0.0121
    CHARGE:  cpu time    0.2090: real time    0.2108
    MIXING:  cpu time    0.0043: real time    0.0043
    --------------------------------------------
      LOOP:  cpu time   12.8960: real time   13.0261

 eigenvalue-minimisations  :  4760
 total energy-change (2. order) :-0.2471876E+00  (-0.2454294E-01)
 number of electron     302.9999988 magnetization      -2.2372993
 augmentation part       13.4381207 magnetization      -0.8410877

 Broyden mixing:
  rms(total) = 0.63499E+00    rms(broyden)= 0.63462E+00
  rms(prec ) = 0.66096E+00
  weight for this iteration     100.00

 eigenvalues of (default mixing * dielectric matrix)
  average eigenvalue GAMMA=   1.0674
  3.3387  0.9807  0.9807  0.3743  0.3743  0.7114  0.7114

 Free energy of the ion-electron system (eV)
  ---------------------------------------------------
  alpha Z        PSCENC =       166.77096332
  Ewald energy   TEWEN  =     30648.76239497
  -Hartree energ DENC   =    -41526.21613707
  -exchange      EXHF   =         0.00000000
  -V(xc)+E(xc)   XCENC  =      1065.33679253
  PAW double counting   =     29970.68070897   -30073.02054836
  entropy T*S    EENTRO =         0.00000000
  eigenvalues    EBANDS =     -3561.93697148
  atomic energy  EATOM  =     12644.75315347
  Solvation  Ediel_sol  =         0.00000000
  ---------------------------------------------------
  free energy    TOTEN  =      -664.86964366 eV

  energy without entropy =     -664.86964366  energy(sigma->0) =     -664.86964366


--------------------------------------------------------------------------------------------------------




--------------------------------------- Iteration      1(  13)  ---------------------------------------


    POTLOK:  cpu time    0.1455: real time    0.1476
    SETDIJ:  cpu time    0.0106: real time    0.0107
     EDDAV:  cpu time   12.8830: real time   13.0071
 BZINTS: Fermi energy: -2.317642;303.000000 electrons
         Band energy:***********;  BLOECHL correction: -0.015843
       DOS:  cpu time    0.0118: real time    0.0119
    CHARGE:  cpu time    0.2062: real time    0.2085
    MIXING:  cpu time    0.0041: real time    0.0041
    --------------------------------------------
      LOOP:  cpu time   13.2611: real time   13.3899

 eigenvalue-minimisations  :  4944
 total energy-change (2. order) :-0.1201747E+00  (-0.2928603E-01)
 number of electron     302.9999987 magnetization      -4.3481102
 augmentation part       13.3545981 magnetization      -2.6619855

 Broyden mixing:
  rms(total) = 0.47873E+00    rms(broyden)= 0.47862E+00
  rms(prec ) = 0.48982E+00
  weight for this iteration     100.00

 eigenvalues of (default mixing * dielectric matrix)
  average eigenvalue GAMMA=   1.2880
  3.5094  1.8250  1.8250  1.0214  0.3746  0.3746  0.6870  0.6870

 Free energy of the ion-electron system (eV)
  ---------------------------------------------------
  alpha Z        PSCENC =       166.77096332
  Ewald energy   TEWEN  =     30648.76239497
  -Hartree energ DENC   =    -41528.05409212
  -exchange      EXHF   =         0.00000000
  -V(xc)+E(xc)   XCENC  =      1065.54928657
  PAW double counting   =     30334.04272966   -30436.35330472
  entropy T*S    EENTRO =         0.00000000
  eigenvalues    EBANDS =     -3560.46094952
  atomic energy  EATOM  =     12644.75315347
  Solvation  Ediel_sol  =         0.00000000
  ---------------------------------------------------
  free energy    TOTEN  =      -664.98981837 eV

  energy without entropy =     -664.98981837  energy(sigma->0) =     -664.98981837


--------------------------------------------------------------------------------------------------------




--------------------------------------- Iteration      1(  14)  ---------------------------------------


    POTLOK:  cpu time    0.1680: real time    0.1701
    SETDIJ:  cpu time    0.0100: real time    0.0104
     EDDAV:  cpu time   13.0164: real time   13.1398
 BZINTS: Fermi energy: -2.247062;303.000000 electrons
         Band energy:***********;  BLOECHL correction:  0.000000
       DOS:  cpu time    0.0091: real time    0.0096
    CHARGE:  cpu time    0.1945: real time    0.1956
    MIXING:  cpu time    0.0044: real time    0.0044
    --------------------------------------------
      LOOP:  cpu time   13.4025: real time   13.5300

 eigenvalue-minimisations  :  4936
 total energy-change (2. order) : 0.1142983E+00  (-0.9518170E-01)
 number of electron     302.9999988 magnetization      -3.4131903
 augmentation part       13.4021903 magnetization      -1.8709100

 Broyden mixing:
  rms(total) = 0.36535E+00    rms(broyden)= 0.36525E+00
  rms(prec ) = 0.37431E+00
  weight for this iteration     100.00

 eigenvalues of (default mixing * dielectric matrix)
  average eigenvalue GAMMA=   1.2634
  3.7099  1.9826  1.3396  1.3396  0.3746  0.3746  0.8163  0.8163  0.6178

 Free energy of the ion-electron system (eV)
  ---------------------------------------------------
  alpha Z        PSCENC =       166.77096332
  Ewald energy   TEWEN  =     30648.76239497
  -Hartree energ DENC   =    -41496.34407236
  -exchange      EXHF   =         0.00000000
  -V(xc)+E(xc)   XCENC  =      1065.27182615
  PAW double counting   =     31446.81058950   -31548.68976674
  entropy T*S    EENTRO =         0.00000000
  eigenvalues    EBANDS =     -3592.21060844
  atomic energy  EATOM  =     12644.75315347
  Solvation  Ediel_sol  =         0.00000000
  ---------------------------------------------------
  free energy    TOTEN  =      -664.87552012 eV

  energy without entropy =     -664.87552012  energy(sigma->0) =     -664.87552012


--------------------------------------------------------------------------------------------------------




--------------------------------------- Iteration      1(  15)  ---------------------------------------


    POTLOK:  cpu time    0.1480: real time    0.1499
    SETDIJ:  cpu time    0.0088: real time    0.0089
     EDDAV:  cpu time   11.9773: real time   12.0967
 BZINTS: Fermi energy: -2.319564;303.000000 electrons
         Band energy:***********;  BLOECHL correction: -0.003245
       DOS:  cpu time    0.0133: real time    0.0134
    CHARGE:  cpu time    0.2082: real time    0.2093
    MIXING:  cpu time    0.0046: real time    0.0046
    --------------------------------------------
      LOOP:  cpu time   12.3603: real time   12.4828

 eigenvalue-minimisations  :  4504
 total energy-change (2. order) :-0.9785316E-01  (-0.1485722E-01)
 number of electron     302.9999987 magnetization      -2.8521043
 augmentation part       13.3720633 magnetization      -1.2500979

 Broyden mixing:
  rms(total) = 0.22149E+00    rms(broyden)= 0.22149E+00
  rms(prec ) = 0.22349E+00
  weight for this iteration     100.00

 eigenvalues of (default mixing * dielectric matrix)
  average eigenvalue GAMMA=   1.2527
  3.7992  2.2572  1.3749  1.3749  0.3746  0.3746  0.8016  0.8016  0.6845  0.6845

 Free energy of the ion-electron system (eV)
  ---------------------------------------------------
  alpha Z        PSCENC =       166.77096332
  Ewald energy   TEWEN  =     30648.76239497
  -Hartree energ DENC   =    -41483.10491582
  -exchange      EXHF   =         0.00000000
  -V(xc)+E(xc)   XCENC  =      1064.59913537
  PAW double counting   =     31743.63746346   -31845.38786023
  entropy T*S    EENTRO =         0.00000000
  eigenvalues    EBANDS =     -3605.00370781
  atomic energy  EATOM  =     12644.75315347
  Solvation  Ediel_sol  =         0.00000000
  ---------------------------------------------------
  free energy    TOTEN  =      -664.97337328 eV

  energy without entropy =     -664.97337328  energy(sigma->0) =     -664.97337328


--------------------------------------------------------------------------------------------------------




--------------------------------------- Iteration      1(  16)  ---------------------------------------


    POTLOK:  cpu time    0.1371: real time    0.1392
    SETDIJ:  cpu time    0.0087: real time    0.0087
     EDDAV:  cpu time   13.0504: real time   13.1552
 BZINTS: Fermi energy: -2.383966;303.000000 electrons
         Band energy:***********;  BLOECHL correction: -0.008984
       DOS:  cpu time    0.0118: real time    0.0119
    CHARGE:  cpu time    0.1949: real time    0.1989
    MIXING:  cpu time    0.0046: real time    0.0055
    --------------------------------------------
      LOOP:  cpu time   13.4075: real time   13.5194

 eigenvalue-minimisations  :  4984
 total energy-change (2. order) :-0.3423219E-01  (-0.7496025E-02)
 number of electron     302.9999987 magnetization      -2.8684176
 augmentation part       13.3907067 magnetization      -1.2327180

 Broyden mixing:
  rms(total) = 0.14499E+00    rms(broyden)= 0.14497E+00
  rms(prec ) = 0.15066E+00
  weight for this iteration     100.00

 eigenvalues of (default mixing * dielectric matrix)
  average eigenvalue GAMMA=   1.2661
  3.8037  2.3708  1.4036  1.4036  0.3746  0.3746  0.9422  0.9422  0.8367  0.8367
  0.6382

 Free energy of the ion-electron system (eV)
  ---------------------------------------------------
  alpha Z        PSCENC =       166.77096332
  Ewald energy   TEWEN  =     30648.76239497
  -Hartree energ DENC   =    -41478.31418824
  -exchange      EXHF   =         0.00000000
  -V(xc)+E(xc)   XCENC  =      1064.26857790
  PAW double counting   =     31833.98830031   -31935.69196392
  entropy T*S    EENTRO =         0.00000000
  eigenvalues    EBANDS =     -3609.54484327
  atomic energy  EATOM  =     12644.75315347
  Solvation  Ediel_sol  =         0.00000000
  ---------------------------------------------------
  free energy    TOTEN  =      -665.00760546 eV

  energy without entropy =     -665.00760546  energy(sigma->0) =     -665.00760546


[...]
   0.184E+02 -.157E+01 0.289E+02   -.188E+02 0.128E+01 -.289E+02   0.273E+00 0.322E+00 0.613E-01   -.704E-02 0.357E-03 -.379E-02
   0.472E+02 0.220E+02 0.398E+02   -.461E+02 -.234E+02 -.400E+02   -.816E+00 0.116E+01 0.297E+00   -.318E-01 -.134E-01 -.222E-01
   0.679E+02 0.218E+01 0.387E+02   -.711E+02 -.434E+01 -.389E+02   0.327E+01 0.236E+01 0.247E+00   -.330E-01 0.118E-01 -.214E-01
   -.442E+02 0.123E+02 0.246E+02   0.429E+02 -.128E+02 -.247E+02   0.120E+01 0.412E+00 0.137E+00   0.335E-01 -.676E-02 -.213E-01
   -.416E+02 -.157E+02 0.380E+02   0.403E+02 0.159E+02 -.382E+02   0.114E+01 -.182E+00 0.259E+00   0.308E-01 0.145E-01 -.208E-01
   -.140E+02 0.118E+01 0.145E+02   0.138E+02 -.129E+01 -.145E+02   0.145E+00 0.481E-01 0.457E-01   0.657E-02 0.907E-03 -.361E-02
   -.122E+02 -.274E+01 0.104E+02   0.120E+02 0.274E+01 -.103E+02   0.127E+00 0.622E-01 -.126E+00   0.565E-02 0.120E-02 -.374E-02
   -.707E+01 -.660E+01 0.124E+02   0.702E+01 0.655E+01 -.124E+02   0.920E-01 0.139E-01 -.110E-02   0.866E-03 0.178E-02 -.215E-02
   -.217E+01 -.539E+01 0.125E+02   0.203E+01 0.541E+01 -.126E+02   0.124E+00 -.209E-01 0.793E-02   0.551E-03 0.141E-02 -.186E-02
   0.843E+01 -.566E+01 0.216E+02   -.849E+01 0.562E+01 -.216E+02   0.123E+00 0.202E-01 0.422E-01   -.264E-02 0.177E-02 -.223E-02
   0.735E+01 -.562E+01 0.165E+02   -.741E+01 0.563E+01 -.164E+02   0.798E-01 -.382E-01 -.235E-01   -.241E-02 0.110E-02 -.193E-02
   0.330E+02 -.110E+02 0.342E+02   -.335E+02 0.110E+02 -.344E+02   0.540E+00 0.431E-01 0.231E+00   -.113E-01 0.428E-02 -.677E-02
   0.186E+02 -.204E+02 0.202E+02   -.188E+02 0.208E+02 -.201E+02   0.197E+00 -.293E+00 -.656E-01   -.698E-02 0.582E-02 -.456E-02
   0.473E+01 -.637E+02 0.265E+02   0.132E+02 0.531E+02 -.237E+02   -.181E+02 0.107E+02 -.274E+01   -.532E-01 0.657E-01 -.486E-01
   -.344E+01 -.683E+02 0.180E+02   0.403E+01 0.722E+02 -.184E+02   -.708E+00 -.391E+01 0.427E+00   -.538E-02 0.243E-01 -.139E-01
   -.131E+02 -.471E+02 0.791E+02   0.593E+01 0.423E+02 -.786E+02   0.730E+01 0.477E+01 -.420E+00   0.442E-01 0.494E-01 -.419E-01
   -.870E+01 -.385E+02 0.305E+02   0.884E+01 0.372E+02 -.307E+02   -.128E+00 0.137E+01 0.155E+00   0.104E-01 0.203E-01 -.137E-01
   -.243E+02 -.133E+02 0.166E+02   0.240E+02 0.131E+02 -.166E+02   0.347E+00 0.189E+00 0.310E-01   0.847E-02 0.470E-02 -.653E-02
   -.101E+02 -.171E+02 0.154E+02   0.976E+01 0.170E+02 -.154E+02   0.272E+00 0.101E-01 0.428E-01   0.444E-02 0.509E-02 -.424E-02
   -.547E+01 -.605E+01 0.117E+02   0.536E+01 0.609E+01 -.117E+02   0.143E+00 -.229E-01 -.138E-01   0.215E-02 0.124E-02 -.233E-02
   -.245E+01 -.492E+01 0.116E+02   0.244E+01 0.499E+01 -.116E+02   0.744E-01 -.430E-01 -.125E-01   0.814E-03 -.135E-02 -.191E-02
   0.940E+00 -.353E+01 0.144E+02   -.102E+01 0.361E+01 -.144E+02   0.105E+00 -.325E-01 0.204E-01   -.729E-03 0.401E-03 -.157E-02
   0.146E+01 -.153E+01 0.147E+02   -.150E+01 0.162E+01 -.147E+02   0.230E-01 -.938E-01 -.939E-02   -.734E-03 -.451E-03 -.168E-02
   0.879E+01 -.769E+01 0.158E+02   -.904E+01 0.789E+01 -.158E+02   0.217E+00 -.246E+00 0.252E-01   -.301E-02 0.113E-02 -.241E-02
   0.556E+01 -.627E+01 0.122E+02   -.565E+01 0.644E+01 -.122E+02   0.382E-01 -.201E+00 -.563E-01   -.199E-02 -.103E-03 -.197E-02
   0.656E+01 -.270E+02 0.173E+02   -.646E+01 0.274E+02 -.173E+02   -.518E-01 -.443E+00 0.550E-01   -.330E-02 0.870E-02 -.539E-02
   0.438E+01 -.151E+02 0.115E+02   -.429E+01 0.155E+02 -.116E+02   -.106E+00 -.378E+00 0.165E-01   0.768E-03 0.357E-02 -.294E-02
   -.884E+01 -.283E+02 0.132E+02   0.980E+01 0.279E+02 -.130E+02   -.870E+00 0.377E+00 -.164E+00   0.132E-02 0.186E-01 -.104E-01
   -.375E+01 -.155E+02 0.862E+01   0.376E+01 0.153E+02 -.867E+01   -.646E-01 0.217E+00 0.547E-01   0.161E-02 0.509E-02 -.399E-02
   -.434E+01 -.164E+02 0.160E+02   0.381E+01 0.161E+02 -.160E+02   0.502E+00 0.256E+00 0.535E-02   0.362E-02 0.697E-02 -.513E-02
   -.442E+01 -.105E+02 0.883E+01   0.437E+01 0.103E+02 -.884E+01   0.330E-01 0.148E+00 -.137E-01   -.212E-03 0.269E-02 -.289E-02
   -.448E+02 -.533E+02 -.305E+03   0.472E+02 0.485E+02 0.300E+03   -.227E+01 0.476E+01 0.510E+01   0.197E-02 0.269E-01 -.152E+00
   0.152E+02 0.913E+01 -.254E+03   -.160E+02 -.664E+01 0.235E+03   0.798E+00 -.247E+01 0.194E+02   -.423E-02 -.159E-01 0.479E-01
   -.534E+01 0.373E+02 -.671E+03   0.736E+01 -.439E+02 0.730E+03   -.205E+01 0.656E+01 -.587E+02   0.158E-02 -.126E-01 0.692E-01
 -----------------------------------------------------------------------------------------------
   0.744E+01 -.129E+02 0.391E+02   -.128E-12 -.909E-12 -.682E-12   -.743E+01 0.129E+02 -.385E+02   -.140E-01 -.157E-02 -.555E+00
 
 
 POSITION                                       TOTAL-FORCE (eV/Angst)
 -----------------------------------------------------------------------------------
      7.44535     12.72548      7.36766         0.037241      0.015908      0.007537
     -0.00132      1.42338      7.36041        -0.010521     -0.004940      0.017465
      2.48158      0.02141      7.34862         0.041328      0.036974      0.031879
      2.48399      1.44737      7.37780        -0.039516     -0.034117      0.020402
      4.96196      0.01541      7.35163        -0.058189      0.005254      0.012525
      4.96550      1.43667      7.38844         0.018673     -0.008446      0.001340
      7.44607     -0.02647      7.36575         0.089083      0.029471      0.010978
      7.45307      1.39328      7.37368        -0.027515      0.015726      0.020052
      2.48440     12.71401      7.39521         0.028098     -0.032501     -0.011299
      9.94226      1.35053      7.37104        -0.055265      0.002633     -0.001886
      4.95937     12.69779      7.38947         0.012404     -0.040290     -0.023127
     12.41516      1.33640      7.36142        -0.008651      0.044734     -0.005366
     13.65356      2.05705      7.35183         0.037419      0.007583     -0.003860
     -1.24497      3.54266      7.34054        -0.116086      0.022019      0.007718
      1.24022      2.14779      7.37885         0.040769     -0.012798      0.012568
      1.24269      3.57529      7.41669        -0.064501      0.016805     -0.010073
      3.72655      2.16758      7.41962        -0.020600      0.011454      0.025859
      3.72949      3.58933      7.51869         0.023104      0.041360      0.013277
      6.21507      2.12216      7.39849        -0.004120      0.013749      0.008937
      6.22263      3.54411      7.45099        -0.023016      0.011626     -0.004844
      8.70577      2.07317      7.37176         0.035631      0.026227     -0.002346
      8.71323      3.49257      7.37667         0.033230      0.011129      0.002208
     11.18106      2.05604      7.35335        -0.015093     -0.006420      0.007312
     11.18264      3.47939      7.33123         0.012207      0.027942      0.009534
     12.41685      4.19268      7.31938         0.052574     -0.083097      0.024701
     -2.49110      5.67650      7.31009        -0.010197      0.038233     -0.012331
     -0.01247      4.26195      7.37776         0.114448      0.003494      0.014445
     -0.03530      5.68496      7.38269        -0.171011     -0.005552     -0.026196
      2.47908      4.31117      7.52136        -0.017741      0.099942      0.044814
      2.42477      5.73461      7.64228        -0.263858     -0.131459     -0.046736
      4.99028      4.29299      7.55708         0.051435     -0.019825      0.002588
      5.04750      5.70415      7.68637         0.180433     -0.050282      0.021705
      7.48277      4.21148      7.42603        -0.032000      0.001316      0.026629
      7.51223      5.62678      7.44361         0.006909      0.041398     -0.029299
      9.95138      4.19791      7.34581        -0.032833     -0.110635      0.005896
      9.95783      5.62165      7.34266         0.008796      0.049355      0.000939
     -3.71754      6.39575      7.31599         0.018402     -0.049132     -0.002297
     -3.72299      7.81811      7.31803         0.006867      0.042624     -0.002090
     -1.26956      6.39138      7.32544         0.075304     -0.060548     -0.000132
     -1.27542      7.81142      7.31906        -0.081924      0.029710      0.005652
      1.18048      6.40023      7.48716         0.193116     -0.203060      0.046363
      1.16421      7.83324      7.47923         0.071354      0.205163      0.022003
      6.30011      6.33690      7.53149        -0.055536     -0.103922     -0.010064
      6.29258      7.76873      7.47008        -0.061824      0.048568     -0.018448
      8.73917      6.33949      7.38640        -0.046982     -0.059925     -0.008571
      8.73454      7.76133      7.38798        -0.041035      0.065223     -0.020115
     -4.94915      8.53663      7.34719         0.044155     -0.035361     -0.023543
     -4.96381      9.96171      7.34259        -0.013806      0.002740      0.003318
     -2.49784      8.53147      7.30937         0.051700     -0.020062      0.003492
     -2.49746      9.95562      7.32235         0.015363     -0.025208     -0.005953
     -0.05268      8.52810      7.36413         0.007496      0.038691     -0.003152
     -0.03417      9.94316      7.36878        -0.037269      0.028877      0.023842
      2.36422      8.48145      7.61357        -0.198368      0.127105      0.000767
      2.43746      9.85121      7.49476        -0.094092     -0.031633      0.020179
      5.03354      8.40591      7.48629         0.161175      0.048497      0.111347
      4.96779      9.82003      7.44411         0.000652      0.067802      0.011251
      7.50606      8.47806      7.41534        -0.003527      0.023263     -0.027843
      7.46630      9.89559      7.38941        -0.048964     -0.013146      0.002541
     -6.20112     10.67202      7.36117         0.040949      0.026798     -0.022198
     -6.20807     12.09232      7.35699         0.065470      0.019251     -0.022752
     -3.73076     10.67203      7.32859         0.023452      0.045979     -0.005750
     -3.72982     12.09558      7.33811        -0.016622     -0.000638      0.024461
     -1.26258     10.66238      7.34195        -0.031598     -0.038642     -0.015266
     -1.25310     12.08110      7.35268        -0.053516     -0.034366     -0.027306
      1.21927     10.61250      7.40847         0.047019     -0.032889     -0.005950
      1.23498     12.03376      7.38664        -0.004053     -0.000544     -0.019877
      3.70727     10.53856      7.46223         0.086670     -0.038674      0.011645
      3.71550     11.97043      7.41402        -0.056432      0.015975      0.005021
      6.20784     10.57396      7.40476        -0.024147     -0.046901     -0.020396
      6.20490     12.00003      7.38918        -0.020222     -0.005111     -0.028164
      3.71412      7.08920      8.20639         0.133057      0.016837     -0.162496
      3.59695      6.64624     10.07953         0.013620      0.005903      0.106778
      3.63673      6.51480     11.23559        -0.018974     -0.093212     -0.120242
 -----------------------------------------------------------------------------------
    total drift:                               -0.002335      0.003324      0.008735


--------------------------------------------------------------------------------------------------------



  FREE ENERGIE OF THE ION-ELECTRON SYSTEM (eV)
  ---------------------------------------------------
  free  energy   TOTEN  =      -671.56552068 eV

  energy  without entropy=     -671.56552068  energy(sigma->0) =     -671.56552068
 


--------------------------------------------------------------------------------------------------------


    POTLOK:  cpu time    0.1502: real time    0.1510


--------------------------------------------------------------------------------------------------------


 stress matrix after NEB project (eV)
     -5.37386      2.31123      0.03889
      2.31123     -4.43234     -0.33352
      0.03889     -0.33352     -3.79174
  FORCES: max atom, RMS     0.298474    0.098576
  FORCE total and by dimension    0.842237    0.263858
  Stress total and by dimension    8.591296    5.373856
     LOOP+:  cpu time  324.4707: real time  331.3997
    4ORBIT:  cpu time    0.0000: real time    0.0000
 


 total charge     
 
# of ion       s       p       d       tot
------------------------------------------
    1        0.862   1.776   0.000   2.638
    2        0.863   1.774   0.000   2.637
    3        0.862   1.778   0.000   2.640
    4        0.863   1.772   0.000   2.635
    5        0.863   1.781   0.000   2.645
    6        0.863   1.777   0.000   2.640
    7        0.864   1.782   0.000   2.646
    8        0.864   1.779   0.000   2.643
    9        0.862   1.780   0.000   2.642
   10        0.864   1.778   0.000   2.642
   11        0.861   1.773   0.000   2.634
   12        0.862   1.775   0.000   2.637
   13        0.863   1.780   0.000   2.643
   14        0.864   1.779   0.000   2.643
   15        0.862   1.774   0.000   2.635
   16        0.862   1.763   0.000   2.625
   17        0.861   1.767   0.000   2.628
   18        0.863   1.751   0.000   2.614
   19        0.863   1.778   0.000   2.641
   20        0.863   1.769   0.000   2.632
   21        0.864   1.785   0.000   2.649
   22        0.866   1.786   0.000   2.652
   23        0.864   1.784   0.000   2.648
   24        0.865   1.784   0.000   2.649
   25        0.864   1.785   0.000   2.649
   26        0.868   1.793   0.000   2.661
   27        0.864   1.781   0.000   2.645
   28        0.869   1.791   0.000   2.660
   29        0.858   1.750   0.000   2.608
   30        0.877   1.669   0.000   2.546
   31        0.861   1.755   0.000   2.616
   32        0.879   1.679   0.000   2.558
   33        0.866   1.790   0.000   2.657
   34        0.872   1.806   0.000   2.678
   35        0.865   1.786   0.000   2.651
   36        0.868   1.796   0.000   2.664
   37        0.867   1.794   0.000   2.661
   38        0.867   1.795   0.000   2.661
   39        0.867   1.798   0.000   2.665
   40        0.867   1.797   0.000   2.665
   41        0.871   1.790   0.000   2.661
   42        0.869   1.766   0.000   2.635
   43        0.879   1.790   0.000   2.669
   44        0.880   1.782   0.000   2.663
   45        0.868   1.797   0.000   2.665
   46        0.869   1.796   0.000   2.665
   47        0.868   1.796   0.000   2.664
   48        0.865   1.784   0.000   2.649
   49        0.867   1.794   0.000   2.662
   50        0.865   1.785   0.000   2.650
   51        0.871   1.816   0.000   2.687
   52        0.869   1.789   0.000   2.658
   53        1.240   2.643   0.000   3.883
   54        0.853   1.734   0.000   2.587
   55        0.879   1.696   0.000   2.574
   56        0.859   1.741   0.000   2.600
   57        0.871   1.805   0.000   2.676
   58        0.866   1.783   0.000   2.649
   59        0.865   1.786   0.000   2.651
   60        0.864   1.781   0.000   2.646
   61        0.865   1.787   0.000   2.652
   62        0.864   1.778   0.000   2.642
   63        0.866   1.794   0.000   2.660
   64        0.865   1.786   0.000   2.652
   65        0.864   1.786   0.000   2.650
   66        0.863   1.781   0.000   2.644
   67        0.856   1.756   0.000   2.612
   68        0.859   1.756   0.000   2.615
   69        0.861   1.763   0.000   2.624
   70        0.863   1.771   0.000   2.634
   71        0.410   6.447   4.228  11.085
   72        0.984   1.544   0.000   2.528
   73        1.628   3.521   0.000   5.149
--------------------------------------------------
tot         63.980 136.713   4.228 204.921
 


 magnetization (x)
 
# of ion       s       p       d       tot
------------------------------------------
    1       -0.000  -0.007   0.000  -0.007
    2        0.000   0.004   0.000   0.004
    3       -0.000  -0.007   0.000  -0.008
    4        0.001   0.006   0.000   0.006
    5       -0.000  -0.007   0.000  -0.007
    6        0.001   0.009   0.000   0.010
    7       -0.000  -0.006   0.000  -0.006
    8        0.000   0.004   0.000   0.004
    9       -0.001  -0.009   0.000  -0.009
   10        0.000   0.005   0.000   0.005
   11       -0.001  -0.010   0.000  -0.011
   12        0.001   0.007   0.000   0.007
   13       -0.001  -0.010   0.000  -0.011
   14        0.001   0.007   0.000   0.008
   15       -0.001  -0.009   0.000  -0.010
   16        0.001   0.010   0.000   0.012
   17       -0.001  -0.011   0.000  -0.012
   18        0.002   0.017   0.000   0.019
   19       -0.001  -0.010   0.000  -0.010
   20        0.001   0.009   0.000   0.010
   21       -0.001  -0.009   0.000  -0.010
   22        0.001   0.009   0.000   0.009
   23       -0.001  -0.014   0.000  -0.015
   24        0.001   0.006   0.000   0.006
   25       -0.001  -0.016   0.000  -0.016
   26        0.001   0.005   0.000   0.006
   27       -0.001  -0.021   0.000  -0.023
   28        0.001   0.009   0.000   0.010
   29       -0.003  -0.029   0.000  -0.031
   30        0.011   0.063   0.000   0.074
   31       -0.002  -0.026   0.000  -0.029
   32        0.010   0.048   0.000   0.058
   33       -0.001  -0.020   0.000  -0.022
   34        0.001   0.010   0.000   0.011
   35       -0.001  -0.016   0.000  -0.017
   36        0.001   0.006   0.000   0.006
   37       -0.000  -0.005   0.000  -0.006
   38        0.000   0.004   0.000   0.005
   39       -0.001  -0.009   0.000  -0.010
   40        0.000   0.005   0.000   0.005
   41       -0.005  -0.037   0.000  -0.042
   42       -0.002  -0.011   0.000  -0.013
   43       -0.006  -0.046   0.000  -0.052
   44       -0.002   0.004   0.000   0.002
   45       -0.001  -0.013   0.000  -0.014
   46        0.000   0.006   0.000   0.006
   47       -0.001  -0.007   0.000  -0.008
   48        0.000   0.005   0.000   0.005
   49       -0.000  -0.007   0.000  -0.007
   50        0.000   0.001   0.000   0.001
   51       -0.000  -0.001   0.000  -0.001
   52       -0.000  -0.010   0.000  -0.010
   53        0.001  -0.015   0.000  -0.014
   54       -0.001  -0.007   0.000  -0.008
   55        0.002  -0.012   0.000  -0.010
   56       -0.000   0.005   0.000   0.005
   57       -0.001  -0.006   0.000  -0.007
   58        0.000   0.005   0.000   0.006
   59       -0.001  -0.008   0.000  -0.008
   60        0.000   0.004   0.000   0.005
   61       -0.000  -0.005   0.000  -0.005
   62        0.000   0.003   0.000   0.003
   63       -0.000  -0.005   0.000  -0.005
   64        0.000   0.002   0.000   0.003
   65       -0.000  -0.005   0.000  -0.005
   66        0.000   0.006   0.000   0.006
   67       -0.001  -0.014   0.000  -0.015
   68        0.000   0.002   0.000   0.002
   69       -0.000  -0.008   0.000  -0.008
   70        0.000   0.002   0.000   0.003
   71       -0.023  -0.055  -1.977  -2.055
   72        0.004  -0.063   0.000  -0.059
   73       -0.001  -0.110   0.000  -0.111
--------------------------------------------------
tot         -0.018  -0.411  -1.977  -2.405
 
 BZINTS: Fermi energy: -2.365141;303.000000 electrons
         Band energy:***********;  BLOECHL correction: -0.006479

 total amount of memory used by VASP MPI-rank0   116462. kBytes
=======================================================================

   base      :      30000. kBytes
   nonl-proj :      27461. kBytes
   fftplans  :       4700. kBytes
   grid      :      15193. kBytes
   one-center:        217. kBytes
   wavefun   :      38891. kBytes
 
  
  
 General timing and accounting informations for this job:
 ========================================================
  
                  Total CPU time used (sec):      342.358
                            User time (sec):      331.728
                          System time (sec):       10.630
                         Elapsed time (sec):      359.657
  
                   Maximum memory used (kb):      475316.
                   Average memory used (kb):           0.
  
                          Minor page faults:      1825803
                          Major page faults:            0
                 Voluntary context switches:         8870
