       N       E                     dE             d eps       ncg     rms          rms(c)
DAV:   1     0.244716234270E+04    0.24472E+04   -0.94762E+04  3920   0.109E+03
DAV:   2     0.131895095525E+03   -0.23153E+04   -0.22183E+04  5000   0.259E+02
DAV:   3    -0.445990565733E+03   -0.57789E+03   -0.57287E+03  4260   0.141E+02
DAV:   4    -0.474332285073E+03   -0.28342E+02   -0.27532E+02  4144   0.414E+01
DAV:   5    -0.475934862909E+03   -0.16026E+01   -0.15831E+01  5208   0.862E+00    0.338E+01
DAV:   6    -0.457616038476E+03    0.18319E+02   -0.69612E+01  4528   0.190E+01    0.191E+01
DAV:   7    -0.456750607930E+03    0.86543E+00   -0.27068E+01  4168   0.139E+01    0.138E+01
DAV:   8    -0.455931603626E+03    0.81900E+00   -0.16510E+01  4160   0.102E+01    0.997E+00
DAV:   9    -0.456185317644E+03   -0.25371E+00   -0.20342E+01  4840   0.787E+00    0.658E+00
DAV:  10    -0.455267133793E+03    0.91818E+00   -0.75099E+00  4680   0.667E+00    0.327E+00
DAV:  11    -0.455150453173E+03    0.11668E+00   -0.34037E+00  4288   0.391E+00    0.255E+00
DAV:  12    -0.455034852903E+03    0.11560E+00   -0.16066E+00  4504   0.233E+00    0.131E+00
DAV:  13    -0.455014050798E+03    0.20802E-01   -0.17540E-01  4072   0.109E+00    0.723E-01
DAV:  14    -0.455009110940E+03    0.49399E-02   -0.44510E-02  4200   0.549E-01    0.374E-01
DAV:  15    -0.455008355993E+03    0.75495E-03   -0.11304E-02  4184   0.295E-01    0.210E-01
DAV:  16    -0.455008411441E+03   -0.55448E-04   -0.46744E-03  4080   0.153E-01    0.142E-01
DAV:  17    -0.455008784599E+03   -0.37316E-03   -0.66568E-03  3992   0.110E-01    0.177E-01
DAV:  18    -0.455008790501E+03   -0.59017E-05   -0.43693E-03  3168   0.809E-02    0.149E-01
DAV:  19    -0.455008454623E+03    0.33588E-03   -0.24476E-03  2768   0.549E-02    0.146E-01
DAV:  20    -0.455008083462E+03    0.37116E-03   -0.39362E-03  3280   0.607E-02    0.514E-02
DAV:  21    -0.455008357141E+03   -0.27368E-03   -0.14152E-04  2296   0.339E-02    0.282E-02
DAV:  22    -0.455008364721E+03   -0.75809E-05   -0.11100E-04  2080   0.204E-02
   1 F= -.45844735E+03 E0= -.45844735E+03  d E =0.000000E+00  mag=    -0.0000
