       N       E                     dE             d eps       ncg     rms          rms(c)
DAV:   1     0.248733350563E+04    0.24873E+04   -0.96959E+04  3888   0.112E+03
DAV:   2     0.518944781025E+02   -0.24354E+04   -0.23292E+04  4784   0.279E+02
DAV:   3    -0.475991405016E+03   -0.52789E+03   -0.52292E+03  4080   0.144E+02
DAV:   4    -0.498977113429E+03   -0.22986E+02   -0.22346E+02  4192   0.409E+01
DAV:   5    -0.499998416686E+03   -0.10213E+01   -0.10102E+01  5008   0.724E+00    0.371E+01
DAV:   6    -0.477592800635E+03    0.22406E+02   -0.54152E+01  4208   0.215E+01    0.225E+01
DAV:   7    -0.474933311315E+03    0.26595E+01   -0.27966E+01  4296   0.160E+01    0.152E+01
DAV:   8    -0.473356583913E+03    0.15767E+01   -0.90387E+00  4008   0.112E+01    0.107E+01
DAV:   9    -0.473600671415E+03   -0.24409E+00   -0.14957E+01  4664   0.892E+00    0.638E+00
DAV:  10    -0.472846612035E+03    0.75406E+00   -0.65690E+00  4408   0.700E+00    0.320E+00
DAV:  11    -0.472783807633E+03    0.62804E-01   -0.23340E+00  4464   0.402E+00    0.243E+00
DAV:  12    -0.472682414933E+03    0.10139E+00   -0.14959E+00  4832   0.266E+00    0.140E+00
DAV:  13    -0.472645241814E+03    0.37173E-01   -0.14522E-01  3832   0.128E+00    0.762E-01
DAV:  14    -0.472640085824E+03    0.51560E-02   -0.98780E-02  4088   0.726E-01    0.420E-01
DAV:  15    -0.472641207646E+03   -0.11218E-02   -0.74174E-02  4080   0.537E-01    0.419E-01
DAV:  16    -0.472639024452E+03    0.21832E-02   -0.45790E-02  4240   0.380E-01    0.228E-01
DAV:  17    -0.472638827812E+03    0.19664E-03   -0.93294E-03  3824   0.182E-01    0.114E-01
DAV:  18    -0.472638989263E+03   -0.16145E-03   -0.29661E-03  3928   0.105E-01    0.111E-01
DAV:  19    -0.472638826454E+03    0.16281E-03   -0.16203E-03  2504   0.749E-02    0.249E-02
DAV:  20    -0.472638844675E+03   -0.18221E-04   -0.10580E-04  2040   0.338E-02
   1 F= -.47654711E+03 E0= -.47654711E+03  d E =0.000000E+00  mag=     0.0000
