  71  71   0   0
  0.4004922E+02  0.1486054E-08  0.1476257E-08  0.1500000E-08  0.3000000E-15
  1.000000000000000E-004
  CAR 
 unknown system                          
      5.22914108    -48.09439324  301     -2.06870500      1.00000000
    -48.094  0.0000E+00  0.0000E+00  0.0000E+00  0.0000E+00
    -47.917  0.0000E+00  0.0000E+00  0.0000E+00  0.0000E+00
    -47.739  0.0000E+00  0.0000E+00  0.0000E+00  0.0000E+00
    -47.561  0.0000E+00  0.0000E+00  0.0000E+00  0.0000E+00
    -47.383  0.0000E+00  0.0000E+00  0.0000E+00  0.0000E+00
    -47.206  0.0000E+00  0.0000E+00  0.0000E+00  0.0000E+00
    -47.028  0.0000E+00  0.0000E+00  0.0000E+00  0.0000E+00
    -46.850  0.0000E+00  0.0000E+00  0.0000E+00  0.0000E+00
    -46.672  0.0000E+00  0.0000E+00  0.0000E+00  0.0000E+00
    -46.495  0.0000E+00  0.0000E+00  0.0000E+00  0.0000E+00
    -46.317  0.0000E+00  0.0000E+00  0.0000E+00  0.0000E+00
    -46.139  0.2406E-12  0.8522E-15  0.4277E-13  0.1515E-15
    -45.961  0.2741E-06  0.6679E-08  0.4872E-07  0.1187E-08
    -45.784  0.7708E-03  0.1191E-03  0.1371E-03  0.2117E-04
    -45.606  0.1076E-01  0.7646E-02  0.2049E-02  0.1380E-02
    -45.428  0.2533E-02  0.1136E-01  0.2499E-02  0.3399E-02
    -45.250  0.7401E-04  0.8792E-02  0.2512E-02  0.4962E-02
    -45.073  0.9608E-02  0.2468E-03  0.4220E-02  0.5006E-02
    -44.895  0.1781E-01  0.5290E-02  0.7386E-02  0.5946E-02
    -44.717  0.6437E-03  0.8548E-02  0.7500E-02  0.7466E-02
    -44.539  0.1308E-06  0.1934E-03  0.7500E-02  0.7500E-02
    -44.362  0.7166E-13  0.1675E-07  0.7500E-02  0.7500E-02
    -44.184  0.0000E+00  0.3356E-14  0.7500E-02  0.7500E-02
    -44.006  0.0000E+00  0.0000E+00  0.7500E-02  0.7500E-02
    -43.829  0.0000E+00  0.0000E+00  0.7500E-02  0.7500E-02
    -43.651  0.0000E+00  0.0000E+00  0.7500E-02  0.7500E-02
    -43.473  0.0000E+00  0.0000E+00  0.7500E-02  0.7500E-02
    -43.295  0.0000E+00  0.0000E+00  0.7500E-02  0.7500E-02
    -43.118  0.0000E+00  0.0000E+00  0.7500E-02  0.7500E-02
    -42.940  0.0000E+00  0.0000E+00  0.7500E-02  0.7500E-02
    -42.762  0.0000E+00  0.0000E+00  0.7500E-02  0.7500E-02
    -42.584  0.0000E+00  0.0000E+00  0.7500E-02  0.7500E-02
    -42.407  0.0000E+00  0.0000E+00  0.7500E-02  0.7500E-02
    -42.229  0.0000E+00  0.0000E+00  0.7500E-02  0.7500E-02
    -42.051  0.0000E+00  0.0000E+00  0.7500E-02  0.7500E-02
    -41.873  0.0000E+00  0.0000E+00  0.7500E-02  0.7500E-02
    -41.696  0.0000E+00  0.0000E+00  0.7500E-02  0.7500E-02
    -41.518  0.0000E+00  0.0000E+00  0.7500E-02  0.7500E-02
    -41.340  0.0000E+00  0.0000E+00  0.7500E-02  0.7500E-02
    -41.162  0.0000E+00  0.0000E+00  0.7500E-02  0.7500E-02
    -40.985  0.0000E+00  0.0000E+00  0.7500E-02  0.7500E-02
    -40.807  0.0000E+00  0.0000E+00  0.7500E-02  0.7500E-02
    -40.629  0.0000E+00  0.0000E+00  0.7500E-02  0.7500E-02
    -40.451  0.0000E+00  0.0000E+00  0.7500E-02  0.7500E-02
    -40.274  0.0000E+00  0.0000E+00  0.7500E-02  0.7500E-02
    -40.096  0.0000E+00  0.0000E+00  0.7500E-02  0.7500E-02
    -39.918  0.0000E+00  0.0000E+00  0.7500E-02  0.7500E-02
    -39.740  0.0000E+00  0.0000E+00  0.7500E-02  0.7500E-02
    -39.563  0.0000E+00  0.0000E+00  0.7500E-02  0.7500E-02
    -39.385  0.0000E+00  0.0000E+00  0.7500E-02  0.7500E-02
    -39.207  0.0000E+00  0.0000E+00  0.7500E-02  0.7500E-02
    -39.029  0.0000E+00  0.0000E+00  0.7500E-02  0.7500E-02
    -38.852  0.0000E+00  0.0000E+00  0.7500E-02  0.7500E-02
    -38.674  0.0000E+00  0.0000E+00  0.7500E-02  0.7500E-02
    -38.496  0.0000E+00  0.0000E+00  0.7500E-02  0.7500E-02
    -38.318  0.0000E+00  0.0000E+00  0.7500E-02  0.7500E-02
    -38.141  0.0000E+00  0.0000E+00  0.7500E-02  0.7500E-02
    -37.963  0.0000E+00  0.0000E+00  0.7500E-02  0.7500E-02
    -37.785  0.0000E+00  0.0000E+00  0.7500E-02  0.7500E-02
    -37.607  0.0000E+00  0.0000E+00  0.7500E-02  0.7500E-02
    -37.430  0.0000E+00  0.0000E+00  0.7500E-02  0.7500E-02
    -37.252  0.0000E+00  0.0000E+00  0.7500E-02  0.7500E-02
    -37.074  0.0000E+00  0.0000E+00  0.7500E-02  0.7500E-02
    -36.896  0.0000E+00  0.0000E+00  0.7500E-02  0.7500E-02
    -36.719  0.0000E+00  0.0000E+00  0.7500E-02  0.7500E-02
    -36.541  0.0000E+00  0.0000E+00  0.7500E-02  0.7500E-02
    -36.363  0.0000E+00  0.0000E+00  0.7500E-02  0.7500E-02
    -36.185  0.0000E+00  0.0000E+00  0.7500E-02  0.7500E-02
    -36.008  0.0000E+00  0.0000E+00  0.7500E-02  0.7500E-02
    -35.830  0.0000E+00  0.0000E+00  0.7500E-02  0.7500E-02
    -35.652  0.0000E+00  0.0000E+00  0.7500E-02  0.7500E-02
    -35.474  0.0000E+00  0.0000E+00  0.7500E-02  0.7500E-02
    -35.297  0.0000E+00  0.0000E+00  0.7500E-02  0.7500E-02
    -35.119  0.0000E+00  0.0000E+00  0.7500E-02  0.7500E-02
    -34.941  0.0000E+00  0.0000E+00  0.7500E-02  0.7500E-02
    -34.764  0.0000E+00  0.0000E+00  0.7500E-02  0.7500E-02
    -34.586  0.0000E+00  0.0000E+00  0.7500E-02  0.7500E-02
    -34.408  0.0000E+00  0.0000E+00  0.7500E-02  0.7500E-02
    -34.230  0.0000E+00  0.0000E+00  0.7500E-02  0.7500E-02
    -34.053  0.0000E+00  0.0000E+00  0.7500E-02  0.7500E-02
    -33.875  0.0000E+00  0.0000E+00  0.7500E-02  0.7500E-02
    -33.697  0.0000E+00  0.0000E+00  0.7500E-02  0.7500E-02
    -33.519  0.0000E+00  0.0000E+00  0.7500E-02  0.7500E-02
    -33.342  0.0000E+00  0.0000E+00  0.7500E-02  0.7500E-02
    -33.164  0.0000E+00  0.0000E+00  0.7500E-02  0.7500E-02
    -32.986  0.0000E+00  0.0000E+00  0.7500E-02  0.7500E-02
    -32.808  0.0000E+00  0.0000E+00  0.7500E-02  0.7500E-02
    -32.631  0.0000E+00  0.0000E+00  0.7500E-02  0.7500E-02
    -32.453  0.0000E+00  0.0000E+00  0.7500E-02  0.7500E-02
    -32.275  0.0000E+00  0.0000E+00  0.7500E-02  0.7500E-02
    -32.097  0.0000E+00  0.0000E+00  0.7500E-02  0.7500E-02
    -31.920  0.0000E+00  0.0000E+00  0.7500E-02  0.7500E-02
    -31.742  0.0000E+00  0.0000E+00  0.7500E-02  0.7500E-02
    -31.564  0.0000E+00  0.0000E+00  0.7500E-02  0.7500E-02
    -31.386  0.0000E+00  0.0000E+00  0.7500E-02  0.7500E-02
    -31.209  0.0000E+00  0.0000E+00  0.7500E-02  0.7500E-02
    -31.031  0.0000E+00  0.0000E+00  0.7500E-02  0.7500E-02
    -30.853  0.0000E+00  0.0000E+00  0.7500E-02  0.7500E-02
    -30.675  0.0000E+00  0.0000E+00  0.7500E-02  0.7500E-02
    -30.498  0.0000E+00  0.0000E+00  0.7500E-02  0.7500E-02
    -30.320  0.0000E+00  0.0000E+00  0.7500E-02  0.7500E-02
    -30.142  0.0000E+00  0.0000E+00  0.7500E-02  0.7500E-02
    -29.964  0.0000E+00  0.0000E+00  0.7500E-02  0.7500E-02
    -29.787  0.0000E+00  0.0000E+00  0.7500E-02  0.7500E-02
    -29.609  0.0000E+00  0.0000E+00  0.7500E-02  0.7500E-02
    -29.431  0.0000E+00  0.0000E+00  0.7500E-02  0.7500E-02
    -29.253  0.0000E+00  0.0000E+00  0.7500E-02  0.7500E-02
    -29.076  0.0000E+00  0.0000E+00  0.7500E-02  0.7500E-02
    -28.898  0.0000E+00  0.0000E+00  0.7500E-02  0.7500E-02
    -28.720  0.0000E+00  0.0000E+00  0.7500E-02  0.7500E-02
    -28.542  0.0000E+00  0.0000E+00  0.7500E-02  0.7500E-02
    -28.365  0.0000E+00  0.0000E+00  0.7500E-02  0.7500E-02
    -28.187  0.0000E+00  0.0000E+00  0.7500E-02  0.7500E-02
    -28.009  0.0000E+00  0.0000E+00  0.7500E-02  0.7500E-02
    -27.831  0.0000E+00  0.0000E+00  0.7500E-02  0.7500E-02
    -27.654  0.0000E+00  0.0000E+00  0.7500E-02  0.7500E-02
    -27.476  0.0000E+00  0.0000E+00  0.7500E-02  0.7500E-02
    -27.298  0.0000E+00  0.0000E+00  0.7500E-02  0.7500E-02
    -27.120  0.0000E+00  0.0000E+00  0.7500E-02  0.7500E-02
    -26.943  0.0000E+00  0.0000E+00  0.7500E-02  0.7500E-02
    -26.765  0.0000E+00  0.0000E+00  0.7500E-02  0.7500E-02
    -26.587  0.0000E+00  0.0000E+00  0.7500E-02  0.7500E-02
    -26.409  0.0000E+00  0.0000E+00  0.7500E-02  0.7500E-02
    -26.232  0.0000E+00  0.0000E+00  0.7500E-02  0.7500E-02
    -26.054  0.0000E+00  0.0000E+00  0.7500E-02  0.7500E-02
    -25.876  0.0000E+00  0.0000E+00  0.7500E-02  0.7500E-02
    -25.699  0.0000E+00  0.0000E+00  0.7500E-02  0.7500E-02
    -25.521  0.0000E+00  0.0000E+00  0.7500E-02  0.7500E-02
    -25.343  0.0000E+00  0.0000E+00  0.7500E-02  0.7500E-02
    -25.165  0.0000E+00  0.0000E+00  0.7500E-02  0.7500E-02
    -24.988  0.0000E+00  0.0000E+00  0.7500E-02  0.7500E-02
    -24.810  0.7808E-18  0.7808E-18  0.7500E-02  0.7500E-02
    -24.632  0.6428E-10  0.6163E-10  0.7500E-02  0.7500E-02
    -24.454  0.8637E-05  0.8425E-05  0.7502E-02  0.7501E-02
    -24.277  0.3314E-02  0.3283E-02  0.8091E-02  0.8085E-02
    -24.099  0.1023E-01  0.1025E-01  0.9909E-02  0.9908E-02
    -23.921  0.5107E-03  0.5187E-03  0.1000E-01  0.1000E-01
    -23.743  0.1154E-06  0.1192E-06  0.1000E-01  0.1000E-01
    -23.566  0.6291E-13  0.6610E-13  0.1000E-01  0.1000E-01
    -23.388  0.0000E+00  0.0000E+00  0.1000E-01  0.1000E-01
    -23.210  0.0000E+00  0.0000E+00  0.1000E-01  0.1000E-01
    -23.032  0.0000E+00  0.0000E+00  0.1000E-01  0.1000E-01
    -22.855  0.0000E+00  0.0000E+00  0.1000E-01  0.1000E-01
    -22.677  0.0000E+00  0.0000E+00  0.1000E-01  0.1000E-01
    -22.499  0.0000E+00  0.0000E+00  0.1000E-01  0.1000E-01
    -22.321  0.0000E+00  0.0000E+00  0.1000E-01  0.1000E-01
    -22.144  0.0000E+00  0.0000E+00  0.1000E-01  0.1000E-01
    -21.966  0.9940E-14  0.1005E-13  0.1000E-01  0.1000E-01
    -21.788  0.2499E-07  0.2515E-07  0.1000E-01  0.1000E-01
    -21.610  0.1727E-03  0.1732E-03  0.1003E-01  0.1003E-01
    -21.433  0.7653E-02  0.7660E-02  0.1139E-01  0.1139E-01
    -21.255  0.1645E-01  0.1646E-01  0.1431E-01  0.1432E-01
    -21.077  0.1657E-01  0.1656E-01  0.1726E-01  0.1726E-01
    -20.899  0.9185E-02  0.9167E-02  0.1889E-01  0.1889E-01
    -20.722  0.1126E-01  0.1126E-01  0.2089E-01  0.2089E-01
    -20.544  0.1813E-01  0.1815E-01  0.2412E-01  0.2412E-01
    -20.366  0.1102E-01  0.1099E-01  0.2607E-01  0.2607E-01
    -20.188  0.9177E-02  0.9176E-02  0.2770E-01  0.2770E-01
    -20.011  0.1160E-01  0.1159E-01  0.2977E-01  0.2976E-01
    -19.833  0.2010E-01  0.2010E-01  0.3334E-01  0.3333E-01
    -19.655  0.1551E-01  0.1554E-01  0.3610E-01  0.3610E-01
    -19.477  0.1074E-01  0.1072E-01  0.3801E-01  0.3800E-01
    -19.300  0.1131E-01  0.1131E-01  0.4002E-01  0.4001E-01
    -19.122  0.1552E-01  0.1553E-01  0.4277E-01  0.4277E-01
    -18.944  0.1603E-01  0.1603E-01  0.4562E-01  0.4562E-01
    -18.766  0.1317E-01  0.1316E-01  0.4796E-01  0.4796E-01
    -18.589  0.1428E-01  0.1429E-01  0.5050E-01  0.5050E-01
    -18.411  0.1393E-01  0.1392E-01  0.5298E-01  0.5297E-01
    -18.233  0.1736E-01  0.1736E-01  0.5606E-01  0.5606E-01
    -18.055  0.1182E-01  0.1181E-01  0.5817E-01  0.5816E-01
    -17.878  0.1160E-01  0.1161E-01  0.6023E-01  0.6022E-01
    -17.700  0.1184E-01  0.1184E-01  0.6233E-01  0.6233E-01
    -17.522  0.1983E-01  0.1983E-01  0.6585E-01  0.6585E-01
    -17.344  0.1347E-01  0.1342E-01  0.6825E-01  0.6824E-01
    -17.167  0.1851E-01  0.1849E-01  0.7154E-01  0.7152E-01
    -16.989  0.1466E-01  0.1472E-01  0.7414E-01  0.7414E-01
    -16.811  0.1670E-01  0.1667E-01  0.7711E-01  0.7710E-01
    -16.634  0.1627E-01  0.1626E-01  0.8000E-01  0.7999E-01
    -16.456  0.1206E-01  0.1207E-01  0.8215E-01  0.8214E-01
    -16.278  0.1534E-01  0.1533E-01  0.8487E-01  0.8486E-01
    -16.100  0.1267E-01  0.1270E-01  0.8713E-01  0.8712E-01
    -15.923  0.1342E-01  0.1339E-01  0.8951E-01  0.8950E-01
    -15.745  0.1413E-01  0.1410E-01  0.9202E-01  0.9201E-01
    -15.567  0.9954E-02  0.1001E-01  0.9379E-01  0.9379E-01
    -15.389  0.8452E-02  0.8432E-02  0.9529E-01  0.9529E-01
    -15.212  0.1099E-01  0.1102E-01  0.9725E-01  0.9724E-01
    -15.034  0.1472E-01  0.1474E-01  0.9986E-01  0.9986E-01
    -14.856  0.1431E-01  0.1430E-01  0.1024E+00  0.1024E+00
    -14.678  0.1507E-01  0.1494E-01  0.1051E+00  0.1051E+00
    -14.501  0.2304E-01  0.2311E-01  0.1092E+00  0.1092E+00
    -14.323  0.1011E-01  0.1014E-01  0.1110E+00  0.1110E+00
    -14.145  0.1676E-01  0.1676E-01  0.1140E+00  0.1139E+00
    -13.967  0.1328E-01  0.1327E-01  0.1163E+00  0.1163E+00
    -13.790  0.2252E-01  0.2247E-01  0.1203E+00  0.1203E+00
    -13.612  0.8544E-02  0.8652E-02  0.1218E+00  0.1218E+00
    -13.434  0.1639E-01  0.1632E-01  0.1248E+00  0.1247E+00
    -13.256  0.1322E-01  0.1327E-01  0.1271E+00  0.1271E+00
    -13.079  0.1233E-01  0.1233E-01  0.1293E+00  0.1293E+00
    -12.901  0.1528E-01  0.1528E-01  0.1320E+00  0.1320E+00
    -12.723  0.1273E-01  0.1268E-01  0.1343E+00  0.1343E+00
    -12.545  0.2424E-01  0.2426E-01  0.1386E+00  0.1386E+00
    -12.368  0.1135E-01  0.1142E-01  0.1406E+00  0.1406E+00
    -12.190  0.4924E-02  0.4901E-02  0.1415E+00  0.1415E+00
    -12.012  0.1361E-01  0.1359E-01  0.1439E+00  0.1439E+00
    -11.834  0.1600E-01  0.1600E-01  0.1467E+00  0.1467E+00
    -11.657  0.2841E-01  0.2834E-01  0.1518E+00  0.1518E+00
    -11.479  0.2449E-01  0.2456E-01  0.1561E+00  0.1561E+00
    -11.301  0.5111E-02  0.5152E-02  0.1570E+00  0.1570E+00
    -11.123  0.1137E-01  0.1130E-01  0.1591E+00  0.1591E+00
    -10.946  0.1852E-01  0.1852E-01  0.1624E+00  0.1623E+00
    -10.768  0.2215E-01  0.2220E-01  0.1663E+00  0.1663E+00
    -10.590  0.2008E-01  0.2001E-01  0.1699E+00  0.1698E+00
    -10.412  0.2361E-01  0.2362E-01  0.1741E+00  0.1740E+00
    -10.235  0.2190E-01  0.2193E-01  0.1780E+00  0.1779E+00
    -10.057  0.2027E-01  0.2029E-01  0.1816E+00  0.1816E+00
     -9.879  0.2526E-01  0.2524E-01  0.1860E+00  0.1860E+00
     -9.701  0.1752E-01  0.1753E-01  0.1892E+00  0.1892E+00
     -9.524  0.3563E-01  0.3553E-01  0.1955E+00  0.1955E+00
     -9.346  0.3241E-01  0.3248E-01  0.2013E+00  0.2012E+00
     -9.168  0.3014E-01  0.3020E-01  0.2066E+00  0.2066E+00
     -8.990  0.2431E-01  0.2432E-01  0.2109E+00  0.2109E+00
     -8.813  0.3097E-01  0.3091E-01  0.2164E+00  0.2164E+00
     -8.635  0.4455E-01  0.4449E-01  0.2244E+00  0.2243E+00
     -8.457  0.5766E-01  0.5771E-01  0.2346E+00  0.2346E+00
     -8.279  0.3949E-01  0.3951E-01  0.2416E+00  0.2416E+00
     -8.102  0.2448E-01  0.2439E-01  0.2460E+00  0.2460E+00
     -7.924  0.3182E-01  0.3166E-01  0.2516E+00  0.2516E+00
     -7.746  0.3227E-01  0.3254E-01  0.2574E+00  0.2574E+00
     -7.569  0.2731E-01  0.2726E-01  0.2622E+00  0.2622E+00
     -7.391  0.3717E-01  0.3715E-01  0.2688E+00  0.2688E+00
     -7.213  0.3082E-01  0.3064E-01  0.2743E+00  0.2743E+00
     -7.035  0.3952E-01  0.3953E-01  0.2813E+00  0.2813E+00
     -6.858  0.2425E-01  0.2435E-01  0.2856E+00  0.2856E+00
     -6.680  0.1722E-01  0.1709E-01  0.2887E+00  0.2887E+00
     -6.502  0.2039E-01  0.2047E-01  0.2923E+00  0.2923E+00
     -6.324  0.3072E-01  0.3029E-01  0.2978E+00  0.2977E+00
     -6.147  0.3345E-01  0.3386E-01  0.3037E+00  0.3037E+00
     -5.969  0.2835E-01  0.2795E-01  0.3088E+00  0.3087E+00
     -5.791  0.2224E-01  0.2298E-01  0.3127E+00  0.3127E+00
     -5.613  0.2408E-01  0.2405E-01  0.3170E+00  0.3170E+00
     -5.436  0.1736E-01  0.1707E-01  0.3201E+00  0.3201E+00
     -5.258  0.1618E-01  0.1655E-01  0.3230E+00  0.3230E+00
     -5.080  0.2622E-01  0.2684E-01  0.3276E+00  0.3278E+00
     -4.902  0.3012E-01  0.2961E-01  0.3330E+00  0.3330E+00
     -4.725  0.2435E-01  0.2430E-01  0.3373E+00  0.3373E+00
     -4.547  0.3447E-01  0.3443E-01  0.3434E+00  0.3435E+00
     -4.369  0.5927E-02  0.5773E-02  0.3445E+00  0.3445E+00
     -4.191  0.8146E-02  0.8203E-02  0.3459E+00  0.3460E+00
     -4.014  0.1781E-01  0.1594E-01  0.3491E+00  0.3488E+00
     -3.836  0.2654E-01  0.2661E-01  0.3538E+00  0.3535E+00
     -3.658  0.1010E-01  0.1184E-01  0.3556E+00  0.3556E+00
     -3.480  0.8488E-02  0.8475E-02  0.3571E+00  0.3571E+00
     -3.303  0.9171E-02  0.9810E-02  0.3588E+00  0.3589E+00
     -3.125  0.1183E-01  0.1196E-01  0.3609E+00  0.3610E+00
     -2.947  0.5690E-02  0.5866E-02  0.3619E+00  0.3620E+00
     -2.769  0.5889E-02  0.8377E-02  0.3629E+00  0.3635E+00
     -2.592  0.5605E-02  0.1610E-02  0.3639E+00  0.3638E+00
     -2.414  0.2519E-02  0.2788E-02  0.3644E+00  0.3643E+00
     -2.236  0.1742E-02  0.2060E-02  0.3647E+00  0.3647E+00
     -2.058  0.9491E-02  0.9644E-02  0.3664E+00  0.3664E+00
     -1.881  0.9154E-02  0.1077E-01  0.3680E+00  0.3683E+00
     -1.703  0.3244E-02  0.2557E-02  0.3686E+00  0.3688E+00
     -1.525  0.3498E-02  0.5302E-02  0.3692E+00  0.3697E+00
     -1.347  0.1914E-01  0.2047E-01  0.3726E+00  0.3733E+00
     -1.170  0.2534E-01  0.2201E-01  0.3771E+00  0.3773E+00
     -0.992  0.5429E-02  0.4863E-02  0.3781E+00  0.3781E+00
     -0.814  0.2047E-01  0.2040E-01  0.3817E+00  0.3817E+00
     -0.636  0.1463E-01  0.1427E-01  0.3843E+00  0.3843E+00
     -0.459  0.1237E-01  0.1247E-01  0.3865E+00  0.3865E+00
     -0.281  0.1757E-01  0.1735E-01  0.3896E+00  0.3896E+00
     -0.103  0.1603E-01  0.1608E-01  0.3925E+00  0.3924E+00
      0.075  0.1089E-01  0.1115E-01  0.3944E+00  0.3944E+00
      0.252  0.2230E-01  0.2219E-01  0.3984E+00  0.3984E+00
      0.430  0.1940E-01  0.1935E-01  0.4018E+00  0.4018E+00
      0.608  0.1446E-01  0.1445E-01  0.4044E+00  0.4044E+00
      0.786  0.6885E-02  0.6774E-02  0.4056E+00  0.4056E+00
      0.963  0.1999E-01  0.2114E-01  0.4092E+00  0.4093E+00
      1.141  0.1385E-01  0.1282E-01  0.4116E+00  0.4116E+00
      1.319  0.1657E-01  0.1707E-01  0.4146E+00  0.4146E+00
      1.496  0.2003E-01  0.1988E-01  0.4181E+00  0.4182E+00
      1.674  0.2270E-01  0.2208E-01  0.4222E+00  0.4221E+00
      1.852  0.2375E-01  0.2366E-01  0.4264E+00  0.4263E+00
      2.030  0.3278E-01  0.3304E-01  0.4322E+00  0.4322E+00
      2.207  0.2917E-01  0.2951E-01  0.4374E+00  0.4374E+00
      2.385  0.2149E-01  0.2146E-01  0.4412E+00  0.4412E+00
      2.563  0.3581E-01  0.3200E-01  0.4476E+00  0.4469E+00
      2.741  0.5194E-01  0.5254E-01  0.4568E+00  0.4563E+00
      2.918  0.1741E-01  0.2039E-01  0.4599E+00  0.4599E+00
      3.096  0.5371E-03  0.6042E-03  0.4600E+00  0.4600E+00
      3.274  0.1230E-06  0.1444E-06  0.4600E+00  0.4600E+00
      3.452  0.7836E-13  0.9820E-13  0.4600E+00  0.4600E+00
      3.629  0.0000E+00  0.0000E+00  0.4600E+00  0.4600E+00
      3.807  0.0000E+00  0.0000E+00  0.4600E+00  0.4600E+00
      3.985  0.0000E+00  0.0000E+00  0.4600E+00  0.4600E+00
      4.163  0.0000E+00  0.0000E+00  0.4600E+00  0.4600E+00
      4.340  0.0000E+00  0.0000E+00  0.4600E+00  0.4600E+00
      4.518  0.0000E+00  0.0000E+00  0.4600E+00  0.4600E+00
      4.696  0.0000E+00  0.0000E+00  0.4600E+00  0.4600E+00
      4.874  0.0000E+00  0.0000E+00  0.4600E+00  0.4600E+00
      5.051  0.0000E+00  0.0000E+00  0.4600E+00  0.4600E+00
      5.229  0.0000E+00  0.0000E+00  0.4600E+00  0.4600E+00
