 vasp.5.4.4.18Apr17-6-g9f103f2a35 (build Jan 14 2022 15:04:31) complex          
  
 executed on             LinuxIFC date 2023.01.23  17:52:24
 running on   48 total cores
 distrk:  each k-point on   48 cores,    1 groups
 distr:  one band on NCORES_PER_BAND=  12 cores,    4 groups


--------------------------------------------------------------------------------------------------------


 INCAR:
 POTCAR:    PAW_PBE C 08Apr2002                   
 POTCAR:    PAW_PBE N 08Apr2002                   
 POTCAR:    PAW_PBE C 08Apr2002                   
 POTCAR:    PAW_PBE Cr_pv 02Aug2007               
 POTCAR:    PAW_PBE C 08Apr2002                   
   SHA256 =  253f7b50bb8d59471dbedb8285d89021f4a42ed1a2c5d38a03a736e69125dd95 C/
   COPYR  = (c) Copyright 08Apr2002 Georg Kresse                                
   COPYR  = This file is part of the software VASP. Any use, copying, and all ot
   COPYR  = If you do not have a valid VASP license, you may not use, copy or di
   VRHFIN =C: s2p2                                                              
   LEXCH  = PE                                                                  
   EATOM  =   147.1560 eV,   10.8157 Ry                                         
                                                                                
   TITEL  = PAW_PBE C 08Apr2002                                                 
   LULTRA =        F    use ultrasoft PP ?                                      
   IUNSCR =        1    unscreen: 0-lin 1-nonlin 2-no                           
   RPACOR =    1.200    partial core radius                                     
   POMASS =   12.011; ZVAL   =    4.000    mass and valenz                      
   RCORE  =    1.500    outmost cutoff radius                                   
   RWIGS  =    1.630; RWIGS  =    0.863    wigner-seitz radius (au A)           
   ENMAX  =  400.000; ENMIN  =  300.000 eV                                      
   ICORE  =        2    local potential                                         
   LCOR   =        T    correct aug charges                                     
   LPAW   =        T    paw PP                                                  
   EAUG   =  644.873                                                            
   DEXC   =    0.000                                                            
   RMAX   =    1.529    core radius for proj-oper                               
   RAUG   =    1.300    factor for augmentation sphere                          
   RDEP   =    1.501    radius for radial grids                                 
   RDEPT  =    1.300    core radius for aug-charge                              
                                                                                
   Atomic configuration                                                         
    4 entries                                                                   
     n  l   j            E        occ.                                          
     1  0  0.50      -273.3789   2.0000                                         
     2  0  0.50       -13.7508   2.0000                                         
     2  1  0.50        -5.2854   2.0000                                         
     3  2  1.50        -5.4423   0.0000                                         
   Description                                                                  
     l       E           TYP  RCUT    TYP  RCUT                                 
     0    -13.7508458     23  1.200                                             
     0     -8.2022199     23  1.200                                             
     1     -5.2854383     23  1.500                                             
     1     34.0145650     23  1.500                                             
     2     -5.4423304      7  1.500                                             
  local pseudopotential read in
  partial core-charges read in
  partial kinetic energy density read in
  atomic valenz-charges read in
  non local Contribution for L=           0  read in
    real space projection operators read in
  non local Contribution for L=           0  read in
    real space projection operators read in
  non local Contribution for L=           1  read in
    real space projection operators read in
  non local Contribution for L=           1  read in
    real space projection operators read in
    PAW grid and wavefunctions read in
 
   number of l-projection  operators is LMAX  =           4
   number of lm-projection operators is LMMAX =           8
 
 POTCAR:    PAW_PBE N 08Apr2002                   
   SHA256 =  e053789ff3a61a86a1b75d8a110fcc91f86041011e7b0817c7c99e4e8a6349d7 N/
   COPYR  = (c) Copyright 08Apr2002 Georg Kresse                                
   COPYR  = This file is part of the software VASP. Any use, copying, and all ot
   COPYR  = If you do not have a valid VASP license, you may not use, copy or di
   VRHFIN =N: s2p3                                                              
   LEXCH  = PE                                                                  
   EATOM  =   264.5486 eV,   19.4438 Ry                                         
                                                                                
   TITEL  = PAW_PBE N 08Apr2002                                                 
   LULTRA =        F    use ultrasoft PP ?                                      
   IUNSCR =        1    unscreen: 0-lin 1-nonlin 2-no                           
   RPACOR =    1.200    partial core radius                                     
   POMASS =   14.001; ZVAL   =    5.000    mass and valenz                      
   RCORE  =    1.500    outmost cutoff radius                                   
   RWIGS  =    1.400; RWIGS  =    0.741    wigner-seitz radius (au A)           
   ENMAX  =  400.000; ENMIN  =  300.000 eV                                      
   ICORE  =        2    local potential                                         
   LCOR   =        T    correct aug charges                                     
   LPAW   =        T    paw PP                                                  
   EAUG   =  627.112                                                            
   DEXC   =    0.000                                                            
   RMAX   =    1.529    core radius for proj-oper                               
   RAUG   =    1.300    factor for augmentation sphere                          
   RDEP   =    1.514    radius for radial grids                                 
   RDEPT  =    1.338    core radius for aug-charge                              
                                                                                
   Atomic configuration                                                         
    4 entries                                                                   
     n  l   j            E        occ.                                          
     1  0  0.50      -384.7179   2.0000                                         
     2  0  0.50       -18.5828   2.0000                                         
     2  1  0.50        -7.0898   3.0000                                         
     3  2  1.50        -6.8029   0.0000                                         
   Description                                                                  
     l       E           TYP  RCUT    TYP  RCUT                                 
     0    -18.5828119     23  1.200                                             
     0    -13.5018863     23  1.200                                             
     1     -7.0897853     23  1.500                                             
     1      9.5240782     23  1.500                                             
     2     -6.8029130      7  1.500                                             
  local pseudopotential read in
  partial core-charges read in
  partial kinetic energy density read in
  atomic valenz-charges read in
  non local Contribution for L=           0  read in
    real space projection operators read in
  non local Contribution for L=           0  read in
    real space projection operators read in
  non local Contribution for L=           1  read in
    real space projection operators read in
  non local Contribution for L=           1  read in
    real space projection operators read in
    PAW grid and wavefunctions read in
 
   number of l-projection  operators is LMAX  =           4
   number of lm-projection operators is LMMAX =           8
 
 POTCAR:    PAW_PBE C 08Apr2002                   
   SHA256 =  253f7b50bb8d59471dbedb8285d89021f4a42ed1a2c5d38a03a736e69125dd95 C/
   COPYR  = (c) Copyright 08Apr2002 Georg Kresse                                
   COPYR  = This file is part of the software VASP. Any use, copying, and all ot
   COPYR  = If you do not have a valid VASP license, you may not use, copy or di
   VRHFIN =C: s2p2                                                              
   LEXCH  = PE                                                                  
   EATOM  =   147.1560 eV,   10.8157 Ry                                         
                                                                                
   TITEL  = PAW_PBE C 08Apr2002                                                 
   LULTRA =        F    use ultrasoft PP ?                                      
   IUNSCR =        1    unscreen: 0-lin 1-nonlin 2-no                           
   RPACOR =    1.200    partial core radius                                     
   POMASS =   12.011; ZVAL   =    4.000    mass and valenz                      
   RCORE  =    1.500    outmost cutoff radius                                   
   RWIGS  =    1.630; RWIGS  =    0.863    wigner-seitz radius (au A)           
   ENMAX  =  400.000; ENMIN  =  300.000 eV                                      
   ICORE  =        2    local potential                                         
   LCOR   =        T    correct aug charges                                     
   LPAW   =        T    paw PP                                                  
   EAUG   =  644.873                                                            
   DEXC   =    0.000                                                            
   RMAX   =    1.529    core radius for proj-oper                               
   RAUG   =    1.300    factor for augmentation sphere                          
   RDEP   =    1.501    radius for radial grids                                 
   RDEPT  =    1.300    core radius for aug-charge                              
                                                                                
   Atomic configuration                                                         
    4 entries                                                                   
     n  l   j            E        occ.                                          
     1  0  0.50      -273.3789   2.0000                                         
     2  0  0.50       -13.7508   2.0000                                         
     2  1  0.50        -5.2854   2.0000                                         
     3  2  1.50        -5.4423   0.0000                                         
   Description                                                                  
     l       E           TYP  RCUT    TYP  RCUT                                 
     0    -13.7508458     23  1.200                                             
     0     -8.2022199     23  1.200                                             
     1     -5.2854383     23  1.500                                             
     1     34.0145650     23  1.500                                             
     2     -5.4423304      7  1.500                                             
  local pseudopotential read in
  partial core-charges read in
  partial kinetic energy density read in
  atomic valenz-charges read in
  non local Contribution for L=           0  read in
    real space projection operators read in
  non local Contribution for L=           0  read in
    real space projection operators read in
  non local Contribution for L=           1  read in
    real space projection operators read in
  non local Contribution for L=           1  read in
    real space projection operators read in
    PAW grid and wavefunctions read in
 
   number of l-projection  operators is LMAX  =           4
   number of lm-projection operators is LMMAX =           8
 
 POTCAR:    PAW_PBE Cr_pv 02Aug2007               
   SHA256 =  c9a7df34d3cdbacf1090e328ef39c0b420964e11c23f63548d1ac9dd218cdba0 Cr
   COPYR  = (c) Copyright 02Aug2007 Georg Kresse                                
   COPYR  = This file is part of the software VASP. Any use, copying, and all ot
   COPYR  = If you do not have a valid VASP license, you may not use, copy or di
   VRHFIN =Cr : p6d5s1                                                          
   LEXCH  = PE                                                                  
   EATOM  =  1647.9177 eV,  121.1185 Ry                                         
                                                                                
   TITEL  = PAW_PBE Cr_pv 02Aug2007                                             
   LULTRA =        F    use ultrasoft PP ?                                      
   IUNSCR =        1    unscreen: 0-lin 1-nonlin 2-no                           
   RPACOR =    2.080    partial core radius                                     
   POMASS =   51.996; ZVAL   =   12.000    mass and valenz                      
   RCORE  =    2.300    outmost cutoff radius                                   
   RWIGS  =    2.500; RWIGS  =    1.323    wigner-seitz radius (au A)           
   ENMAX  =  265.681; ENMIN  =  199.261 eV                                      
   ICORE  =        3    local potential                                         
   LCOR   =        T    correct aug charges                                     
   LPAW   =        T    paw PP                                                  
   EAUG   =  519.424                                                            
   DEXC   =    0.000                                                            
   RMAX   =    2.356    core radius for proj-oper                               
   RAUG   =    1.300    factor for augmentation sphere                          
   RDEP   =    2.447    radius for radial grids                                 
   RDEPT  =    1.882    core radius for aug-charge                              
                                                                                
   Atomic configuration                                                         
    8 entries                                                                   
     n  l   j            E        occ.                                          
     1  0  0.50     -5880.4963   2.0000                                         
     2  0  0.50      -667.0865   2.0000                                         
     2  1  1.50      -560.6250   6.0000                                         
     3  0  0.50       -73.9860   2.0000                                         
     3  1  1.50       -45.4378   6.0000                                         
     3  2  2.50        -2.9137   5.0000                                         
     4  0  0.50        -4.0071   1.0000                                         
     4  3  2.50        -1.3606   0.0000                                         
   Description                                                                  
     l       E           TYP  RCUT    TYP  RCUT                                 
     1    -45.4377911     23  2.000                                             
     1      1.3605826     23  2.000                                             
     2     -2.9136672     23  2.300                                             
     2     -4.2742498     23  2.300                                             
     0     -4.0071320     23  2.300                                             
     0      9.4498803     23  2.300                                             
     3      2.7211652     23  2.300                                             
  local pseudopotential read in
  partial core-charges read in
  partial kinetic energy density read in
  atomic valenz-charges read in
  non local Contribution for L=           1  read in
    real space projection operators read in
  non local Contribution for L=           1  read in
    real space projection operators read in
  non local Contribution for L=           2  read in
    real space projection operators read in
  non local Contribution for L=           2  read in
    real space projection operators read in
  non local Contribution for L=           0  read in
    real space projection operators read in
  non local Contribution for L=           0  read in
    real space projection operators read in
    PAW grid and wavefunctions read in
 
   number of l-projection  operators is LMAX  =           6
   number of lm-projection operators is LMMAX =          18
 
 Optimization of the real space projectors (new method)

 maximal supplied QI-value         = 25.13
 optimisation between [QCUT,QGAM] = [ 10.56, 21.36] = [ 31.20,127.80] Ry 
 Optimized for a Real-space Cutoff    1.32 Angstroem

   l    n(q)    QCUT    max X(q) W(low)/X(q) W(high)/X(q)  e(spline) 
   0      8    10.556   115.676    0.17E-03    0.39E-03    0.26E-06
   0      8    10.556    87.132    0.17E-03    0.39E-03    0.26E-06
   1      8    10.556     4.429    0.24E-03    0.31E-03    0.16E-06
   1      8    10.556     2.733    0.17E-03    0.22E-03    0.19E-06
 Optimization of the real space projectors (new method)

 maximal supplied QI-value         = 25.13
 optimisation between [QCUT,QGAM] = [ 10.56, 21.36] = [ 31.20,127.80] Ry 
 Optimized for a Real-space Cutoff    1.40 Angstroem

   l    n(q)    QCUT    max X(q) W(low)/X(q) W(high)/X(q)  e(spline) 
   0      9    10.556    79.467    0.20E-03    0.22E-03    0.30E-06
   0      9    10.556    66.151    0.20E-03    0.22E-03    0.30E-06
   1      8    10.556    12.181    0.10E-03    0.78E-03    0.19E-05
   1      8    10.556     8.434    0.11E-03    0.81E-03    0.19E-05
 Optimization of the real space projectors (new method)

 maximal supplied QI-value         = 25.13
 optimisation between [QCUT,QGAM] = [ 10.56, 21.36] = [ 31.20,127.80] Ry 
 Optimized for a Real-space Cutoff    1.32 Angstroem

   l    n(q)    QCUT    max X(q) W(low)/X(q) W(high)/X(q)  e(spline) 
   0      8    10.556   115.676    0.17E-03    0.39E-03    0.26E-06
   0      8    10.556    87.132    0.17E-03    0.39E-03    0.26E-06
   1      8    10.556     4.429    0.24E-03    0.31E-03    0.16E-06
   1      8    10.556     2.733    0.17E-03    0.22E-03    0.19E-06
 Optimization of the real space projectors (new method)

 maximal supplied QI-value         = 16.25
 optimisation between [QCUT,QGAM] = [ 10.73, 21.45] = [ 32.22,128.87] Ry 
 Optimized for a Real-space Cutoff    1.53 Angstroem

   l    n(q)    QCUT    max X(q) W(low)/X(q) W(high)/X(q)  e(spline) 
   1      9    10.726     3.262    0.64E-04    0.35E-04    0.11E-06
   1      9    10.726     5.741    0.13E-03    0.48E-04    0.19E-06
   2      9    10.726    60.438    0.12E-03    0.29E-04    0.13E-06
   2      9    10.726    55.380    0.12E-03    0.29E-04    0.13E-06
   0     10    10.726    80.273    0.43E-04    0.74E-05    0.81E-07
   0     10    10.726    36.654    0.34E-04    0.61E-05    0.73E-07
  PAW_PBE C 08Apr2002                   :
 energy of atom  1       EATOM= -147.1560
 kinetic energy error for atom=    0.0132 (will be added to EATOM!!)
  PAW_PBE N 08Apr2002                   :
 energy of atom  2       EATOM= -264.5486
 kinetic energy error for atom=    0.0298 (will be added to EATOM!!)
  PAW_PBE C 08Apr2002                   :
 energy of atom  3       EATOM= -147.1560
 kinetic energy error for atom=    0.0132 (will be added to EATOM!!)
  PAW_PBE Cr_pv 02Aug2007               :
 energy of atom  4       EATOM=-1647.9177
 kinetic energy error for atom=    0.0134 (will be added to EATOM!!)
 
 
 POSCAR: POSCAR-clean                            
  positions in direct lattice
  velocities in cartesian coordinates
 exchange correlation table for  LEXCH =        8
   RHO(1)=    0.500       N(1)  =     2000
   RHO(2)=  100.500       N(2)  =     4000

 VTST: version 3.2, (02/03/18)

 CHAIN: initializing optimizer
 
 OPT: Using VASP Conjugate-Gradient optimizer
 CHAIN: Read ICHAIN            0
 
 POSCAR: POSCAR-clean                            
  positions in direct lattice
  velocities in cartesian coordinates
 


--------------------------------------------------------------------------------------------------------


 ion  position               nearest neighbor table
   1  0.000  1.000  0.498-  60 1.43   2 1.43  70 1.43
   2  0.056  0.112  0.498-  13 1.43   1 1.43  15 1.43
   3  0.168  0.002  0.498-   4 1.42  62 1.42  60 1.43
   4  0.224  0.113  0.498-   3 1.42  15 1.43  17 1.43
   5  0.334  0.002  0.498-   6 1.42  62 1.42  64 1.43
   6  0.390  0.113  0.498-   5 1.42  19 1.43  17 1.43
   7  0.500  1.000  0.498-  64 1.43   8 1.43  66 1.43
   8  0.556  0.112  0.498-  21 1.43   7 1.43  19 1.43
   9  0.666  0.998  0.498-  10 1.42  66 1.43  68 1.43
  10  0.722  0.109  0.498-   9 1.42  23 1.43  21 1.43
  11  0.832  0.998  0.498-  12 1.42  70 1.43  68 1.43
  12  0.888  0.109  0.498-  11 1.42  23 1.43  13 1.43
  13  0.999  0.166  0.498-  14 1.42   2 1.43  12 1.43
  14  0.055  0.277  0.498-  13 1.42  27 1.42  25 1.43
  15  0.167  0.168  0.498-  16 1.42   4 1.43   2 1.43
  16  0.223  0.280  0.500-  15 1.42  27 1.43  29 1.44
  17  0.335  0.170  0.499-  18 1.42   4 1.43   6 1.43
  18  0.391  0.282  0.502-  17 1.42  29 1.44  31 1.44
  19  0.501  0.168  0.498-  20 1.42   6 1.43   8 1.43
  20  0.557  0.280  0.500-  19 1.42  33 1.42  31 1.44
  21  0.667  0.166  0.498-  22 1.42   8 1.43  10 1.43
  22  0.723  0.277  0.498-  33 1.42  21 1.42  35 1.43
  23  0.833  0.165  0.498-  24 1.42  10 1.43  12 1.43
  24  0.888  0.276  0.498-  23 1.42  35 1.42  25 1.42
  25  0.999  0.333  0.498-  24 1.42  26 1.42  14 1.43
  26  0.054  0.444  0.499-  37 1.40  39 1.41  25 1.42
  27  0.165  0.333  0.500-  28 1.41  14 1.42  16 1.43
  28  0.218  0.444  0.502-  41 1.41  27 1.41  39 1.42
  29  0.335  0.338  0.503-  30 1.42  18 1.44  16 1.44
  30  0.387  0.449  0.510-  41 1.41  29 1.42  71 2.00
  31  0.503  0.338  0.504-  32 1.42  18 1.44  20 1.44
  32  0.562  0.449  0.510-  43 1.41  31 1.42  71 2.00
  33  0.668  0.333  0.500-  34 1.41  22 1.42  20 1.42
  34  0.726  0.444  0.501-  43 1.41  33 1.41  45 1.42
  35  0.834  0.333  0.498-  24 1.42  36 1.42  22 1.43
  36  0.891  0.444  0.498-  37 1.40  45 1.41  35 1.42
  37  1.000  0.500  0.498-  36 1.40  26 1.40  38 1.41
  38  0.055  0.610  0.498-  37 1.41  47 1.42  49 1.42
  39  0.164  0.500  0.500-  26 1.41  40 1.42  28 1.42
  40  0.221  0.611  0.500-  49 1.41  51 1.41  39 1.42
  41  0.328  0.499  0.505-  30 1.41  28 1.41  42 1.43
  42  0.385  0.612  0.505-  53 1.41  51 1.41  41 1.43
  43  0.671  0.499  0.505-  32 1.41  34 1.41  44 1.43
  44  0.727  0.612  0.505-  55 1.41  57 1.41  43 1.43
  45  0.836  0.500  0.500-  36 1.41  46 1.42  34 1.42
  46  0.891  0.611  0.500-  47 1.41  57 1.41  45 1.42
  47  0.001  0.666  0.498-  46 1.41  38 1.42  48 1.43
  48  0.057  0.778  0.498-  61 1.42  59 1.43  47 1.43
  49  0.165  0.666  0.499-  40 1.41  38 1.42  50 1.43
  50  0.222  0.778  0.498-  61 1.42  63 1.43  49 1.43
  51  0.331  0.667  0.502-  42 1.41  40 1.41  52 1.42
  52  0.388  0.778  0.500-  51 1.42  65 1.42  63 1.42
  53  0.494  0.663  0.510-  42 1.41  54 1.42  71 2.00
  54  0.553  0.773  0.503-  53 1.42  67 1.44  65 1.45
  55  0.668  0.663  0.510-  44 1.41  56 1.42  71 2.00
  56  0.721  0.773  0.504-  55 1.42  67 1.44  69 1.45
  57  0.837  0.667  0.501-  44 1.41  46 1.41  58 1.42
  58  0.891  0.778  0.500-  57 1.42  69 1.42  59 1.42
  59  0.001  0.834  0.498-  60 1.42  58 1.42  48 1.43
  60  0.057  0.945  0.498-  59 1.42   1 1.43   3 1.43
  61  0.167  0.835  0.498-  48 1.42  50 1.42  62 1.42
  62  0.223  0.946  0.498-  61 1.42   3 1.42   5 1.42
  63  0.333  0.834  0.499-  64 1.42  52 1.42  50 1.43
  64  0.389  0.945  0.498-  63 1.42   7 1.43   5 1.43
  65  0.499  0.832  0.500-  52 1.42  66 1.42  54 1.45
  66  0.555  0.943  0.498-  65 1.42   9 1.43   7 1.43
  67  0.665  0.830  0.503-  68 1.42  54 1.44  56 1.44
  68  0.721  0.941  0.499-  67 1.42   9 1.43  11 1.43
  69  0.833  0.832  0.500-  58 1.42  70 1.42  56 1.45
  70  0.889  0.943  0.498-  69 1.42  11 1.43   1 1.43
  71  0.528  0.555  0.554-  53 2.00  30 2.00  55 2.00  32 2.00
 

IMPORTANT INFORMATION: All symmetrisations will be switched off!
NOSYMM: (Re-)initialisation of all symmetry stuff for point group C_1.

 
 
 KPOINTS: K-Points                                

Automatic generation of k-mesh.
Space group operators:
 irot       det(A)        alpha          n_x          n_y          n_z        tau_x        tau_y        tau_z
    1     1.000000     0.000001     1.000000     0.000000     0.000000     0.000000     0.000000     0.000000
 
 Subroutine IBZKPT returns following result:
 ===========================================
 
 Found      4 irreducible k-points:
 
 Following reciprocal coordinates:
            Coordinates               Weight
  0.000000  0.000000  0.000000      1.000000
  0.500000 -0.000000  0.000000      1.000000
  0.000000  0.500000  0.000000      1.000000
  0.500000  0.500000  0.000000      1.000000
 
 Following cartesian coordinates:
            Coordinates               Weight
  0.000000  0.000000  0.000000      1.000000
  0.033646  0.019598  0.000000      1.000000
 -0.000000  0.039196  0.000000      1.000000
  0.033646  0.058794  0.000000      1.000000
 


--------------------------------------------------------------------------------------------------------




 Dimension of arrays:
   k-points           NKPTS =      4   k-points in BZ     NKDIM =      4   number of bands    NBANDS=    184
   number of dos      NEDOS =    301   number of ions     NIONS =     71
   non local maximal  LDIM  =      6   non local SUM 2l+1 LMDIM =     18
   total plane-waves  NPLWV = ******
   max r-space proj   IRMAX =   6643   max aug-charges    IRDMAX=  15613
   dimension x,y,z NGX =   108 NGY =  108 NGZ =  108
   dimension x,y,z NGXF=   216 NGYF=  216 NGZF=  216
   support grid    NGXF=   216 NGYF=  216 NGZF=  216
   ions per type =              36   1  33   1
   NGX,Y,Z   is equivalent  to a cutoff of  12.08, 12.16, 11.97 a.u.
   NGXF,Y,Z  is equivalent  to a cutoff of  24.16, 24.32, 23.94 a.u.

 SYSTEM =  unknown system                          
 POSCAR =  POSCAR-clean                            

 Startparameter for this run:
   NWRITE =      2    write-flag & timer
   PREC   = accura    normal or accurate (medium, high low for compatibility)
   ISTART =      0    job   : 0-new  1-cont  2-samecut
   ICHARG =      2    charge: 1-file 2-atom 10-const
   ISPIN  =      2    spin polarized calculation?
   LNONCOLLINEAR =      F non collinear calculations
   LSORBIT =      F    spin-orbit coupling
   INIWAV =      1    electr: 0-lowe 1-rand  2-diag
   LASPH  =      F    aspherical Exc in radial PAW
   METAGGA=      F    non-selfconsistent MetaGGA calc.

 Electronic Relaxation 1
   ENCUT  =  440.0 eV  32.34 Ry    5.69 a.u.  25.42 25.25 25.66*2*pi/ulx,y,z
   ENINI  =  440.0     initial cutoff
   ENAUG  =  644.9 eV  augmentation charge cutoff
   NELM   =     50;   NELMIN=  2; NELMDL= -5     # of ELM steps 
   EDIFF  = 0.1E-04   stopping-criterion for ELM
   LREAL  =      T    real-space projection
   NLSPLINE    = F    spline interpolate recip. space projectors
   LCOMPAT=      F    compatible to vasp.4.4
   GGA_COMPAT  = T    GGA compatible to vasp.4.4-vasp.4.6
   LMAXPAW     = -100 max onsite density
   LMAXMIX     =    2 max onsite mixed and CHGCAR
   VOSKOWN=      0    Vosko Wilk Nusair interpolation
   ROPT   =   -0.00025  -0.00025  -0.00025  -0.00025
 Ionic relaxation
   EDIFFG = -.5E-01   stopping-criterion for IOM
   NSW    =    400    number of steps for IOM
   NBLOCK =      1;   KBLOCK =    400    inner block; outer block 
   IBRION =      2    ionic relax: 0-MD 1-quasi-New 2-CG
   NFREE  =      1    steps in history (QN), initial steepest desc. (CG)
   ISIF   =      2    stress and relaxation
   IWAVPR =     11    prediction:  0-non 1-charg 2-wave 3-comb
   ISYM   =      0    0-nonsym 1-usesym 2-fastsym
   LCORR  =      T    Harris-Foulkes like correction to forces

   POTIM  = 0.3000    time-step for ionic-motion
   TEIN   =    0.0    initial temperature
   TEBEG  =    0.0;   TEEND  =   0.0 temperature during run
   SMASS  =  -3.00    Nose mass-parameter (am)
   estimated Nose-frequenzy (Omega)   =  0.10E-29 period in steps =****** mass=  -0.505E-26a.u.
   SCALEE = 1.0000    scale energy and forces
   NPACO  =    256;   APACO  = 16.0  distance and # of slots for P.C.
   PSTRESS=    0.0 pullay stress

  Mass of Ions in am
   POMASS =  12.01 14.00 12.01 52.00
  Ionic Valenz
   ZVAL   =   4.00  5.00  4.00 12.00
  Atomic Wigner-Seitz radii
   RWIGS  =  -1.00 -1.00 -1.00 -1.00
  virtual crystal weights 
   VCA    =   1.00  1.00  1.00  1.00
   NELECT =     293.0000    total number of electrons
   NUPDOWN=      -1.0000    fix difference up-down

 DOS related values:
   EMIN   =  10.00;   EMAX   =-10.00  energy-range for DOS
   EFERMI =   0.00
   ISMEAR =     0;   SIGMA  =   0.10  broadening in eV -4-tet -1-fermi 0-gaus

 Electronic relaxation 2 (details)
   IALGO  =     68    algorithm
   LDIAG  =      T    sub-space diagonalisation (order eigenvalues)
   LSUBROT=      F    optimize rotation matrix (better conditioning)
   TURBO    =      0    0=normal 1=particle mesh
   IRESTART =      0    0=no restart 2=restart with 2 vectors
   NREBOOT  =      0    no. of reboots
   NMIN     =      0    reboot dimension
   EREF     =   0.00    reference energy to select bands
   IMIX   =      4    mixing-type and parameters
     AMIX     =   0.40;   BMIX     =  1.00
     AMIX_MAG =   1.60;   BMIX_MAG =  1.00
     AMIN     =   0.10
     WC   =   100.;   INIMIX=   1;  MIXPRE=   1;  MAXMIX= -45

 Intra band minimization:
   WEIMIN = 0.0010     energy-eigenvalue tresh-hold
   EBREAK =  0.14E-07  absolut break condition
   DEPER  =   0.30     relativ break condition  

   TIME   =   0.40     timestep for ELM

  volume/ion in A,a.u.               =      40.05       270.27
  Fermi-wavevector in a.u.,A,eV,Ry     =   0.767503  1.450370  8.014653  0.589060
  Thomas-Fermi vector in A             =   1.868073
 
 Write flags
   LWAVE        =      F    write WAVECAR
   LDOWNSAMPLE  =      F    k-point downsampling of WAVECAR
   LCHARG       =      F    write CHGCAR
   LVTOT        =      F    write LOCPOT, total local potential
   LVHAR        =      F    write LOCPOT, Hartree potential only
   LELF         =      F    write electronic localiz. function (ELF)
   LORBIT       =      0    0 simple, 1 ext, 2 COOP (PROOUT), +10 PAW based schemes


 Dipole corrections
   LMONO  =      F    monopole corrections only (constant potential shift)
   LDIPOL =      F    correct potential (dipole corrections)
   IDIPOL =      0    1-x, 2-y, 3-z, 4-all directions 
   EPSILON=  1.0000000 bulk dielectric constant

 Exchange correlation treatment:
   GGA     =    --    GGA type
   LEXCH   =     8    internal setting for exchange type
   VOSKOWN=      0    Vosko Wilk Nusair interpolation
   LHFCALC =     F    Hartree Fock is set to
   LHFONE  =     F    Hartree Fock one center treatment
   AEXX    =    0.0000 exact exchange contribution

 Linear response parameters
   LEPSILON=     F    determine dielectric tensor
   LRPA    =     F    only Hartree local field effects (RPA)
   LNABLA  =     F    use nabla operator in PAW spheres
   LVEL    =     F    velocity operator in full k-point grid
   LINTERFAST=   F  fast interpolation
   KINTER  =     0    interpolate to denser k-point grid
   CSHIFT  =0.1000    complex shift for real part using Kramers Kronig
   OMEGAMAX=  -1.0    maximum frequency
   DEG_THRESHOLD= 0.2000000E-02 threshold for treating states as degnerate
   RTIME   =   -0.100 relaxation time in fs
  (WPLASMAI=    0.000 imaginary part of plasma frequency in eV, 0.658/RTIME)
   DFIELD  = 0.0000000 0.0000000 0.0000000 field for delta impulse in time
 
 Orbital magnetization related:
   ORBITALMAG=     F  switch on orbital magnetization
   LCHIMAG   =     F  perturbation theory with respect to B field
   DQ        =  0.001000  dq finite difference perturbation B field
   LLRAUG    =     F  two centre corrections for induced B field



--------------------------------------------------------------------------------------------------------


 conjugate gradient relaxation of ions
 charge density and potential will be updated during run
 spin polarized calculation
 RMM-DIIS sequential band-by-band and
  variant of blocked Davidson during initial phase
 perform sub-space diagonalisation
    before iterative eigenvector-optimisation
 modified Broyden-mixing scheme, WC =      100.0
 initial mixing is a Kerker type mixing with AMIX =  0.4000 and BMIX =      1.0000
 Hartree-type preconditioning will be used
 using additional bands           37
 real space projection scheme for non local part
 use partial core corrections
 calculate Harris-corrections to forces 
   (improved forces if not selfconsistent)
 use gradient corrections 
 use of overlap-Matrix (Vanderbilt PP)
 Gauss-broadening in eV      SIGMA  =   0.10


--------------------------------------------------------------------------------------------------------


  energy-cutoff  :      440.00
  volume of cell :     2843.49
      direct lattice vectors                 reciprocal lattice vectors
    14.860536817  0.000011824  0.000000000     0.067292289  0.039196149  0.000000000
    -7.430268409 12.756349395  0.000000000    -0.000000062  0.078392297  0.000000000
     0.000000000  0.000000000 15.000000000     0.000000000  0.000000000  0.066666667

  length of vectors
    14.860536817 14.762565445 15.000000000     0.077875479  0.078392297  0.066666667


 
 k-points in units of 2pi/SCALE and weight: K-Points                                
   0.00000000  0.00000000  0.00000000       0.250
   0.03364614  0.01959807  0.00000000       0.250
  -0.00000003  0.03919615  0.00000000       0.250
   0.03364611  0.05879422  0.00000000       0.250
 
 k-points in reciprocal lattice and weights: K-Points                                
   0.00000000  0.00000000  0.00000000       0.250
   0.50000000 -0.00000000  0.00000000       0.250
   0.00000000  0.50000000  0.00000000       0.250
   0.50000000  0.50000000  0.00000000       0.250
 
 position of ions in fractional coordinates (direct lattice) 
   0.00006982  0.99983621  0.49763009
   0.05582164  0.11160930  0.49771486
   0.16798090  0.00191508  0.49753925
   0.22361864  0.11341456  0.49825074
   0.33417773  0.00190079  0.49773993
   0.39004510  0.11339804  0.49838534
   0.50000407  0.99980644  0.49771881
   0.55602696  0.11157927  0.49764605
   0.66580204  0.99789299  0.49825552
   0.72158796  0.10932891  0.49754028
   0.83235589  0.99791011  0.49838532
   0.88800225  0.10934290  0.49774338
   0.99920548  0.16597588  0.49781668
   0.05451507  0.27744429  0.49849508
   0.16736481  0.16817995  0.49836254
   0.22291963  0.27974612  0.50005168
   0.33521032  0.17015851  0.49938083
   0.39091601  0.28156589  0.50249311
   0.50106046  0.16815596  0.49841312
   0.55707073  0.27972557  0.50002947
   0.66700815  0.16595263  0.49751829
   0.72315894  0.27742542  0.49802881
   0.83264216  0.16503785  0.49760878
   0.88824922  0.27626081  0.49773751
   0.99880681  0.33298128  0.49830651
   0.05392071  0.44444546  0.49883276
   0.16523985  0.33299566  0.50000088
   0.21840012  0.44385755  0.50163342
   0.33530606  0.33788968  0.50339849
   0.38703214  0.44854983  0.50970077
   0.50285271  0.33789023  0.50355538
   0.56179041  0.44854813  0.51001882
   0.66798956  0.33297872  0.49963856
   0.72567868  0.44384945  0.50114204
   0.83440246  0.33297146  0.49790622
   0.89073871  0.44443965  0.49834605
   0.99996195  0.49970930  0.49833510
   0.05525950  0.61030106  0.49825277
   0.16386178  0.50012207  0.50032406
   0.22050344  0.61142063  0.50031097
   0.32836961  0.49924612  0.50520459
   0.38504320  0.61171543  0.50520219
   0.67112881  0.49924369  0.50516835
   0.72692683  0.61171689  0.50517144
   0.83647547  0.50011895  0.49958897
   0.89113365  0.61141911  0.49956492
   0.00108346  0.66632897  0.49821883
   0.05683872  0.77832596  0.49789369
   0.16546401  0.66632748  0.49874033
   0.22171379  0.77831966  0.49830003
   0.33062546  0.66716925  0.50166051
   0.38797551  0.77833872  0.50001248
   0.49431793  0.66250506  0.50960056
   0.55299939  0.77326319  0.50339940
   0.66846142  0.66250628  0.50991750
   0.72053293  0.77326275  0.50355043
   0.83677392  0.66717535  0.50117165
   0.89061312  0.77835339  0.49964987
   0.00147483  0.83410220  0.49804077
   0.05670762  0.94547664  0.49752513
   0.16737814  0.83452506  0.49773520
   0.22321891  0.94619451  0.49761412
   0.33285695  0.83408552  0.49850271
   0.38900590  0.94545587  0.49782356
   0.49878908  0.83151012  0.50004975
   0.55481919  0.94313926  0.49837258
   0.66496187  0.82965548  0.50251035
   0.72068360  0.94110389  0.49939243
   0.83298630  0.83153125  0.50002242
   0.88859029  0.94316528  0.49840934
   0.52771140  0.55542488  0.55445762
 
 position of ions in cartesian coordinates  (Angst):
  -7.42801390 12.75426008  7.46445131
   0.00025245  1.42372784  7.46572294
   2.48205669  0.02443148  7.46308868
   2.48039243  1.44675844  7.47376110
   4.95193702  0.02425108  7.46609902
   4.95370164  1.44654964  7.47578014
   0.00149869 12.75388623  7.46578211
   7.43379518  1.42335067  7.46469073
   2.47956294 12.72947946  7.47383284
   9.91084126  1.39464628  7.46310423
   4.95451541 12.72969987  7.47577978
  12.38374298  1.39482680  7.46615063
  13.61548449  2.11725818  7.46725025
  -1.25136240  3.53917695  7.47742618
   1.23750870  2.14536419  7.47543816
   1.23411654  3.56854190  7.50077522
   3.71708187  2.17060542  7.49071245
   3.71711165  3.59175743  7.53739664
   6.19658347  2.14506216  7.47619684
   6.19993401  3.56828366  7.50044207
   8.67902667  2.11695756  7.46277432
   8.68518476  3.53894420  7.47043217
  11.14723386  2.10529037  7.46413173
  11.14716820  3.52408998  7.46606261
  12.36866506  4.24763734  7.47459768
  -2.50105842  5.66950225  7.48249133
  -0.01869427  4.24781098  7.50001317
  -0.05243763  5.66200455  7.52450128
   2.47221703  4.31024276  7.55097733
   2.41865976  5.72186291  7.64551157
   4.96204616  4.31025174  7.55333067
   5.01567407  5.72184327  7.65028224
   7.45256213  4.24760084  7.49457846
   7.48605417  5.66190730  7.51713066
   9.92560108  4.24751021  7.46859324
   9.93454943  5.66943802  7.47519071
  11.14699719  6.37447829  7.47502651
  -3.71351479  7.78521421  7.47379160
  -1.28096715  6.37973382  7.50486087
  -1.26621993  7.79949779  7.50466462
   1.17021598  6.36856180  7.57806890
   1.17673877  7.80326026  7.57803278
   6.26381984  6.36853484  7.57752523
   6.25730227  7.80328293  7.57757157
   8.71445657  6.37970194  7.49383449
   8.69971632  7.79948635  7.49347377
  -4.93490233  8.49992511  7.47328240
  -4.93851699  9.92859862  7.46840529
  -2.49210799  8.49990809  7.48110492
  -2.48833799  9.92852011  7.47450044
  -0.04397482  8.51064802  7.52490768
  -0.01774124  9.92876525  7.50018721
   2.42323934  8.45115191  7.64400837
   2.47231483  9.86402193  7.55099101
   5.01109604  8.45116955  7.64876249
   4.96195630  9.86401836  7.55325640
   7.47761775  8.51073181  7.51757479
   7.45161441  9.92895834  7.49474799
  -6.17568643 10.64009912  7.47061160
  -6.18243958 12.06083107  7.46287693
  -3.71341621 10.64549527  7.46602798
  -3.71332631 12.06999040  7.46421186
  -1.25104632 10.63989026  7.47754065
  -1.24415441 12.06057002  7.46735344
   1.23393009 10.60703957  7.50074626
   1.23713321 12.03102051  7.47558875
   3.71712750 10.58338306  7.53765525
   3.71709072 12.00505852  7.49088651
   6.20012316 10.60731304  7.50033628
   6.19695753 12.03135641  7.47614012
   3.71511872  7.08520005  8.31686424
 


--------------------------------------------------------------------------------------------------------


 k-point  1 :   0.0000 0.0000 0.0000  plane waves:   59589
 k-point  2 :   0.5000-0.0000 0.0000  plane waves:   59566
 k-point  3 :   0.0000 0.5000 0.0000  plane waves:   59634
 k-point  4 :   0.5000 0.5000 0.0000  plane waves:   59566

 maximum and minimum number of plane-waves per node :      4994     4933

 maximum number of plane-waves:     59634
 maximum index in each direction: 
   IXMAX=   25   IYMAX=   25   IZMAX=   25
   IXMIN=  -25   IYMIN=  -25   IZMIN=  -25


 real space projection operators:
  total allocation   :      18899.64 KBytes
  max/ min on nodes  :       1623.12       1540.52


 parallel 3D FFT for wavefunctions:
    minimum data exchange during FFTs selected (reduces bandwidth)
 parallel 3D FFT for charge:
    minimum data exchange during FFTs selected (reduces bandwidth)


 total amount of memory used by VASP MPI-rank0   111612. kBytes
=======================================================================

   base      :      30000. kBytes
   nonlr-proj:       9927. kBytes
   fftplans  :      10852. kBytes
   grid      :      30996. kBytes
   one-center:        186. kBytes
   wavefun   :      29651. kBytes
 
     INWAV:  cpu time    0.0000: real time    0.0000
 Broyden mixing: mesh for mixing (old mesh)
   NGX = 51   NGY = 51   NGZ = 51
  (NGX  =216   NGY  =216   NGZ  =216)
  gives a total of 132651 points

 initial charge density was supplied:
 charge density of overlapping atoms calculated
 number of electron     293.0000000 magnetization       1.0000000
 keeping initial charge density in first step


--------------------------------------------------------------------------------------------------------


 Maximum index for non-local projection operator          551
 Maximum index for augmentation-charges          334 (set IRDMAX)


--------------------------------------------------------------------------------------------------------


 First call to EWALD:  gamma=   0.125
 Maximum number of real-space cells 3x 3x 3
 Maximum number of reciprocal cells 3x 3x 3

    FEWALD:  cpu time    0.0332: real time    0.0351


--------------------------------------- Iteration      1(   1)  ---------------------------------------


    POTLOK:  cpu time    0.3938: real time    0.4289
    SETDIJ:  cpu time    0.0144: real time    0.0153
     EDDAV:  cpu time   11.5215: real time   11.6583
       DOS:  cpu time    0.0014: real time    0.0014
    --------------------------------------------
      LOOP:  cpu time   11.9311: real time   12.1039

 eigenvalue-minimisations  :  3376
 total energy-change (2. order) : 0.2461699E+04  (-0.1080849E+05)
 number of electron     293.0000000 magnetization       1.0000000
 augmentation part      293.0000000 magnetization       1.0000000

 Free energy of the ion-electron system (eV)
  ---------------------------------------------------
  alpha Z        PSCENC =       157.21068235
  Ewald energy   TEWEN  =     30443.73878196
  -Hartree energ DENC   =    -39605.85021604
  -exchange      EXHF   =         0.00000000
  -V(xc)+E(xc)   XCENC  =       982.92337818
  PAW double counting   =      9000.30529238    -9089.18527416
  entropy T*S    EENTRO =        -0.11288185
  eigenvalues    EBANDS =     -1492.60796357
  atomic energy  EATOM  =     12065.27733323
  Solvation  Ediel_sol  =         0.00000000
  ---------------------------------------------------
  free energy    TOTEN  =      2461.69913247 eV

  energy without entropy =     2461.81201432  energy(sigma->0) =     2461.75557339


--------------------------------------------------------------------------------------------------------




--------------------------------------- Iteration      1(   2)  ---------------------------------------


     EDDAV:  cpu time   14.5959: real time   14.8481
       DOS:  cpu time    0.0010: real time    0.0010
    --------------------------------------------
      LOOP:  cpu time   14.5969: real time   14.8491

 eigenvalue-minimisations  :  4216
 total energy-change (2. order) :-0.2691379E+04  (-0.2572589E+04)
 number of electron     293.0000000 magnetization       1.0000000
 augmentation part      293.0000000 magnetization       1.0000000

 Free energy of the ion-electron system (eV)
  ---------------------------------------------------
  alpha Z        PSCENC =       157.21068235
  Ewald energy   TEWEN  =     30443.73878196
  -Hartree energ DENC   =    -39605.85021604
  -exchange      EXHF   =         0.00000000
  -V(xc)+E(xc)   XCENC  =       982.92337818
  PAW double counting   =      9000.30529238    -9089.18527416
  entropy T*S    EENTRO =        -0.02131301
  eigenvalues    EBANDS =     -4184.07828221
  atomic energy  EATOM  =     12065.27733323
  Solvation  Ediel_sol  =         0.00000000
  ---------------------------------------------------
  free energy    TOTEN  =      -229.67961733 eV

  energy without entropy =     -229.65830432  energy(sigma->0) =     -229.66896082


--------------------------------------------------------------------------------------------------------




--------------------------------------- Iteration      1(   3)  ---------------------------------------


     EDDAV:  cpu time   12.7982: real time   12.9975
       DOS:  cpu time    0.0010: real time    0.0010
    --------------------------------------------
      LOOP:  cpu time   12.7992: real time   12.9985

 eigenvalue-minimisations  :  3560
 total energy-change (2. order) :-0.4575388E+03  (-0.4547520E+03)
 number of electron     293.0000000 magnetization       1.0000000
 augmentation part      293.0000000 magnetization       1.0000000

 Free energy of the ion-electron system (eV)
  ---------------------------------------------------
  alpha Z        PSCENC =       157.21068235
  Ewald energy   TEWEN  =     30443.73878196
  -Hartree energ DENC   =    -39605.85021604
  -exchange      EXHF   =         0.00000000
  -V(xc)+E(xc)   XCENC  =       982.92337818
  PAW double counting   =      9000.30529238    -9089.18527416
  entropy T*S    EENTRO =        -0.04180833
  eigenvalues    EBANDS =     -4641.59661426
  atomic energy  EATOM  =     12065.27733323
  Solvation  Ediel_sol  =         0.00000000
  ---------------------------------------------------
  free energy    TOTEN  =      -687.21844469 eV

  energy without entropy =     -687.17663637  energy(sigma->0) =     -687.19754053


--------------------------------------------------------------------------------------------------------




--------------------------------------- Iteration      1(   4)  ---------------------------------------


     EDDAV:  cpu time   12.7247: real time   12.9653
       DOS:  cpu time    0.0010: real time    0.0011
    --------------------------------------------
      LOOP:  cpu time   12.7257: real time   12.9664

 eigenvalue-minimisations  :  3568
 total energy-change (2. order) :-0.1677917E+02  (-0.1664649E+02)
 number of electron     293.0000000 magnetization       1.0000000
 augmentation part      293.0000000 magnetization       1.0000000

 Free energy of the ion-electron system (eV)
  ---------------------------------------------------
  alpha Z        PSCENC =       157.21068235
  Ewald energy   TEWEN  =     30443.73878196
  -Hartree energ DENC   =    -39605.85021604
  -exchange      EXHF   =         0.00000000
  -V(xc)+E(xc)   XCENC  =       982.92337818
  PAW double counting   =      9000.30529238    -9089.18527416
  entropy T*S    EENTRO =        -0.04326873
  eigenvalues    EBANDS =     -4658.37432617
  atomic energy  EATOM  =     12065.27733323
  Solvation  Ediel_sol  =         0.00000000
  ---------------------------------------------------
  free energy    TOTEN  =      -703.99761700 eV

  energy without entropy =     -703.95434827  energy(sigma->0) =     -703.97598264


--------------------------------------------------------------------------------------------------------




--------------------------------------- Iteration      1(   5)  ---------------------------------------


     EDDAV:  cpu time   14.1718: real time   14.3532
       DOS:  cpu time    0.0010: real time    0.0010
    CHARGE:  cpu time    0.4869: real time    0.4960
    MIXING:  cpu time    0.0073: real time    0.0084
    --------------------------------------------
      LOOP:  cpu time   14.6670: real time   14.8587

 eigenvalue-minimisations  :  4064
 total energy-change (2. order) :-0.5466950E+00  (-0.5446703E+00)
 number of electron     292.9999980 magnetization       0.7755363
 augmentation part       11.6619136 magnetization       0.7583858

 Broyden mixing:
  rms(total) = 0.46861E+01    rms(broyden)= 0.46856E+01
  rms(prec ) = 0.54433E+01
  weight for this iteration     100.00

 Free energy of the ion-electron system (eV)
  ---------------------------------------------------
  alpha Z        PSCENC =       157.21068235
  Ewald energy   TEWEN  =     30443.73878196
  -Hartree energ DENC   =    -39605.85021604
  -exchange      EXHF   =         0.00000000
  -V(xc)+E(xc)   XCENC  =       982.92337818
  PAW double counting   =      9000.30529238    -9089.18527416
  entropy T*S    EENTRO =        -0.04358259
  eigenvalues    EBANDS =     -4658.92070734
  atomic energy  EATOM  =     12065.27733323
  Solvation  Ediel_sol  =         0.00000000
  ---------------------------------------------------
  free energy    TOTEN  =      -704.54431204 eV

  energy without entropy =     -704.50072945  energy(sigma->0) =     -704.52252074


--------------------------------------------------------------------------------------------------------




--------------------------------------- Iteration      1(   6)  ---------------------------------------


    POTLOK:  cpu time    0.3989: real time    0.4082
    SETDIJ:  cpu time    0.0127: real time    0.0134
    EDDIAG:  cpu time    2.1262: real time    2.1592
  RMM-DIIS:  cpu time   11.5232: real time   11.6274
    ORTHCH:  cpu time    0.2508: real time    0.2517
       DOS:  cpu time    0.0009: real time    0.0009
    CHARGE:  cpu time    0.4579: real time    0.4676
    MIXING:  cpu time    0.0072: real time    0.0106
    --------------------------------------------
      LOOP:  cpu time   14.7778: real time   14.9391

 eigenvalue-minimisations  :  4008
 total energy-change (2. order) :-0.2785672E+02  (-0.5283575E+02)
 number of electron     292.9999976 magnetization       0.7198799
 augmentation part       17.3564576 magnetization       0.9578320

 Broyden mixing:
  rms(total) = 0.84386E+01    rms(broyden)= 0.84383E+01
  rms(prec ) = 0.93199E+01
  weight for this iteration     100.00

 eigenvalues of (default mixing * dielectric matrix)
  average eigenvalue GAMMA=   0.2145
  0.2145

 Free energy of the ion-electron system (eV)
  ---------------------------------------------------
  alpha Z        PSCENC =       157.21068235
  Ewald energy   TEWEN  =     30443.73878196
  -Hartree energ DENC   =    -39898.82905386
  -exchange      EXHF   =         0.00000000
  -V(xc)+E(xc)   XCENC  =       996.74188727
  PAW double counting   =     15331.61409635   -15420.25377418
  entropy T*S    EENTRO =        -0.04895964
  eigenvalues    EBANDS =     -4407.85202247
  atomic energy  EATOM  =     12065.27733323
  Solvation  Ediel_sol  =         0.00000000
  ---------------------------------------------------
  free energy    TOTEN  =      -732.40102900 eV

  energy without entropy =     -732.35206936  energy(sigma->0) =     -732.37654918


--------------------------------------------------------------------------------------------------------




--------------------------------------- Iteration      1(   7)  ---------------------------------------


    POTLOK:  cpu time    0.3893: real time    0.3950
    SETDIJ:  cpu time    0.0123: real time    0.0124
    EDDIAG:  cpu time    2.0627: real time    2.0819
  RMM-DIIS:  cpu time    9.0005: real time    9.0729
    ORTHCH:  cpu time    0.5998: real time    0.6012
       DOS:  cpu time    0.0009: real time    0.0009
    CHARGE:  cpu time    0.4504: real time    0.4625
    MIXING:  cpu time    0.0070: real time    0.0086
    --------------------------------------------
      LOOP:  cpu time   12.5230: real time   12.6355

 eigenvalue-minimisations  :  3090
 total energy-change (2. order) : 0.6993663E+02  (-0.5648806E+01)
 number of electron     292.9999976 magnetization       0.6173189
 augmentation part       15.2588223 magnetization       0.6236567

 Broyden mixing:
  rms(total) = 0.32187E+01    rms(broyden)= 0.32183E+01
  rms(prec ) = 0.38629E+01
  weight for this iteration     100.00

 eigenvalues of (default mixing * dielectric matrix)
  average eigenvalue GAMMA=   0.4647
  0.5095  0.4200

 Free energy of the ion-electron system (eV)
  ---------------------------------------------------
  alpha Z        PSCENC =       157.21068235
  Ewald energy   TEWEN  =     30443.73878196
  -Hartree energ DENC   =    -40020.32833308
  -exchange      EXHF   =         0.00000000
  -V(xc)+E(xc)   XCENC  =      1001.32555622
  PAW double counting   =     16951.38896474   -17046.81827424
  entropy T*S    EENTRO =        -0.00013415
  eigenvalues    EBANDS =     -4214.25897668
  atomic energy  EATOM  =     12065.27733323
  Solvation  Ediel_sol  =         0.00000000
  ---------------------------------------------------
  free energy    TOTEN  =      -662.46439964 eV

  energy without entropy =     -662.46426550  energy(sigma->0) =     -662.46433257


--------------------------------------------------------------------------------------------------------




--------------------------------------- Iteration      1(   8)  ---------------------------------------


    POTLOK:  cpu time    0.4179: real time    0.4275
    SETDIJ:  cpu time    0.0124: real time    0.0125
    EDDIAG:  cpu time    2.0886: real time    2.1138
  RMM-DIIS:  cpu time    8.8375: real time    8.9056
    ORTHCH:  cpu time    0.3467: real time    0.3480
       DOS:  cpu time    0.0010: real time    0.0010
    CHARGE:  cpu time    0.4580: real time    0.4672
    MIXING:  cpu time    0.0090: real time    0.0097
    --------------------------------------------
      LOOP:  cpu time   12.1711: real time   12.2852

 eigenvalue-minimisations  :  3106
 total energy-change (2. order) :-0.8700407E-01  (-0.2142371E+01)
 number of electron     292.9999980 magnetization       0.3455584
 augmentation part       11.2287621 magnetization       0.3064019

 Broyden mixing:
  rms(total) = 0.28496E+01    rms(broyden)= 0.28487E+01
  rms(prec ) = 0.34877E+01
  weight for this iteration     100.00

 eigenvalues of (default mixing * dielectric matrix)
  average eigenvalue GAMMA=   0.8508
  1.8760  0.3382  0.3382

 Free energy of the ion-electron system (eV)
  ---------------------------------------------------
  alpha Z        PSCENC =       157.21068235
  Ewald energy   TEWEN  =     30443.73878196
  -Hartree energ DENC   =    -40201.83130952
  -exchange      EXHF   =         0.00000000
  -V(xc)+E(xc)   XCENC  =      1008.05983543
  PAW double counting   =     19957.41661384   -20056.86382444
  entropy T*S    EENTRO =        -0.03086409
  eigenvalues    EBANDS =     -4035.52865249
  atomic energy  EATOM  =     12065.27733323
  Solvation  Ediel_sol  =         0.00000000
  ---------------------------------------------------
  free energy    TOTEN  =      -662.55140372 eV

  energy without entropy =     -662.52053963  energy(sigma->0) =     -662.53597167


--------------------------------------------------------------------------------------------------------




--------------------------------------- Iteration      1(   9)  ---------------------------------------


    POTLOK:  cpu time    0.3863: real time    0.3905
    SETDIJ:  cpu time    0.0168: real time    0.0169
    EDDIAG:  cpu time    2.1034: real time    2.1217
  RMM-DIIS:  cpu time    8.3776: real time    8.4380
    ORTHCH:  cpu time    0.2063: real time    0.2071
       DOS:  cpu time    0.0009: real time    0.0009
    CHARGE:  cpu time    0.4959: real time    0.5043
    MIXING:  cpu time    0.0085: real time    0.0086
    --------------------------------------------
      LOOP:  cpu time   11.5958: real time   11.6880

 eigenvalue-minimisations  :  2966
 total energy-change (2. order) : 0.1518247E+02  (-0.1999038E+01)
 number of electron     292.9999980 magnetization       0.2567771
 augmentation part       12.1622169 magnetization       0.2771220

 Broyden mixing:
  rms(total) = 0.11827E+01    rms(broyden)= 0.11821E+01
  rms(prec ) = 0.13375E+01
  weight for this iteration     100.00

 eigenvalues of (default mixing * dielectric matrix)
  average eigenvalue GAMMA=   0.9140
  2.2342  0.7210  0.3504  0.3504

 Free energy of the ion-electron system (eV)
  ---------------------------------------------------
  alpha Z        PSCENC =       157.21068235
  Ewald energy   TEWEN  =     30443.73878196
  -Hartree energ DENC   =    -40510.25980875
  -exchange      EXHF   =         0.00000000
  -V(xc)+E(xc)   XCENC  =      1020.98520508
  PAW double counting   =     28487.16800790   -28589.40111525
  entropy T*S    EENTRO =        -0.00292751
  eigenvalues    EBANDS =     -3722.08509231
  atomic energy  EATOM  =     12065.27733323
  Solvation  Ediel_sol  =         0.00000000
  ---------------------------------------------------
  free energy    TOTEN  =      -647.36893329 eV

  energy without entropy =     -647.36600578  energy(sigma->0) =     -647.36746954


--------------------------------------------------------------------------------------------------------




--------------------------------------- Iteration      1(  10)  ---------------------------------------


    POTLOK:  cpu time    0.4069: real time    0.4111
    SETDIJ:  cpu time    0.0125: real time    0.0126
    EDDIAG:  cpu time    2.0635: real time    2.0814
  RMM-DIIS:  cpu time    8.5130: real time    8.5817
    ORTHCH:  cpu time    0.2380: real time    0.2390
       DOS:  cpu time    0.0009: real time    0.0009
    CHARGE:  cpu time    0.4597: real time    0.4676
    MIXING:  cpu time    0.0077: real time    0.0077
    --------------------------------------------
      LOOP:  cpu time   11.7022: real time   11.8021

 eigenvalue-minimisations  :  2994
 total energy-change (2. order) :-0.4358568E+00  (-0.3171179E+00)
 number of electron     292.9999978 magnetization       0.2022373
 augmentation part       13.7679988 magnetization       0.2244171

 Broyden mixing:
  rms(total) = 0.14503E+01    rms(broyden)= 0.14484E+01
  rms(prec ) = 0.18016E+01
  weight for this iteration     100.00

 eigenvalues of (default mixing * dielectric matrix)
  average eigenvalue GAMMA=   0.9267
  2.3502  1.1150  0.3468  0.3468  0.4746

 Free energy of the ion-electron system (eV)
  ---------------------------------------------------
  alpha Z        PSCENC =       157.21068235
  Ewald energy   TEWEN  =     30443.73878196
  -Hartree energ DENC   =    -40553.24986974
  -exchange      EXHF   =         0.00000000
  -V(xc)+E(xc)   XCENC  =      1021.90280789
  PAW double counting   =     30036.16962367   -30137.25582433
  entropy T*S    EENTRO =        -0.00504992
  eigenvalues    EBANDS =     -3681.59327523
  atomic energy  EATOM  =     12065.27733323
  Solvation  Ediel_sol  =         0.00000000
  ---------------------------------------------------
  free energy    TOTEN  =      -647.80479011 eV

  energy without entropy =     -647.79974019  energy(sigma->0) =     -647.80226515


--------------------------------------------------------------------------------------------------------




--------------------------------------- Iteration      1(  11)  ---------------------------------------


    POTLOK:  cpu time    0.3994: real time    0.4045
    SETDIJ:  cpu time    0.0123: real time    0.0127
    EDDIAG:  cpu time    2.0291: real time    2.0466
  RMM-DIIS:  cpu time    8.9027: real time    8.9809
    ORTHCH:  cpu time    0.1705: real time    0.1712
       DOS:  cpu time    0.0009: real time    0.0009
    CHARGE:  cpu time    0.4524: real time    0.4619
    MIXING:  cpu time    0.0089: real time    0.0090
    --------------------------------------------
      LOOP:  cpu time   11.9763: real time   12.0879

 eigenvalue-minimisations  :  3116
 total energy-change (2. order) : 0.1101312E+01  (-0.3985669E-01)
 number of electron     292.9999979 magnetization       0.1429953
 augmentation part       12.5368466 magnetization       0.1226782

 Broyden mixing:
  rms(total) = 0.78113E+00    rms(broyden)= 0.77847E+00
  rms(prec ) = 0.83013E+00
  weight for this iteration     100.00

 eigenvalues of (default mixing * dielectric matrix)
  average eigenvalue GAMMA=   0.9586
  2.1437  1.9329  0.6254  0.3449  0.3449  0.3597

 Free energy of the ion-electron system (eV)
  ---------------------------------------------------
  alpha Z        PSCENC =       157.21068235
  Ewald energy   TEWEN  =     30443.73878196
  -Hartree energ DENC   =    -40586.51286572
  -exchange      EXHF   =         0.00000000
  -V(xc)+E(xc)   XCENC  =      1022.31123823
  PAW double counting   =     30718.87841164   -30819.24708413
  entropy T*S    EENTRO =        -0.02557260
  eigenvalues    EBANDS =     -3648.33440314
  atomic energy  EATOM  =     12065.27733323
  Solvation  Ediel_sol  =         0.00000000
  ---------------------------------------------------
  free energy    TOTEN  =      -646.70347818 eV

  energy without entropy =     -646.67790558  energy(sigma->0) =     -646.69069188


--------------------------------------------------------------------------------------------------------




--------------------------------------- Iteration      1(  12)  ---------------------------------------


    POTLOK:  cpu time    0.4052: real time    0.4093
    SETDIJ:  cpu time    0.0127: real time    0.0128
    EDDIAG:  cpu time    2.0532: real time    2.0688
  RMM-DIIS:  cpu time    8.3145: real time    8.3825
    ORTHCH:  cpu time    0.1533: real time    0.1538
       DOS:  cpu time    0.0010: real time    0.0010
    CHARGE:  cpu time    0.4505: real time    0.4582
    MIXING:  cpu time    0.0094: real time    0.0094
    --------------------------------------------
      LOOP:  cpu time   11.3997: real time   11.4958

 eigenvalue-minimisations  :  2944
 total energy-change (2. order) : 0.1132019E+00  (-0.1516282E-01)
 number of electron     292.9999979 magnetization       0.1669581
 augmentation part       12.9641468 magnetization      -0.1801302

 Broyden mixing:
  rms(total) = 0.67392E+00    rms(broyden)= 0.67260E+00
  rms(prec ) = 0.71191E+00
  weight for this iteration     100.00

 eigenvalues of (default mixing * dielectric matrix)
  average eigenvalue GAMMA=   0.8571
  2.1079  2.1079  0.5211  0.3471  0.3471  0.3774  0.1914

 Free energy of the ion-electron system (eV)
  ---------------------------------------------------
  alpha Z        PSCENC =       157.21068235
  Ewald energy   TEWEN  =     30443.73878196
  -Hartree energ DENC   =    -40610.09104315
  -exchange      EXHF   =         0.00000000
  -V(xc)+E(xc)   XCENC  =      1021.87308967
  PAW double counting   =     31114.63799440   -31213.60067181
  entropy T*S    EENTRO =        -0.06282568
  eigenvalues    EBANDS =     -3625.57361730
  atomic energy  EATOM  =     12065.27733323
  Solvation  Ediel_sol  =         0.00000000
  ---------------------------------------------------
  free energy    TOTEN  =      -646.59027632 eV

  energy without entropy =     -646.52745065  energy(sigma->0) =     -646.55886349


--------------------------------------------------------------------------------------------------------




--------------------------------------- Iteration      1(  13)  ---------------------------------------


    POTLOK:  cpu time    0.4019: real time    0.4056
    SETDIJ:  cpu time    0.0124: real time    0.0125
    EDDIAG:  cpu time    2.0521: real time    2.0682
  RMM-DIIS:  cpu time    8.4603: real time    8.5211
    ORTHCH:  cpu time    0.1952: real time    0.1959
       DOS:  cpu time    0.0010: real time    0.0010
    CHARGE:  cpu time    0.4858: real time    0.4940
    MIXING:  cpu time    0.0097: real time    0.0099
    --------------------------------------------
      LOOP:  cpu time   11.6184: real time   11.7082

 eigenvalue-minimisations  :  2972
 total energy-change (2. order) :-0.1142990E+00  (-0.3203373E-02)
 number of electron     292.9999979 magnetization       0.0461051
 augmentation part       12.9918257 magnetization      -0.4059326

 Broyden mixing:
  rms(total) = 0.73311E+00    rms(broyden)= 0.73287E+00
  rms(prec ) = 0.77357E+00
  weight for this iteration     100.00

 eigenvalues of (default mixing * dielectric matrix)
  average eigenvalue GAMMA=   0.8812
  2.1764  2.1764  0.4530  0.3456  0.3456  0.6763  0.5570  0.3195

 Free energy of the ion-electron system (eV)
  ---------------------------------------------------
  alpha Z        PSCENC =       157.21068235
  Ewald energy   TEWEN  =     30443.73878196
  -Hartree energ DENC   =    -40613.37538720
  -exchange      EXHF   =         0.00000000
  -V(xc)+E(xc)   XCENC  =      1021.90166042
  PAW double counting   =     31127.57482341   -31226.41603592
  entropy T*S    EENTRO =        -0.03852320
  eigenvalues    EBANDS =     -3622.57791041
  atomic energy  EATOM  =     12065.27733323
  Solvation  Ediel_sol  =         0.00000000
  ---------------------------------------------------
  free energy    TOTEN  =      -646.70457536 eV

  energy without entropy =     -646.66605216  energy(sigma->0) =     -646.68531376


--------------------------------------------------------------------------------------------------------




--------------------------------------- Iteration      1(  14)  ---------------------------------------


    POTLOK:  cpu time    0.4040: real time    0.4074
    SETDIJ:  cpu time    0.0128: real time    0.0129
    EDDIAG:  cpu time    2.0520: real time    2.0687
  RMM-DIIS:  cpu time    8.4868: real time    8.5574
    ORTHCH:  cpu time    0.2829: real time    0.2881
       DOS:  cpu time    0.0010: real time    0.0010
    CHARGE:  cpu time    0.4691: real time    0.4770
    MIXING:  cpu time    0.0095: real time    0.0095
    --------------------------------------------
      LOOP:  cpu time   11.7181: real time   11.8221

 eigenvalue-minimisations  :  2969
 total energy-change (2. order) : 0.2736615E+00  (-0.4165984E-02)
 number of electron     292.9999979 magnetization      -0.0401151
 augmentation part       13.0138126 magnetization      -0.2947838

 Broyden mixing:
  rms(total) = 0.62967E+00    rms(broyden)= 0.62939E+00
  rms(prec ) = 0.68279E+00
  weight for this iteration     100.00

 eigenvalues of (default mixing * dielectric matrix)
  average eigenvalue GAMMA=   0.7958
  2.1882  2.1882  0.6860  0.5453  0.3454  0.3454  0.3209  0.2713  0.2713

 Free energy of the ion-electron system (eV)
  ---------------------------------------------------
  alpha Z        PSCENC =       157.21068235
  Ewald energy   TEWEN  =     30443.73878196
  -Hartree energ DENC   =    -40616.30410775
  -exchange      EXHF   =         0.00000000
  -V(xc)+E(xc)   XCENC  =      1021.92476645
  PAW double counting   =     31230.02140901   -31328.72888430
  entropy T*S    EENTRO =        -0.08058777
  eigenvalues    EBANDS =     -3619.49030707
  atomic energy  EATOM  =     12065.27733323
  Solvation  Ediel_sol  =         0.00000000
  ---------------------------------------------------
  free energy    TOTEN  =      -646.43091388 eV

  energy without entropy =     -646.35032610  energy(sigma->0) =     -646.39061999


--------------------------------------------------------------------------------------------------------




--------------------------------------- Iteration      1(  15)  ---------------------------------------


    POTLOK:  cpu time    0.3855: real time    0.3892
    SETDIJ:  cpu time    0.0123: real time    0.0123
    EDDIAG:  cpu time    1.9774: real time    1.9930
  RMM-DIIS:  cpu time    8.3534: real time    8.4152
    ORTHCH:  cpu time    0.1574: real time    0.1578
       DOS:  cpu time    0.0010: real time    0.0010
    CHARGE:  cpu time    0.4795: real time    0.4871
    MIXING:  cpu time    0.0101: real time    0.0102
    --------------------------------------------
      LOOP:  cpu time   11.3765: real time   11.4658

 eigenvalue-minimisations  :  2981
 total energy-change (2. order) :-0.7800447E-01  (-0.1935748E-02)
 number of electron     292.9999979 magnetization       0.0301230
 augmentation part       12.9932575 magnetization       0.3696400

 Broyden mixing:
  rms(total) = 0.67811E+00    rms(broyden)= 0.67525E+00
  rms(prec ) = 0.71866E+00
  weight for this iteration     100.00

 eigenvalues of (default mixing * dielectric matrix)
  average eigenvalue GAMMA=   0.8337
  2.2130  2.2130  0.5249  0.7444  0.7444  0.3451  0.3451  0.4389  0.4389  0.3294

 Free energy of the ion-electron system (eV)
  ---------------------------------------------------
  alpha Z        PSCENC =       157.21068235
  Ewald energy   TEWEN  =     30443.73878196
  -Hartree energ DENC   =    -40621.57751874
  -exchange      EXHF   =         0.00000000
  -V(xc)+E(xc)   XCENC  =      1022.02558931
  PAW double counting   =     31221.68237274   -31320.44572948
  entropy T*S    EENTRO =        -0.06382678
  eigenvalues    EBANDS =     -3614.35660294
  atomic energy  EATOM  =     12065.27733323
  Solvation  Ediel_sol  =         0.00000000
  ---------------------------------------------------
  free energy    TOTEN  =      -646.50891835 eV

  energy without entropy =     -646.44509157  energy(sigma->0) =     -646.47700496


--------------------------------------------------------------------------------------------------------




--------------------------------------- Iteration      1(  16)  ---------------------------------------


    POTLOK:  cpu time    0.4022: real time    0.4057
    SETDIJ:  cpu time    0.0125: real time    0.0126
    EDDIAG:  cpu time    1.9862: real time    2.0039
  RMM-DIIS:  cpu time    8.4096: real time    8.4801
    ORTHCH:  cpu time    0.2171: real time    0.2179
       DOS:  cpu time    0.0011: real time    0.0012
    CHARGE:  cpu time    0.4554: real time    0.4622
    MIXING:  cpu time    0.0099: real time    0.0105
    --------------------------------------------
      LOOP:  cpu time   11.4941: real time   11.5940

 eigenvalue-minimisations  :  2956
 total energy-change (2. order) : 0.5846961E-02  (-0.4448620E-02)
 number of electron     292.9999979 magnetization       0.0738151
 augmentation part       12.9232969 magnetization       0.4257877

 Broyden mixing:
  rms(total) = 0.62493E+00    rms(broyden)= 0.62479E+00
  rms(prec ) = 0.65110E+00
  weight for this iteration     100.00

 eigenvalues of (default mixing * dielectric matrix)
  average eigenvalue GAMMA=   0.8152
  2.2121  2.2121  0.4943  0.8463  0.8463  0.4911  0.3447  0.3447  0.3255  0.4247
  0.4247

 Free energy of the ion-electron system (eV)
  ---------------------------------------------------
  alpha Z        PSCENC =       157.21068235
  Ewald energy   TEWEN  =     30443.73878196
  -Hartree energ DENC   =    -40637.93573746
  -exchange      EXHF   =         0.00000000
  -V(xc)+E(xc)   XCENC  =      1022.23896565
  PAW double counting   =     31199.26549278   -31297.99104881
  entropy T*S    EENTRO =        -0.06607597
  eigenvalues    EBANDS =     -3598.24146511
  atomic energy  EATOM  =     12065.27733323
  Solvation  Ediel_sol  =         0.00000000
  ---------------------------------------------------
  free energy    TOTEN  =      -646.50307139 eV

  energy without entropy =     -646.43699542  energy(sigma->0) =     -646.47003340


--------------------------------------------------------------------------------------------------------




--------------------------------------- Iteration      1(  17)  ---------------------------------------


    POTLOK:  cpu time    0.4032: real time    0.4069
    SETDIJ:  cpu time    0.0123: real time    0.0123
    EDDIAG:  cpu time    2.0279: real time    2.0447
  RMM-DIIS:  cpu time    8.4002: real time    8.4649
    ORTHCH:  cpu time    0.1511: real time    0.1517
       DOS:  cpu time    0.0022: real time    0.0023
    CHARGE:  cpu time    0.4541: real time    0.4614
    MIXING:  cpu time    0.0097: real time    0.0098
    --------------------------------------------
      LOOP:  cpu time   11.4606: real time   11.5539

 eigenvalue-minimisations  :  2990
 total energy-change (2. order) : 0.6015542E-01  (-0.3472740E-02)
 number of electron     292.9999979 magnetization       0.0628232
 augmentation part       12.6465383 magnetization       0.1612987

 Broyden mixing:
  rms(total) = 0.34222E+00    rms(broyden)= 0.34097E+00
  rms(prec ) = 0.36743E+00
  weight for this iteration     100.00

 eigenvalues of (default mixing * dielectric matrix)
  average eigenvalue GAMMA=   0.8047
  2.2124  2.2124  0.4857  0.8561  0.8561  0.5176  0.5176  0.3448  0.3448  0.4887
  0.4887  0.3313

 Free energy of the ion-electron system (eV)
  ---------------------------------------------------
  alpha Z        PSCENC =       157.21068235
  Ewald energy   TEWEN  =     30443.73878196
  -Hartree energ DENC   =    -40660.99812924
  -exchange      EXHF   =         0.00000000
  -V(xc)+E(xc)   XCENC  =      1022.52185097
  PAW double counting   =     31140.61730126   -31239.28555201
  entropy T*S    EENTRO =        -0.06823098
  eigenvalues    EBANDS =     -3575.45695349
  atomic energy  EATOM  =     12065.27733323
  Solvation  Ediel_sol  =         0.00000000
  ---------------------------------------------------
  free energy    TOTEN  =      -646.44291596 eV

  energy without entropy =     -646.37468498  energy(sigma->0) =     -646.40880047


--------------------------------------------------------------------------------------------------------




--------------------------------------- Iteration      1(  18)  ---------------------------------------


    POTLOK:  cpu time    0.4397: real time    0.4445
    SETDIJ:  cpu time    0.0123: real time    0.0124
    EDDIAG:  cpu time    1.9853: real time    2.0002
  RMM-DIIS:  cpu time    8.4201: real time    8.4886
    ORTHCH:  cpu time    0.3007: real time    0.3130
       DOS:  cpu time    0.0010: real time    0.0010
    CHARGE:  cpu time    0.4516: real time    0.4585
    MIXING:  cpu time    0.0088: real time    0.0089
    --------------------------------------------
      LOOP:  cpu time   11.6196: real time   11.7271

 eigenvalue-minimisations  :  2983
 total energy-change (2. order) :-0.6490101E-01  (-0.2198890E-02)
 number of electron     292.9999979 magnetization       0.0644970
 augmentation part       12.9286075 magnetization      -0.0866261

 Broyden mixing:
  rms(total) = 0.34127E+00    rms(broyden)= 0.33968E+00
  rms(prec ) = 0.39022E+00
  weight for this iteration     100.00

 eigenvalues of (default mixing * dielectric matrix)
  average eigenvalue GAMMA=   0.7892
  2.2004  2.2004  0.9302  0.9302  0.5332  0.5332  0.3449  0.3449  0.5254  0.5254
  0.3308  0.4942  0.3671

 Free energy of the ion-electron system (eV)
  ---------------------------------------------------
  alpha Z        PSCENC =       157.21068235
  Ewald energy   TEWEN  =     30443.73878196
  -Hartree energ DENC   =    -40681.30944854
  -exchange      EXHF   =         0.00000000
  -V(xc)+E(xc)   XCENC  =      1022.68373490
  PAW double counting   =     31086.26276834   -31184.83682074
  entropy T*S    EENTRO =        -0.08316668
  eigenvalues    EBANDS =     -3555.45168179
  atomic energy  EATOM  =     12065.27733323
  Solvation  Ediel_sol  =         0.00000000
  ---------------------------------------------------
  free energy    TOTEN  =      -646.50781698 eV

  energy without entropy =     -646.42465029  energy(sigma->0) =     -646.46623363


--------------------------------------------------------------------------------------------------------




--------------------------------------- Iteration      1(  19)  ---------------------------------------


    POTLOK:  cpu time    0.4224: real time    0.4271
    SETDIJ:  cpu time    0.0121: real time    0.0121
    EDDIAG:  cpu time    2.0487: real time    2.0701
  RMM-DIIS:  cpu time    8.4829: real time    8.5520
    ORTHCH:  cpu time    0.4903: real time    0.6319
       DOS:  cpu time    0.0012: real time    0.0012
    CHARGE:  cpu time    0.4539: real time    0.4610
    MIXING:  cpu time    0.0091: real time    0.0092
    --------------------------------------------
      LOOP:  cpu time   11.9208: real time   12.1646

 eigenvalue-minimisations  :  2982
 total energy-change (2. order) :-0.1885923E-01  (-0.9998565E-03)
 number of electron     292.9999979 magnetization       0.0516607
 augmentation part       12.7878861 magnetization      -0.2116593

 Broyden mixing:
  rms(total) = 0.37181E+00    rms(broyden)= 0.37142E+00
  rms(prec ) = 0.37631E+00
  weight for this iteration     100.00

 eigenvalues of (default mixing * dielectric matrix)
  average eigenvalue GAMMA=   0.8783
  2.2385  2.2385  1.3522  1.4399  0.4823  0.7532  0.5648  0.5648  0.3450  0.3450
  0.5879  0.5879  0.4638  0.3317

 Free energy of the ion-electron system (eV)
  ---------------------------------------------------
  alpha Z        PSCENC =       157.21068235
  Ewald energy   TEWEN  =     30443.73878196
  -Hartree energ DENC   =    -40685.65332452
  -exchange      EXHF   =         0.00000000
  -V(xc)+E(xc)   XCENC  =      1022.70740593
  PAW double counting   =     31083.11396828   -31181.62903342
  entropy T*S    EENTRO =        -0.06037605
  eigenvalues    EBANDS =     -3551.23211397
  atomic energy  EATOM  =     12065.27733323
  Solvation  Ediel_sol  =         0.00000000
  ---------------------------------------------------
  free energy    TOTEN  =      -646.52667621 eV

  energy without entropy =     -646.46630016  energy(sigma->0) =     -646.49648818


--------------------------------------------------------------------------------------------------------




--------------------------------------- Iteration      1(  20)  ---------------------------------------


    POTLOK:  cpu time    0.4500: real time    0.4554
    SETDIJ:  cpu time    0.0110: real time    0.0111
    EDDIAG:  cpu time    2.1114: real time    2.1291
  RMM-DIIS:  cpu time    8.3970: real time    8.4597
    ORTHCH:  cpu time    0.2179: real time    0.2189
       DOS:  cpu time    0.0011: real time    0.0011
    CHARGE:  cpu time    0.4558: real time    0.4620
    MIXING:  cpu time    0.0104: real time    0.0105
    --------------------------------------------
      LOOP:  cpu time   11.6546: real time   11.7478

 eigenvalue-minimisations  :  2954
 total energy-change (2. order) : 0.4565622E-01  (-0.5972298E-03)
 number of electron     292.9999979 magnetization       0.0560169
 augmentation part       12.7498286 magnetization      -0.2044517

 Broyden mixing:
  rms(total) = 0.38358E+00    rms(broyden)= 0.38355E+00
  rms(prec ) = 0.38673E+00
  weight for this iteration     100.00

 eigenvalues of (default mixing * dielectric matrix)
  average eigenvalue GAMMA=   0.8474
  2.2405  2.2405  1.6017  1.4238  0.4825  0.7623  0.5734  0.5734  0.3450  0.3450
  0.5785  0.5785  0.4708  0.3314  0.1634

 Free energy of the ion-electron system (eV)
  ---------------------------------------------------
  alpha Z        PSCENC =       157.21068235
  Ewald energy   TEWEN  =     30443.73878196
  -Hartree energ DENC   =    -40686.63948228
  -exchange      EXHF   =         0.00000000
  -V(xc)+E(xc)   XCENC  =      1022.72011318
  PAW double counting   =     31088.28269660   -31186.75282134
  entropy T*S    EENTRO =        -0.06461298
  eigenvalues    EBANDS =     -3550.25371071
[...]
  Hartree 40002.90481 39958.61161-39200.50591    -0.01396     0.66857     0.61203
  E(xc)   -1110.23095 -1109.90358 -1149.45423    -0.00013     0.00067    -0.00036
  Local  -83752.61893-83700.20003 86054.04576     0.04814    -1.61288    -1.47738
  n-local  -288.37449  -284.52410  -273.19295     0.00076     0.02401     0.03135
  augment    64.63846    64.37211    67.85749    -0.00033     0.01165    -0.00361
  Kinetic  4375.14269  4366.83684  4991.75764     0.00685    -0.01544    -0.08040
  Fock        0.00000     0.00000     0.00000     0.00000     0.00000     0.00000
  vdW        -1.55566    -1.70142    -0.04117    -0.00001    -0.00059     0.00148
  -------------------------------------------------------------------------------------
  Total      -5.79195    -3.42250    -3.54597     0.00459     0.00157    -0.00413
  in kB      -3.26349    -1.92842    -1.99799     0.00258     0.00088    -0.00233
  external pressure =       -2.40 kB  Pullay stress =        0.00 kB


 VOLUME and BASIS-vectors are now :
 -----------------------------------------------------------------------------
  energy-cutoff  :      440.00
  volume of cell :     2843.49
      direct lattice vectors                 reciprocal lattice vectors
    14.860536817  0.000011824  0.000000000     0.067292289  0.039196149  0.000000000
    -7.430268409 12.756349395  0.000000000    -0.000000062  0.078392297  0.000000000
     0.000000000  0.000000000 15.000000000     0.000000000  0.000000000  0.066666667

  length of vectors
    14.860536817 14.762565445 15.000000000     0.077875479  0.078392297  0.066666667


 FORCES acting on ions
    electron-ion (+dipol)            ewald-force                    non-local-force                 convergence-correction
 -----------------------------------------------------------------------------------------------
   0.123E+01 -.602E+00 0.800E+01   -.131E+01 0.541E+00 -.803E+01   0.800E-01 0.424E-01 0.307E-01   -.107E-04 0.151E-03 0.155E-03
   -.196E+01 0.119E+01 0.778E+01   0.213E+01 -.121E+01 -.781E+01   -.161E+00 0.332E-01 0.297E-01   -.394E-03 -.275E-03 0.913E-04
   0.595E+00 -.656E+00 0.727E+01   -.611E+00 0.815E+00 -.729E+01   0.124E-01 -.174E+00 0.244E-01   -.240E-03 0.133E-02 -.357E-04
   -.129E+01 0.697E+00 0.748E+01   0.138E+01 -.564E+00 -.749E+01   -.802E-01 -.113E+00 0.827E-02   0.518E-03 0.217E-02 0.177E-03
   -.585E+00 -.646E+00 0.660E+01   0.601E+00 0.805E+00 -.662E+01   -.126E-01 -.174E+00 0.194E-01   0.265E-03 0.136E-02 -.321E-03
   0.129E+01 0.685E+00 0.695E+01   -.137E+01 -.552E+00 -.696E+01   0.795E-01 -.113E+00 0.347E-02   -.596E-03 0.219E-02 -.109E-03
   -.123E+01 -.619E+00 0.776E+01   0.131E+01 0.559E+00 -.779E+01   -.800E-01 0.423E-01 0.275E-01   -.125E-04 0.153E-03 0.106E-03
   0.196E+01 0.118E+01 0.799E+01   -.213E+01 -.119E+01 -.802E+01   0.162E+00 0.332E-01 0.325E-01   0.329E-03 -.237E-03 0.697E-04
   -.142E+01 0.300E+00 0.740E+01   0.143E+01 -.505E+00 -.741E+01   -.377E-02 0.194E+00 0.781E-02   0.632E-03 -.265E-02 0.293E-03
   0.725E+00 0.187E+01 0.730E+01   -.834E+00 -.213E+01 -.732E+01   0.991E-01 0.265E+00 0.251E-01   0.382E-03 -.894E-03 -.650E-04
   0.141E+01 0.312E+00 0.690E+01   -.142E+01 -.517E+00 -.690E+01   0.281E-02 0.194E+00 0.330E-02   -.698E-03 -.267E-02 0.133E-04
   -.721E+00 0.186E+01 0.662E+01   0.830E+00 -.213E+01 -.665E+01   -.993E-01 0.264E+00 0.199E-01   -.330E-03 -.899E-03 -.381E-03
   -.389E-01 0.522E+01 0.696E+01   0.141E+00 -.548E+01 -.697E+01   -.964E-01 0.270E+00 0.446E-02   -.282E-03 -.165E-03 -.363E-03
   0.441E+00 0.644E+01 0.674E+01   0.193E+00 -.683E+01 -.676E+01   -.589E+00 0.412E+00 0.227E-01   -.651E-03 0.113E-04 -.207E-03
   0.114E+01 0.519E+01 0.854E+01   -.104E+01 -.513E+01 -.856E+01   -.104E+00 -.791E-01 0.175E-01   0.351E-02 0.318E-02 0.633E-03
   -.296E+01 0.756E+01 0.952E+01   0.355E+01 -.744E+01 -.963E+01   -.607E+00 -.141E+00 0.100E+00   0.488E-02 0.348E-02 0.868E-03
   -.128E-01 0.537E+01 0.763E+01   0.129E-01 -.501E+01 -.767E+01   -.214E-03 -.343E+00 0.421E-01   0.291E-04 0.413E-02 -.398E-04
   -.859E-01 0.893E+01 0.660E+01   0.907E-01 -.840E+01 -.622E+01   -.471E-02 -.572E+00 -.390E+00   -.686E-04 0.722E-02 -.305E-03
   -.113E+01 0.514E+01 0.826E+01   0.104E+01 -.507E+01 -.828E+01   0.103E+00 -.795E-01 0.144E-01   -.348E-02 0.314E-02 0.329E-03
   0.303E+01 0.752E+01 0.935E+01   -.363E+01 -.740E+01 -.945E+01   0.609E+00 -.142E+00 0.959E-01   -.487E-02 0.363E-02 0.609E-03
   0.516E-01 0.522E+01 0.783E+01   -.154E+00 -.548E+01 -.783E+01   0.965E-01 0.270E+00 0.537E-02   0.276E-03 -.655E-04 -.117E-05
   -.405E+00 0.641E+01 0.814E+01   -.230E+00 -.680E+01 -.817E+01   0.591E+00 0.411E+00 0.309E-01   0.707E-03 -.631E-04 0.307E-03
   0.346E-04 0.581E+01 0.619E+01   -.254E-03 -.638E+01 -.618E+01   0.288E-03 0.574E+00 -.142E-01   -.154E-04 -.102E-02 -.356E-03
   -.754E-02 0.111E+02 0.637E+01   0.627E-02 -.119E+02 -.640E+01   0.112E-02 0.856E+00 0.232E-01   0.170E-04 -.185E-02 -.346E-03
   -.543E+01 0.116E+02 0.548E+01   0.583E+01 -.131E+02 -.548E+01   -.400E+00 0.144E+01 -.948E-02   0.229E-02 -.170E-05 -.411E-03
   -.206E+02 0.176E+02 0.534E+01   0.261E+02 -.207E+02 -.532E+01   -.548E+01 0.311E+01 -.241E-01   0.964E-03 -.158E-02 -.504E-04
   0.598E+00 0.119E+02 0.698E+01   -.143E+00 -.121E+02 -.695E+01   -.453E+00 0.220E+00 -.154E-01   0.543E-02 0.300E-02 0.134E-02
   0.760E+01 0.612E+01 0.500E+01   -.684E+01 -.634E+01 -.510E+01   -.766E+00 0.227E+00 0.108E+00   0.382E-02 0.393E-03 0.254E-02
   -.388E+00 0.185E+02 0.121E+02   0.720E+00 -.177E+02 -.124E+02   -.359E+00 -.808E+00 0.228E+00   0.485E-02 0.418E-02 -.304E-03
   -.638E+01 0.360E+02 0.278E+02   0.124E+02 -.327E+02 -.269E+02   -.606E+01 -.334E+01 -.826E+00   0.105E-01 0.744E-02 0.151E-02
   0.325E+00 0.184E+02 0.112E+02   -.655E+00 -.176E+02 -.115E+02   0.355E+00 -.824E+00 0.221E+00   -.481E-02 0.436E-02 -.693E-03
   0.627E+01 0.356E+02 0.256E+02   -.123E+02 -.323E+02 -.247E+02   0.605E+01 -.336E+01 -.878E+00   -.105E-01 0.745E-02 0.772E-03
   -.559E+00 0.118E+02 0.789E+01   0.103E+00 -.121E+02 -.786E+01   0.454E+00 0.219E+00 -.191E-01   -.550E-02 0.311E-02 0.153E-02
   -.748E+01 0.609E+01 0.648E+01   0.671E+01 -.631E+01 -.658E+01   0.776E+00 0.224E+00 0.117E+00   -.390E-02 0.353E-03 0.270E-02
   0.546E+01 0.116E+02 0.668E+01   -.586E+01 -.131E+02 -.668E+01   0.402E+00 0.144E+01 -.511E-02   -.225E-02 -.452E-04 0.145E-03
   0.207E+02 0.177E+02 0.686E+01   -.262E+02 -.208E+02 -.687E+01   0.548E+01 0.311E+01 0.587E-02   -.849E-03 -.156E-02 0.623E-03
   -.836E-02 -.542E+00 0.766E+01   0.840E-02 0.779E+00 -.774E+01   0.911E-03 -.237E+00 0.719E-01   0.490E-04 0.168E-02 -.368E-03
   -.103E-01 -.263E+02 0.688E+01   0.963E-02 0.326E+02 -.695E+01   0.956E-03 -.629E+01 0.669E-01   0.414E-04 -.960E-03 -.573E-03
   -.536E+01 0.198E+01 0.382E+01   0.681E+01 -.155E+01 -.373E+01   -.144E+01 -.403E+00 -.730E-01   0.521E-02 -.429E-03 0.145E-02
   -.164E+01 -.488E+01 0.399E+01   0.245E+01 0.530E+01 -.392E+01   -.787E+00 -.433E+00 -.562E-01   0.399E-02 0.366E-03 0.135E-02
   0.242E+02 0.110E+02 0.125E+02   -.233E+02 -.114E+02 -.132E+02   -.913E+00 0.439E+00 0.665E+00   0.971E-02 0.287E-02 0.138E-02
   0.240E+02 -.112E+02 0.127E+02   -.232E+02 0.117E+02 -.133E+02   -.862E+00 -.441E+00 0.670E+00   0.944E-02 -.233E-02 0.125E-02
   -.239E+02 0.109E+02 0.122E+02   0.229E+02 -.113E+02 -.128E+02   0.937E+00 0.430E+00 0.624E+00   -.977E-02 0.286E-02 0.766E-03
   -.237E+02 -.111E+02 0.124E+02   0.228E+02 0.116E+02 -.130E+02   0.886E+00 -.431E+00 0.629E+00   -.951E-02 -.233E-02 0.594E-03
   0.547E+01 0.198E+01 0.605E+01   -.692E+01 -.156E+01 -.598E+01   0.145E+01 -.403E+00 -.579E-01   -.519E-02 -.314E-03 0.230E-02
   0.175E+01 -.489E+01 0.627E+01   -.256E+01 0.531E+01 -.621E+01   0.791E+00 -.432E+00 -.417E-01   -.390E-02 0.284E-03 0.219E-02
   0.126E+01 -.140E+02 0.787E+01   -.234E+01 0.150E+02 -.791E+01   0.106E+01 -.998E+00 0.398E-01   -.142E-02 0.151E-02 0.166E-03
   0.112E+01 -.589E+01 0.675E+01   -.120E+01 0.658E+01 -.674E+01   0.764E-01 -.696E+00 -.169E-01   -.170E-02 -.534E-03 -.153E-03
   -.122E+01 -.140E+02 0.624E+01   0.230E+01 0.150E+02 -.627E+01   -.106E+01 -.997E+00 0.234E-01   0.147E-02 0.151E-02 -.533E-03
   -.109E+01 -.591E+01 0.550E+01   0.117E+01 0.661E+01 -.549E+01   -.751E-01 -.696E+00 -.212E-01   0.175E-02 -.554E-03 -.658E-03
   0.768E+01 -.865E+01 0.479E+01   -.709E+01 0.883E+01 -.489E+01   -.602E+00 -.185E+00 0.109E+00   0.509E-02 0.271E-03 0.254E-02
   0.260E+01 -.111E+02 0.681E+01   -.231E+01 0.114E+02 -.678E+01   -.271E+00 -.234E+00 -.158E-01   0.500E-02 -.345E-02 0.142E-02
   -.711E+01 -.365E+02 0.286E+02   0.132E+02 0.332E+02 -.278E+02   -.605E+01 0.334E+01 -.776E+00   0.105E-01 -.781E-02 0.111E-02
   -.890E-01 -.184E+02 0.120E+02   0.360E+00 0.176E+02 -.123E+02   -.298E+00 0.812E+00 0.214E+00   0.488E-02 -.409E-02 -.565E-03
   0.700E+01 -.362E+02 0.264E+02   -.130E+02 0.328E+02 -.256E+02   0.604E+01 0.336E+01 -.827E+00   -.105E-01 -.784E-02 0.343E-03
   0.204E-01 -.183E+02 0.112E+02   -.289E+00 0.174E+02 -.114E+02   0.294E+00 0.827E+00 0.207E+00   -.484E-02 -.427E-02 -.955E-03
   -.755E+01 -.862E+01 0.628E+01   0.695E+01 0.879E+01 -.639E+01   0.612E+00 -.182E+00 0.118E+00   -.517E-02 0.292E-03 0.264E-02
   -.256E+01 -.111E+02 0.771E+01   0.227E+01 0.113E+02 -.768E+01   0.273E+00 -.233E+00 -.193E-01   -.508E-02 -.349E-02 0.154E-02
   -.156E+01 -.493E+01 0.797E+01   0.136E+01 0.515E+01 -.799E+01   0.169E+00 -.244E+00 0.282E-01   -.317E-04 0.432E-03 0.262E-03
   -.883E+00 -.461E+01 0.773E+01   0.870E+00 0.478E+01 -.774E+01   0.178E-02 -.165E+00 0.510E-02   0.295E-03 -.270E-03 0.647E-04
   -.427E-02 -.690E+01 0.623E+01   0.322E-02 0.722E+01 -.626E+01   0.110E-02 -.341E+00 0.240E-01   0.249E-05 0.248E-02 -.519E-03
   -.171E-02 -.287E+01 0.604E+01   0.139E-02 0.314E+01 -.603E+01   0.517E-03 -.251E+00 -.157E-01   -.278E-04 -.500E-03 -.296E-03
   0.160E+01 -.495E+01 0.659E+01   -.141E+01 0.517E+01 -.662E+01   -.167E+00 -.245E+00 0.210E-01   0.717E-04 0.379E-03 -.180E-03
   0.897E+00 -.462E+01 0.687E+01   -.884E+00 0.478E+01 -.688E+01   -.150E-02 -.166E+00 0.426E-02   -.283E-03 -.216E-03 -.277E-03
   -.297E+01 -.746E+01 0.943E+01   0.345E+01 0.732E+01 -.953E+01   -.501E+00 0.152E+00 0.962E-01   0.516E-02 -.332E-02 0.899E-03
   0.142E+01 -.423E+01 0.848E+01   -.141E+01 0.413E+01 -.849E+01   -.194E-01 0.114E+00 0.117E-01   0.348E-02 -.307E-02 0.718E-03
   -.858E-01 -.881E+01 0.629E+01   0.906E-01 0.825E+01 -.592E+01   -.473E-02 0.605E+00 -.384E+00   -.696E-04 -.721E-02 -.366E-03
   -.160E-01 -.479E+01 0.741E+01   0.162E-01 0.442E+01 -.745E+01   -.374E-03 0.364E+00 0.392E-01   0.180E-04 -.403E-02 0.147E-03
   0.304E+01 -.743E+01 0.927E+01   -.353E+01 0.729E+01 -.936E+01   0.503E+00 0.153E+00 0.923E-01   -.511E-02 -.348E-02 0.660E-03
   -.142E+01 -.418E+01 0.823E+01   0.141E+01 0.407E+01 -.823E+01   0.187E-01 0.115E+00 0.933E-02   -.346E-02 -.304E-02 0.464E-03
   -.948E+00 -.737E+00 -.632E+03   0.108E+01 0.612E+00 0.613E+03   -.141E+00 0.133E+00 0.192E+02   0.275E-02 0.379E-03 -.243E-01
 -----------------------------------------------------------------------------------------------
   0.733E-01 0.271E+00 -.197E+02   0.185E-12 0.227E-12 0.227E-12   -.780E-01 -.271E+00 0.197E+02   0.288E-02 0.245E-03 0.534E-02
 
 
 POSITION                                       TOTAL-FORCE (eV/Angst)
 -----------------------------------------------------------------------------------
     -7.42842     12.75389      7.46440        -0.004730     -0.017852      0.002058
      0.00065      1.42346      7.46552         0.009564      0.018605      0.001667
      2.48188      0.02388      7.46312        -0.003995     -0.012526     -0.002348
      2.48036      1.44609      7.47382         0.007630      0.023417     -0.000129
      4.95208      0.02378      7.46573         0.003555     -0.012206     -0.004685
      4.95364      1.44596      7.47543        -0.007098      0.023640     -0.002451
      0.00181     12.75377      7.46564         0.004066     -0.016553      0.001813
      7.43326      1.42333      7.46442        -0.010100      0.019776      0.001540
      2.47968     12.73025      7.47407         0.010314     -0.015739      0.000812
      9.91086      1.39534      7.46308        -0.008734     -0.000407     -0.002651
      4.95434     12.73038      7.47560        -0.010004     -0.016263     -0.001361
     12.38364      1.39545      7.46565         0.008567     -0.000719     -0.005032
     13.61552      2.11690      7.46670         0.006577      0.008854     -0.004666
     -1.25099      3.53901      7.47662         0.045317      0.016259     -0.000970
      1.23825      2.14650      7.47601        -0.007187     -0.006835      0.004070
      1.23625      3.57131      7.50239        -0.004480     -0.022901     -0.001853
      3.71704      2.16921      7.48988        -0.000117      0.014244      0.002183
      3.71711      3.59266      7.53615         0.000081     -0.034021     -0.005507
      6.19572      2.14639      7.47630         0.006223     -0.004743      0.001584
      6.19771      3.57133      7.50162         0.004466     -0.020919     -0.003907
      8.67896      2.11678      7.46274        -0.006510      0.009291     -0.001798
      8.68486      3.53888      7.47037        -0.045225      0.016626      0.003330
     11.14721      2.10587      7.46355         0.000082     -0.001016     -0.003090
     11.14718      3.52486      7.46543        -0.000099      0.005438     -0.003506
     12.36913      4.24790      7.47394        -0.002734      0.013279     -0.005670
     -2.50002      5.66946      7.48178         0.022966      0.007280     -0.002534
     -0.01803      4.24845      7.50052         0.006842      0.005475      0.011743
     -0.04788      5.66293      7.52805         0.012552      0.000372      0.012933
      2.47603      4.31290      7.55106        -0.009247     -0.014660     -0.018050
      2.43285      5.72820      7.63936         0.019312     -0.005687      0.009705
      4.95813      4.31334      7.55293         0.008632     -0.012042     -0.019906
      5.00149      5.72883      7.64323        -0.020569     -0.002475      0.006920
      7.45192      4.24835      7.49529        -0.006247      0.006073      0.013268
      7.48167      5.66290      7.52098        -0.012395      0.000961      0.013952
      9.92522      4.24784      7.46876         0.004032      0.013170     -0.001403
      9.93379      5.66946      7.47558        -0.022489      0.007549      0.002945
     11.14713      6.37439      7.47461         0.001041      0.001143     -0.005368
     -3.71340      7.78574      7.47266         0.000423     -0.001528     -0.007432
     -1.27839      6.37937      7.50524        -0.001407      0.015682      0.011154
     -1.26384      7.79969      7.50501         0.021402     -0.011915      0.010677
      1.17710      6.37090      7.58152        -0.018140     -0.015311     -0.002165
      1.18301      7.80151      7.58130        -0.006876      0.015291     -0.002538
      6.25718      6.37091      7.58007         0.018573     -0.014831     -0.006784
      6.25126      7.80147      7.57986         0.007488      0.014917     -0.007121
      8.71214      6.37941      7.49551         0.003034      0.015039      0.018007
      8.69760      7.79965      7.49509        -0.020909     -0.011913      0.017159
     -4.93533      8.49997      7.47298        -0.011732     -0.010981     -0.000189
     -4.93902      9.92871      7.46807        -0.006527     -0.000471     -0.003249
     -2.49143      8.49998      7.47971         0.013975     -0.010925     -0.005663
     -2.48769      9.92868      7.47348         0.007274     -0.000342     -0.007566
     -0.04002      8.50990      7.52857         0.000966     -0.005170      0.012720
     -0.01676      9.92798      7.50089         0.016423     -0.000478      0.012176
      2.43643      8.44486      7.63701         0.017926      0.002543      0.009502
      2.47632      9.86134      7.55077        -0.009462      0.010505     -0.018012
      4.99789      8.44419      7.64083        -0.019426     -0.000555      0.006068
      4.95783      9.86089      7.55261         0.008998      0.008177     -0.020208
      7.47382      8.50991      7.52142        -0.000923     -0.005320      0.013244
      7.45065      9.92807      7.49562        -0.015836     -0.001969      0.013167
     -6.17638     10.63989      7.47055        -0.029488     -0.024346      0.003115
     -6.18255     12.06065      7.46292        -0.011342      0.000342     -0.001088
     -3.71335     10.64507      7.46538         0.000083     -0.019929     -0.005624
     -3.71333     12.06944      7.46378         0.000203      0.018294     -0.002673
     -1.25027     10.63980      7.47684         0.029924     -0.024615     -0.000387
     -1.24405     12.06055      7.46695         0.011686      0.001037     -0.003866
      1.23624     10.60421      7.50253        -0.012755      0.016453     -0.001695
      1.23790     12.02982      7.47622        -0.003020      0.004762      0.004854
      3.71712     10.58290      7.53655         0.000126      0.032490     -0.006087
      3.71704     12.00660      7.49043        -0.000132     -0.013978      0.003270
      6.19775     10.60416      7.50169         0.011797      0.014935     -0.003359
      6.19607     12.02992      7.47638         0.002438      0.002753      0.003035
      3.71386      7.08387      8.32116        -0.004625      0.007471     -0.026080
 -----------------------------------------------------------------------------------
    total drift:                               -0.001814      0.000293     -0.001516


--------------------------------------------------------------------------------------------------------



  FREE ENERGIE OF THE ION-ELECTRON SYSTEM (eV)
  ---------------------------------------------------
  free  energy   TOTEN  =      -653.03597466 eV

  energy  without entropy=     -652.98936902  energy(sigma->0) =     -653.01267184
 
 d Force = 0.2506562E-04[ 0.456E-05, 0.456E-04]  d Energy = 0.5185527E-04-0.268E-04
 d Force =-0.1678880E+00[-0.168E+00,-0.168E+00]  d Ewald  =-0.1678880E+00 0.782E-09


--------------------------------------------------------------------------------------------------------


    POTLOK:  cpu time    0.3739: real time    0.3755


--------------------------------------------------------------------------------------------------------


 stress matrix after NEB project (eV)
     -5.79195      0.00459     -0.00413
      0.00459     -3.42250      0.00157
     -0.00413      0.00157     -3.54597
  FORCES: max atom, RMS     0.048299    0.021183
  FORCE total and by dimension    0.178492    0.045317
  Stress total and by dimension    7.604874    5.791945


--------------------------------------------------------------------------------------------------------


  
 reached required accuracy - stopping structural energy minimisation
     LOOP+:  cpu time   53.9166: real time   54.3364
    4ORBIT:  cpu time    0.0000: real time    0.0000

 total amount of memory used by VASP MPI-rank0   111612. kBytes
=======================================================================

   base      :      30000. kBytes
   nonlr-proj:       9927. kBytes
   fftplans  :      10852. kBytes
   grid      :      30996. kBytes
   one-center:        186. kBytes
   wavefun   :      29651. kBytes
 
  
  
 General timing and accounting informations for this job:
 ========================================================
  
                  Total CPU time used (sec):     1615.132
                            User time (sec):     1602.766
                          System time (sec):       12.367
                         Elapsed time (sec):     1635.015
  
                   Maximum memory used (kb):      485772.
                   Average memory used (kb):           0.
  
                          Minor page faults:      2111991
                          Major page faults:            0
                 Voluntary context switches:        11769
