 vasp.5.4.4.18Apr17-6-g9f103f2a35 (build Jan 14 2022 15:04:31) complex          
  
 executed on             LinuxIFC date 2023.04.05  11:31:10
 running on   48 total cores
 distrk:  each k-point on   48 cores,    1 groups
 distr:  one band on NCORES_PER_BAND=  12 cores,    4 groups


--------------------------------------------------------------------------------------------------------


 INCAR:
 POTCAR:    PAW_PBE C 08Apr2002                   
 POTCAR:    PAW_PBE N 08Apr2002                   
 POTCAR:    PAW_PBE Ge_d 03Jul2007                
 POTCAR:    PAW_PBE C 08Apr2002                   
   SHA256 =  253f7b50bb8d59471dbedb8285d89021f4a42ed1a2c5d38a03a736e69125dd95 C/
   COPYR  = (c) Copyright 08Apr2002 Georg Kresse                                
   COPYR  = This file is part of the software VASP. Any use, copying, and all ot
   COPYR  = If you do not have a valid VASP license, you may not use, copy or di
   VRHFIN =C: s2p2                                                              
   LEXCH  = PE                                                                  
   EATOM  =   147.1560 eV,   10.8157 Ry                                         
                                                                                
   TITEL  = PAW_PBE C 08Apr2002                                                 
   LULTRA =        F    use ultrasoft PP ?                                      
   IUNSCR =        1    unscreen: 0-lin 1-nonlin 2-no                           
   RPACOR =    1.200    partial core radius                                     
   POMASS =   12.011; ZVAL   =    4.000    mass and valenz                      
   RCORE  =    1.500    outmost cutoff radius                                   
   RWIGS  =    1.630; RWIGS  =    0.863    wigner-seitz radius (au A)           
   ENMAX  =  400.000; ENMIN  =  300.000 eV                                      
   ICORE  =        2    local potential                                         
   LCOR   =        T    correct aug charges                                     
   LPAW   =        T    paw PP                                                  
   EAUG   =  644.873                                                            
   DEXC   =    0.000                                                            
   RMAX   =    1.529    core radius for proj-oper                               
   RAUG   =    1.300    factor for augmentation sphere                          
   RDEP   =    1.501    radius for radial grids                                 
   RDEPT  =    1.300    core radius for aug-charge                              
                                                                                
   Atomic configuration                                                         
    4 entries                                                                   
     n  l   j            E        occ.                                          
     1  0  0.50      -273.3789   2.0000                                         
     2  0  0.50       -13.7508   2.0000                                         
     2  1  0.50        -5.2854   2.0000                                         
     3  2  1.50        -5.4423   0.0000                                         
   Description                                                                  
     l       E           TYP  RCUT    TYP  RCUT                                 
     0    -13.7508458     23  1.200                                             
     0     -8.2022199     23  1.200                                             
     1     -5.2854383     23  1.500                                             
     1     34.0145650     23  1.500                                             
     2     -5.4423304      7  1.500                                             
  local pseudopotential read in
  partial core-charges read in
  partial kinetic energy density read in
  atomic valenz-charges read in
  non local Contribution for L=           0  read in
    real space projection operators read in
  non local Contribution for L=           0  read in
    real space projection operators read in
  non local Contribution for L=           1  read in
    real space projection operators read in
  non local Contribution for L=           1  read in
    real space projection operators read in
    PAW grid and wavefunctions read in
 
   number of l-projection  operators is LMAX  =           4
   number of lm-projection operators is LMMAX =           8
 
 POTCAR:    PAW_PBE N 08Apr2002                   
   SHA256 =  e053789ff3a61a86a1b75d8a110fcc91f86041011e7b0817c7c99e4e8a6349d7 N/
   COPYR  = (c) Copyright 08Apr2002 Georg Kresse                                
   COPYR  = This file is part of the software VASP. Any use, copying, and all ot
   COPYR  = If you do not have a valid VASP license, you may not use, copy or di
   VRHFIN =N: s2p3                                                              
   LEXCH  = PE                                                                  
   EATOM  =   264.5486 eV,   19.4438 Ry                                         
                                                                                
   TITEL  = PAW_PBE N 08Apr2002                                                 
   LULTRA =        F    use ultrasoft PP ?                                      
   IUNSCR =        1    unscreen: 0-lin 1-nonlin 2-no                           
   RPACOR =    1.200    partial core radius                                     
   POMASS =   14.001; ZVAL   =    5.000    mass and valenz                      
   RCORE  =    1.500    outmost cutoff radius                                   
   RWIGS  =    1.400; RWIGS  =    0.741    wigner-seitz radius (au A)           
   ENMAX  =  400.000; ENMIN  =  300.000 eV                                      
   ICORE  =        2    local potential                                         
   LCOR   =        T    correct aug charges                                     
   LPAW   =        T    paw PP                                                  
   EAUG   =  627.112                                                            
   DEXC   =    0.000                                                            
   RMAX   =    1.529    core radius for proj-oper                               
   RAUG   =    1.300    factor for augmentation sphere                          
   RDEP   =    1.514    radius for radial grids                                 
   RDEPT  =    1.338    core radius for aug-charge                              
                                                                                
   Atomic configuration                                                         
    4 entries                                                                   
     n  l   j            E        occ.                                          
     1  0  0.50      -384.7179   2.0000                                         
     2  0  0.50       -18.5828   2.0000                                         
     2  1  0.50        -7.0898   3.0000                                         
     3  2  1.50        -6.8029   0.0000                                         
   Description                                                                  
     l       E           TYP  RCUT    TYP  RCUT                                 
     0    -18.5828119     23  1.200                                             
     0    -13.5018863     23  1.200                                             
     1     -7.0897853     23  1.500                                             
     1      9.5240782     23  1.500                                             
     2     -6.8029130      7  1.500                                             
  local pseudopotential read in
  partial core-charges read in
  partial kinetic energy density read in
  atomic valenz-charges read in
  non local Contribution for L=           0  read in
    real space projection operators read in
  non local Contribution for L=           0  read in
    real space projection operators read in
  non local Contribution for L=           1  read in
    real space projection operators read in
  non local Contribution for L=           1  read in
    real space projection operators read in
    PAW grid and wavefunctions read in
 
   number of l-projection  operators is LMAX  =           4
   number of lm-projection operators is LMMAX =           8
 
 POTCAR:    PAW_PBE Ge_d 03Jul2007                
   SHA256 =  944b26c40d2d7c4f4eb1ff3a2e8dbfdd7129146276cd341854bfd5c0e57780ed Ge
   COPYR  = (c) Copyright 03Jul2007 Georg Kresse                                
   COPYR  = This file is part of the software VASP. Any use, copying, and all ot
   COPYR  = If you do not have a valid VASP license, you may not use, copy or di
   VRHFIN =Ge: 3d4s4p                                                           
   LEXCH  = PE                                                                  
   EATOM  =  2596.2402 eV,  190.8183 Ry                                         
                                                                                
   TITEL  = PAW_PBE Ge_d 03Jul2007                                              
   LULTRA =        F    use ultrasoft PP ?                                      
   IUNSCR =        1    unscreen: 0-lin 1-nonlin 2-no                           
   RPACOR =    2.000    partial core radius                                     
   POMASS =   72.610; ZVAL   =   14.000    mass and valenz                      
   RCORE  =    2.300    outmost cutoff radius                                   
   RWIGS  =    2.300; RWIGS  =    1.217    wigner-seitz radius (au A)           
   ENMAX  =  310.294; ENMIN  =  232.720 eV                                      
   ICORE  =        3    local potential                                         
   LCOR   =        T    correct aug charges                                     
   LPAW   =        T    paw PP                                                  
   EAUG   =  531.356                                                            
   DEXC   =    0.000                                                            
   RMAX   =    2.342    core radius for proj-oper                               
   RAUG   =    1.300    factor for augmentation sphere                          
   RDEP   =    2.318    radius for radial grids                                 
   RDEPT  =    1.783    core radius for aug-charge                              
                                                                                
   Atomic configuration                                                         
    9 entries                                                                   
     n  l   j            E        occ.                                          
     1  0  0.50    -10959.8463   2.0000                                         
     2  0  0.50     -1371.6056   2.0000                                         
     2  1  1.50     -1198.4791   6.0000                                         
     3  0  0.50      -168.4733   2.0000                                         
     3  1  1.50      -115.6019   6.0000                                         
     3  2  2.50       -29.3106  10.0000                                         
     4  0  0.50       -11.7309   2.0000                                         
     4  1  0.50        -3.8952   2.0000                                         
     4  3  2.50        -4.0817   0.0000                                         
   Description                                                                  
     l       E           TYP  RCUT    TYP  RCUT                                 
     2    -29.3105938     23  2.200                                             
     2    -13.6058260     23  2.200                                             
     0    -11.7309493     23  2.300                                             
     0     -7.4578696     23  2.300                                             
     1     -3.8952261     23  2.300                                             
     1      6.1178114     23  2.300                                             
     3     -1.3605826     23  2.300                                             
  local pseudopotential read in
  partial core-charges read in
  partial kinetic energy density read in
  atomic valenz-charges read in
  non local Contribution for L=           2  read in
    real space projection operators read in
  non local Contribution for L=           2  read in
    real space projection operators read in
  non local Contribution for L=           0  read in
    real space projection operators read in
  non local Contribution for L=           0  read in
    real space projection operators read in
  non local Contribution for L=           1  read in
    real space projection operators read in
  non local Contribution for L=           1  read in
    real space projection operators read in
    PAW grid and wavefunctions read in
 
   number of l-projection  operators is LMAX  =           6
   number of lm-projection operators is LMMAX =          18
 

 ----------------------------------------------------------------------------- 
|                                                                             |
|  ADVICE TO THIS USER RUNNING 'VASP/VAMP'   (HEAR YOUR MASTER'S VOICE ...):  |
|                                                                             |
|      You have a (more or less) 'large supercell' and for larger cells       |
|      it might be more efficient to use real space projection opertators     |
|      So try LREAL= Auto  in the INCAR   file.                               |
|      Mind:          For very  accurate calculation you might also keep the  |
|      reciprocal projection scheme          (i.e. LREAL=.FALSE.)             |
|                                                                             |
 ----------------------------------------------------------------------------- 

  PAW_PBE C 08Apr2002                   :
 energy of atom  1       EATOM= -147.1560
 kinetic energy error for atom=    0.0132 (will be added to EATOM!!)
  PAW_PBE N 08Apr2002                   :
 energy of atom  2       EATOM= -264.5486
 kinetic energy error for atom=    0.0298 (will be added to EATOM!!)
  PAW_PBE Ge_d 03Jul2007                :
 energy of atom  3       EATOM=-2596.2402
 kinetic energy error for atom=    0.0090 (will be added to EATOM!!)
 
 
 POSCAR: POSCAR-c3n4                             
  positions in cartesian coordinates
  No initial velocities read in
 exchange correlation table for  LEXCH =        8
   RHO(1)=    0.500       N(1)  =     2000
   RHO(2)=  100.500       N(2)  =     4000

 VTST: version 3.2, (02/03/18)

 CHAIN: initializing optimizer
 
 OPT: Using VASP Dynamics algorithm
 CHAIN: Read ICHAIN            0
 
 POSCAR: POSCAR-c3n4                             
  positions in cartesian coordinates
  No initial velocities read in
 


--------------------------------------------------------------------------------------------------------


 ion  position               nearest neighbor table
   1  0.106  0.214  0.426-  26 1.07  46 1.07  25 1.13   6 1.81  16 1.81   3 1.95   2 1.97
   2  0.288  0.399  0.433-  29 1.06  35 1.11  25 1.15   5 1.83  10 1.86   1 1.97   3 2.00
   3  0.104  0.392  0.427-  44 1.05  39 1.10  25 1.14  17 1.82  12 1.85   1 1.95   2 2.00
   4  0.447  0.064  0.506-  30 1.06  27 1.07  48 1.13  13 1.81   8 1.81  18 1.94  11 1.94
   5  0.453  0.401  0.413-  28 1.06  29 1.07  56 1.14  15 1.81   2 1.83  10 1.95  24 1.97
   6  0.112  0.053  0.449-  26 1.06  31 1.07  32 1.12   9 1.80   1 1.81  16 1.91  23 1.95
   7  0.096  0.712  0.484-  54 1.06  34 1.09  33 1.12  12 1.79  22 1.82   9 1.93   8 1.98
   8  0.284  0.890  0.501-  27 1.07  37 1.08  33 1.13   4 1.81  11 1.82   9 1.97   7 1.98
   9  0.109  0.895  0.498-  31 1.06  52 1.08  33 1.15   6 1.80  23 1.81   7 1.93   8 1.97
  10  0.448  0.548  0.502-  38 1.06  56 1.08  35 1.09  19 1.80   2 1.86  24 1.89   5 1.95  57 2.18

  11  0.445  0.885  0.489-  37 1.07  36 1.07  48 1.11  21 1.82   8 1.82  18 1.94   4 1.94
  12  0.087  0.542  0.481-  34 1.06  40 1.08  39 1.09   7 1.79   3 1.85  22 1.91  17 1.93  57 2.19

  13  0.616  0.223  0.473-  42 1.08  30 1.08  41 1.12   4 1.81  18 1.81  15 1.95  14 1.98
  14  0.780  0.390  0.400-  45 1.08  51 1.09  41 1.12  17 1.80  22 1.80  15 1.96  13 1.98
  15  0.610  0.394  0.435-  28 1.07  55 1.07  41 1.16  24 1.81   5 1.81  13 1.95  14 1.96
  16  0.940  0.052  0.461-  46 1.05  43 1.07  32 1.12  20 1.80   1 1.81   6 1.91  23 1.94
  17  0.941  0.387  0.394-  45 1.06  44 1.07  40 1.14  14 1.80   3 1.82  12 1.93  22 1.96
  18  0.623  0.066  0.512-  42 1.06  47 1.07  48 1.13  13 1.81  21 1.81   4 1.94  11 1.94
  19  0.613  0.711  0.531-  50 1.06  38 1.09  49 1.13  10 1.80  24 1.82  20 1.95  21 2.00
  20  0.790  0.897  0.523-  43 1.06  53 1.07  49 1.16  16 1.80  23 1.80  19 1.95  21 1.97
  21  0.609  0.892  0.521-  47 1.07  36 1.08  49 1.15  18 1.81  11 1.82  20 1.97  19 2.00
  22  0.938  0.563  0.421-  51 1.05  54 1.08  40 1.14  14 1.80   7 1.82  12 1.91  17 1.96
  23  0.954  0.902  0.535-  52 1.07  53 1.07  32 1.12  20 1.80   9 1.81  16 1.94   6 1.95
  24  0.621  0.555  0.490-  55 1.05  50 1.06  56 1.13  15 1.81  19 1.82  10 1.89   5 1.97
  25  0.167  0.335  0.425-   1 1.13   3 1.14   2 1.15
  26  0.165  0.161  0.421-   6 1.06   1 1.07
  27  0.336  0.002  0.522-   8 1.07   4 1.07
  28  0.512  0.352  0.392-   5 1.06  15 1.07
  29  0.345  0.361  0.390-   2 1.06   5 1.07
  30  0.506  0.177  0.493-   4 1.06  13 1.08
  31  0.159  0.988  0.447-   9 1.06   6 1.07
  32  0.002  0.002  0.483-  16 1.12  23 1.12   6 1.12
  33  0.165  0.831  0.500-   7 1.12   8 1.13   9 1.15
  34  0.134  0.645  0.518-  12 1.06   7 1.09  57 2.10
  35  0.334  0.491  0.492-  10 1.09   2 1.11  57 1.65
  36  0.503  0.831  0.490-  11 1.07  21 1.08
  37  0.333  0.829  0.479-  11 1.07   8 1.08
  38  0.499  0.648  0.545-  10 1.06  19 1.09  57 2.11
  39  0.142  0.484  0.485-  12 1.09   3 1.10  57 1.66
  40  0.988  0.496  0.436-  12 1.08  22 1.14  17 1.14
  41  0.667  0.330  0.429-  13 1.12  14 1.12  15 1.16
  42  0.680  0.178  0.495-  18 1.06  13 1.08
  43  0.827  0.986  0.468-  20 1.06  16 1.07
  44  0.011  0.348  0.379-   3 1.05  17 1.07
  45  0.830  0.330  0.380-  17 1.06  14 1.08
  46  0.993  0.161  0.435-  16 1.05   1 1.07
  47  0.669  0.005  0.539-  21 1.07  18 1.07
  48  0.505  0.004  0.498-  11 1.11  18 1.13   4 1.13
  49  0.668  0.832  0.534-  19 1.13  21 1.15  20 1.16
  50  0.675  0.666  0.512-  19 1.06  24 1.06
  51  0.832  0.507  0.396-  22 1.05  14 1.09
  52  0.016  0.853  0.549-  23 1.07   9 1.08
  53  0.849  0.860  0.566-  20 1.07  23 1.07
  54  0.004  0.677  0.435-   7 1.06  22 1.08
  55  0.668  0.491  0.484-  24 1.05  15 1.07
  56  0.506  0.502  0.467-  10 1.08  24 1.13   5 1.14
  57  0.287  0.593  0.558-  35 1.65  39 1.66  34 2.10  38 2.11  10 2.18  12 2.19
 

IMPORTANT INFORMATION: All symmetrisations will be switched off!
NOSYMM: (Re-)initialisation of all symmetry stuff for point group C_1.

 
 
 KPOINTS: K-Points                                

Automatic generation of k-mesh.
Space group operators:
 irot       det(A)        alpha          n_x          n_y          n_z        tau_x        tau_y        tau_z
    1     1.000000     0.000000     1.000000     0.000000     0.000000     0.000000     0.000000     0.000000
 
 Subroutine IBZKPT returns following result:
 ===========================================
 
 Found      5 irreducible k-points:
 
 Following reciprocal coordinates:
            Coordinates               Weight
  0.000000  0.000000  0.000000      1.000000
  0.333333  0.000000  0.000000      2.000000
  0.000000  0.333333  0.000000      2.000000
  0.333333  0.333333  0.000000      2.000000
 -0.333333  0.333333  0.000000      2.000000
 
 Following cartesian coordinates:
            Coordinates               Weight
  0.000000  0.000000  0.000000      1.000000
  0.024277  0.014368  0.000000      2.000000
  0.000396  0.028736  0.000000      2.000000
  0.024673  0.043104  0.000000      2.000000
 -0.023881  0.014368  0.000000      2.000000
 
 TETIRR: Found     24 inequivalent tetrahedra from       54


--------------------------------------------------------------------------------------------------------




 Dimension of arrays:
   k-points           NKPTS =      5   k-points in BZ     NKDIM =      5   number of bands    NBANDS=    168
   number of dos      NEDOS =   4000   number of ions     NIONS =     57
   non local maximal  LDIM  =      6   non local SUM 2l+1 LMDIM =     18
   total plane-waves  NPLWV = 215040
   max r-space proj   IRMAX =      1   max aug-charges    IRDMAX=   6063
   dimension x,y,z NGX =    60 NGY =   56 NGZ =   64
   dimension x,y,z NGXF=   120 NGYF=  112 NGZF=  128
   support grid    NGXF=   120 NGYF=  112 NGZF=  128
   ions per type =              24  32   1
   NGX,Y,Z   is equivalent  to a cutoff of   9.01,  8.56,  8.87 a.u.
   NGXF,Y,Z  is equivalent  to a cutoff of  18.01, 17.13, 17.73 a.u.

 SYSTEM =  unknown system                          
 POSCAR =  POSCAR-c3n4                             

 Startparameter for this run:
   NWRITE =      2    write-flag & timer
   PREC   = normal    normal or accurate (medium, high low for compatibility)
   ISTART =      0    job   : 0-new  1-cont  2-samecut
   ICHARG =      2    charge: 1-file 2-atom 10-const
   ISPIN  =      2    spin polarized calculation?
   LNONCOLLINEAR =      F non collinear calculations
   LSORBIT =      F    spin-orbit coupling
   INIWAV =      1    electr: 0-lowe 1-rand  2-diag
   LASPH  =      F    aspherical Exc in radial PAW
   METAGGA=      F    non-selfconsistent MetaGGA calc.

 Electronic Relaxation 1
   ENCUT  =  440.0 eV  32.34 Ry    5.69 a.u.  18.94 18.59 20.52*2*pi/ulx,y,z
   ENINI  =  440.0     initial cutoff
   ENAUG  =  644.9 eV  augmentation charge cutoff
   NELM   =    100;   NELMIN=  2; NELMDL= -5     # of ELM steps 
   EDIFF  = 0.1E-03   stopping-criterion for ELM
   LREAL  =      F    real-space projection
   NLSPLINE    = F    spline interpolate recip. space projectors
   LCOMPAT=      F    compatible to vasp.4.4
   GGA_COMPAT  = T    GGA compatible to vasp.4.4-vasp.4.6
   LMAXPAW     = -100 max onsite density
   LMAXMIX     =    2 max onsite mixed and CHGCAR
   VOSKOWN=      0    Vosko Wilk Nusair interpolation
   ROPT   =    0.00000   0.00000   0.00000
 Ionic relaxation
   EDIFFG = -.1E-01   stopping-criterion for IOM
   NSW    =      0    number of steps for IOM
   NBLOCK =      1;   KBLOCK =      1    inner block; outer block 
   IBRION =     -1    ionic relax: 0-MD 1-quasi-New 2-CG
   NFREE  =      0    steps in history (QN), initial steepest desc. (CG)
   ISIF   =      2    stress and relaxation
   IWAVPR =     10    prediction:  0-non 1-charg 2-wave 3-comb
   ISYM   =      0    0-nonsym 1-usesym 2-fastsym
   LCORR  =      T    Harris-Foulkes like correction to forces

   POTIM  = 0.5000    time-step for ionic-motion
   TEIN   =    0.0    initial temperature
   TEBEG  =    0.0;   TEEND  =   0.0 temperature during run
   SMASS  =  -3.00    Nose mass-parameter (am)
   estimated Nose-frequenzy (Omega)   =  0.10E-29 period in steps =****** mass=  -0.280E-26a.u.
   SCALEE = 1.0000    scale energy and forces
   NPACO  =    256;   APACO  = 16.0  distance and # of slots for P.C.
   PSTRESS=    0.0 pullay stress

  Mass of Ions in am
   POMASS =  12.01 14.00 72.61
  Ionic Valenz
   ZVAL   =   4.00  5.00 14.00
  Atomic Wigner-Seitz radii
   RWIGS  =  -1.00 -1.00 -1.00
  virtual crystal weights 
   VCA    =   1.00  1.00  1.00
   NELECT =     270.0000    total number of electrons
   NUPDOWN=      -1.0000    fix difference up-down

 DOS related values:
   EMIN   = -14.00;   EMAX   =  6.00  energy-range for DOS
   EFERMI =   0.00
   ISMEAR =    -5;   SIGMA  =   0.20  broadening in eV -4-tet -1-fermi 0-gaus

 Electronic relaxation 2 (details)
   IALGO  =     38    algorithm
   LDIAG  =      T    sub-space diagonalisation (order eigenvalues)
   LSUBROT=      F    optimize rotation matrix (better conditioning)
   TURBO    =      0    0=normal 1=particle mesh
   IRESTART =      0    0=no restart 2=restart with 2 vectors
   NREBOOT  =      0    no. of reboots
   NMIN     =      0    reboot dimension
   EREF     =   0.00    reference energy to select bands
   IMIX   =      4    mixing-type and parameters
     AMIX     =   0.25;   BMIX     =  0.00
     AMIX_MAG =   1.00;   BMIX_MAG =  0.00
     AMIN     =   0.10
     WC   =   100.;   INIMIX=   1;  MIXPRE=   1;  MAXMIX= -45

 Intra band minimization:
   WEIMIN = 0.0000     energy-eigenvalue tresh-hold
   EBREAK =  0.15E-06  absolut break condition
   DEPER  =   0.30     relativ break condition  

   TIME   =   0.40     timestep for ELM

  volume/ion in A,a.u.               =      21.64       146.01
  Fermi-wavevector in a.u.,A,eV,Ry     =   0.986682  1.864559 13.245847  0.973542
  Thomas-Fermi vector in A             =   2.118081
 
 Write flags
   LWAVE        =      F    write WAVECAR
   LDOWNSAMPLE  =      F    k-point downsampling of WAVECAR
   LCHARG       =      F    write CHGCAR
   LVTOT        =      F    write LOCPOT, total local potential
   LVHAR        =      F    write LOCPOT, Hartree potential only
   LELF         =      F    write electronic localiz. function (ELF)
   LORBIT       =     11    0 simple, 1 ext, 2 COOP (PROOUT), +10 PAW based schemes


 Dipole corrections
   LMONO  =      F    monopole corrections only (constant potential shift)
   LDIPOL =      F    correct potential (dipole corrections)
   IDIPOL =      0    1-x, 2-y, 3-z, 4-all directions 
   EPSILON=  1.0000000 bulk dielectric constant

 Exchange correlation treatment:
   GGA     =    --    GGA type
   LEXCH   =     8    internal setting for exchange type
   VOSKOWN=      0    Vosko Wilk Nusair interpolation
   LHFCALC =     F    Hartree Fock is set to
   LHFONE  =     F    Hartree Fock one center treatment
   AEXX    =    0.0000 exact exchange contribution

 Linear response parameters
   LEPSILON=     F    determine dielectric tensor
   LRPA    =     F    only Hartree local field effects (RPA)
   LNABLA  =     F    use nabla operator in PAW spheres
   LVEL    =     F    velocity operator in full k-point grid
   LINTERFAST=   F  fast interpolation
   KINTER  =     0    interpolate to denser k-point grid
   CSHIFT  =0.1000    complex shift for real part using Kramers Kronig
   OMEGAMAX=  -1.0    maximum frequency
   DEG_THRESHOLD= 0.2000000E-02 threshold for treating states as degnerate
   RTIME   =   -0.100 relaxation time in fs
  (WPLASMAI=    0.000 imaginary part of plasma frequency in eV, 0.658/RTIME)
   DFIELD  = 0.0000000 0.0000000 0.0000000 field for delta impulse in time
 
 Orbital magnetization related:
   ORBITALMAG=     F  switch on orbital magnetization
   LCHIMAG   =     F  perturbation theory with respect to B field
   DQ        =  0.001000  dq finite difference perturbation B field
   LLRAUG    =     F  two centre corrections for induced B field



--------------------------------------------------------------------------------------------------------


 Static calculation
 charge density and potential will be updated during run
 spin polarized calculation
 Variant of blocked Davidson
 Davidson routine will perform the subspace rotation
 perform sub-space diagonalisation
    after iterative eigenvector-optimisation
 modified Broyden-mixing scheme, WC =      100.0
 initial mixing is a Kerker type mixing with AMIX =  0.2500 and BMIX =      0.0001
 Hartree-type preconditioning will be used
 using additional bands           33
 reciprocal scheme for non local part
 use partial core corrections
 calculate Harris-corrections to forces 
   (improved forces if not selfconsistent)
 use gradient corrections 
 use of overlap-Matrix (Vanderbilt PP)
 Fermi weights with tetrahedron method with Bloechl corrections


--------------------------------------------------------------------------------------------------------


  energy-cutoff  :      440.00
  volume of cell :     1233.26
      direct lattice vectors                 reciprocal lattice vectors
    11.074739388 -0.152592379  0.000000000     0.091037962  0.053880143  0.000000000
    -5.537369694  9.356152795  0.000000000     0.001484766  0.107760286  0.000000000
     0.000000000  0.000000000 12.000000000     0.000000000  0.000000000  0.083333333

  length of vectors
    11.075790579 10.871985019 12.000000000     0.105787430  0.107770514  0.083333333


 
 k-points in units of 2pi/SCALE and weight: K-Points                                
   0.00000000  0.00000000  0.00000000       0.111
   0.02427679  0.01436804  0.00000000       0.222
   0.00039594  0.02873608  0.00000000       0.222
   0.02467273  0.04310411  0.00000000       0.222
  -0.02388085  0.01436804  0.00000000       0.222
 
 k-points in reciprocal lattice and weights: K-Points                                
   0.00000000  0.00000000  0.00000000       0.111
   0.33333333  0.00000000  0.00000000       0.222
   0.00000000  0.33333333  0.00000000       0.222
   0.33333333  0.33333333  0.00000000       0.222
  -0.33333333  0.33333333  0.00000000       0.222
 
 position of ions in fractional coordinates (direct lattice) 
   0.10567936  0.21351909  0.42646415
   0.28750403  0.39866334  0.43315811
   0.10379301  0.39177313  0.42728737
   0.44732828  0.06383887  0.50569377
   0.45258916  0.40124889  0.41252546
   0.11203481  0.05273921  0.44868132
   0.09638015  0.71191070  0.48390127
   0.28433946  0.89006364  0.50120122
   0.10941441  0.89537413  0.49812536
   0.44792521  0.54827090  0.50190381
   0.44544784  0.88520183  0.48897001
   0.08690842  0.54210436  0.48067119
   0.61614813  0.22292684  0.47270451
   0.78023735  0.38968276  0.39988272
   0.61037743  0.39432339  0.43546161
   0.93951642  0.05229783  0.46070020
   0.94071854  0.38652888  0.39388003
   0.62278394  0.06558106  0.51203168
   0.61322902  0.71118454  0.53124878
   0.78984871  0.89727295  0.52288011
   0.60944297  0.89248269  0.52132702
   0.93832005  0.56283419  0.42050954
   0.95436023  0.90171878  0.53466451
   0.62130548  0.55465507  0.48986027
   0.16668926  0.33545237  0.42502835
   0.16473950  0.16097029  0.42095206
   0.33626584  0.00180669  0.52215766
   0.51175722  0.35246859  0.39238613
   0.34471728  0.36074551  0.38975287
   0.50565751  0.17673507  0.49315170
   0.15873210  0.98821904  0.44665654
   0.00214731  0.00186372  0.48284181
   0.16462634  0.83083069  0.50025956
   0.13400723  0.64526801  0.51778798
   0.33371346  0.49116238  0.49155062
   0.50288345  0.83078126  0.48972341
   0.33307237  0.82932770  0.47937372
   0.49902190  0.64803204  0.54483375
   0.14173676  0.48364631  0.48511610
   0.98839512  0.49595573  0.43598798
   0.66736443  0.33015381  0.42931770
   0.67970142  0.17802103  0.49523771
   0.82720183  0.98622484  0.46784919
   0.01097216  0.34809993  0.37880244
   0.83047981  0.33016544  0.37952861
   0.99296173  0.16101876  0.43513088
   0.66886761  0.00524437  0.53948092
   0.50484899  0.00388347  0.49830916
   0.66830364  0.83227641  0.53419919
   0.67536455  0.66551462  0.51246466
   0.83211404  0.50666912  0.39574663
   0.01584380  0.85299492  0.54867721
   0.84924332  0.85956436  0.56604968
   0.00424175  0.67726383  0.43455477
   0.66753141  0.49127771  0.48382075
   0.50565566  0.50179634  0.46716125
   0.28676550  0.59288202  0.55779478
 
 position of ions in cartesian coordinates  (Angst):
  -0.01196273  1.98159132  5.11756982
   0.97648588  3.68608419  5.19789736
  -1.01991218  3.64965125  5.12744845
   4.60054471  0.52902731  6.06832519
   2.79044349  3.68508430  4.95030552
   0.94871983  0.47634048  5.38417586
  -2.87472771  6.64603842  5.80681526
  -1.77962603  8.28418336  6.01441467
  -3.74628156  8.36056138  5.97750430
   1.92467634  5.06135635  6.02284569
   0.03152898  8.21411165  5.86764006
  -2.03934421  5.05874970  5.76805424
   5.58925163  1.99171808  5.67245409
   6.48310777  3.52687320  4.79859263
   4.57625652  3.59621098  5.22553935
  10.11530713  0.34594342  5.52840242
   8.27785939  3.47287681  4.72656038
   6.53402326  0.51855429  6.14438013
   2.85325990  6.56037717  6.37498533
   3.77883655  8.27449795  6.27456126
   1.80741544  8.25720802  6.25592427
   7.27502902  5.12278222  5.04611449
   5.57614053  8.29099061  6.41597417
   3.80946613  5.09463113  5.87832320
  -0.01148367  3.11310814  5.10034018
   0.93309507  1.48092460  5.05142470
   3.71405219 -0.03440796  6.26589188
   3.71582900  3.21965970  4.70863362
   1.82007276  3.32258889  4.67703448
   4.62137768  1.57640088  5.91782037
  -3.71421758  9.22170704  5.35987851
   0.01346081  0.01710958  5.79410176
  -2.77742280  7.74825813  6.00311475
  -2.08899237  6.01677759  6.21345572
   0.97604197  4.54446811  5.89860743
   0.96896021  7.69618018  5.87668098
  -0.90360439  7.70849236  5.75248467
   1.93814452  5.98693985  6.53800502
  -1.10843074  4.50344079  5.82139322
   8.19992816  4.48941605  5.23185572
   5.56270344  2.98713479  5.15181242
   6.54174787  1.56187469  5.94285251
   3.69995319  9.10104558  5.61419025
  -1.80604419  3.25520182  4.54562928
   7.36909934  2.96235341  4.55434333
  10.10517194  1.35499772  5.22157050
   7.37849452 -0.05299701  6.47377100
   5.56956681 -0.04070177  5.97970992
   2.79266653  7.68492720  6.41039033
   3.79428586  6.12360100  6.14957590
   6.40983186  4.61349947  4.74895956
  -4.54788231  7.97833318  6.58412655
   4.64542280  7.91262747  6.79259615
  -3.70328397  6.33593664  5.21465725
   4.67235004  4.49460913  5.80584897
   2.82137278  4.61772407  5.60593497
  -0.10715377  5.50333658  6.69353740
 


--------------------------------------------------------------------------------------------------------


 k-point  1 :   0.0000 0.0000 0.0000  plane waves:   25855
 k-point  2 :   0.3333 0.0000 0.0000  plane waves:   25857
 k-point  3 :   0.0000 0.3333 0.0000  plane waves:   25829
 k-point  4 :   0.3333 0.3333 0.0000  plane waves:   25874
 k-point  5 :  -0.3333 0.3333 0.0000  plane waves:   25865

 maximum and minimum number of plane-waves per node :      2176     2140

 maximum number of plane-waves:     25874
 maximum index in each direction: 
   IXMAX=   19   IYMAX=   18   IZMAX=   20
   IXMIN=  -19   IYMIN=  -18   IZMIN=  -20


 parallel 3D FFT for wavefunctions:
    minimum data exchange during FFTs selected (reduces bandwidth)
 parallel 3D FFT for charge:
    minimum data exchange during FFTs selected (reduces bandwidth)


 total amount of memory used by VASP MPI-rank0    58941. kBytes
=======================================================================

   base      :      30000. kBytes
   nonl-proj :       6647. kBytes
   fftplans  :       1973. kBytes
   grid      :       5275. kBytes
   one-center:        155. kBytes
   wavefun   :      14891. kBytes
 
     INWAV:  cpu time    0.0000: real time    0.0002
 Broyden mixing: mesh for mixing (old mesh)
   NGX = 37   NGY = 37   NGZ = 41
  (NGX  =120   NGY  =112   NGZ  =128)
  gives a total of  56129 points

 initial charge density was supplied:
 charge density of overlapping atoms calculated
 number of electron     270.0000000 magnetization       1.0000000
 keeping initial charge density in first step


--------------------------------------------------------------------------------------------------------


 Maximum index for augmentation-charges          177 (set IRDMAX)


--------------------------------------------------------------------------------------------------------


 First call to EWALD:  gamma=   0.165
 Maximum number of real-space cells 3x 3x 3
 Maximum number of reciprocal cells 3x 3x 3

    FEWALD:  cpu time    0.0032: real time    0.0034


--------------------------------------- Iteration      1(   1)  ---------------------------------------


    POTLOK:  cpu time    0.0524: real time    0.1022
    SETDIJ:  cpu time    0.0081: real time    0.0086
     EDDAV:  cpu time    4.0048: real time    4.0867
 BZINTS: Fermi energy: 14.381560;270.000000 electrons
         Band energy:***********;  BLOECHL correction: -0.170373
       DOS:  cpu time    0.3680: real time    0.3691
    --------------------------------------------
      LOOP:  cpu time    4.4334: real time    4.5666

 eigenvalue-minimisations  :  4248
 total energy-change (2. order) : 0.3129502E+04  (-0.1269819E+05)
 number of electron     270.0000000 magnetization       1.0000000
 augmentation part      270.0000000 magnetization       1.0000000

 Free energy of the ion-electron system (eV)
  ---------------------------------------------------
  alpha Z        PSCENC =       281.78432353
  Ewald energy   TEWEN  =     34229.16821719
  -Hartree energ DENC   =    -44369.66090243
  -exchange      EXHF   =         0.00000000
  -V(xc)+E(xc)   XCENC  =      1130.50833125
  PAW double counting   =     10998.91041168   -11485.61342155
  entropy T*S    EENTRO =         0.00000000
  eigenvalues    EBANDS =     -2247.85551057
  atomic energy  EATOM  =     14592.26033195
  Solvation  Ediel_sol  =         0.00000000
  ---------------------------------------------------
  free energy    TOTEN  =      3129.50178105 eV

  energy without entropy =     3129.50178105  energy(sigma->0) =     3129.50178105


--------------------------------------------------------------------------------------------------------




--------------------------------------- Iteration      1(   2)  ---------------------------------------


     EDDAV:  cpu time    6.3231: real time    6.7644
 BZINTS: Fermi energy:  0.296463;270.000000 electrons
         Band energy:***********;  BLOECHL correction: -0.090875
       DOS:  cpu time    0.0100: real time    0.0100
    --------------------------------------------
      LOOP:  cpu time    6.3331: real time    6.7745

 eigenvalue-minimisations  :  4320
 total energy-change (2. order) :-0.3080616E+04  (-0.2978709E+04)
 number of electron     270.0000000 magnetization       1.0000000
 augmentation part      270.0000000 magnetization       1.0000000

 Free energy of the ion-electron system (eV)
  ---------------------------------------------------
  alpha Z        PSCENC =       281.78432353
  Ewald energy   TEWEN  =     34229.16821719
  -Hartree energ DENC   =    -44369.66090243
  -exchange      EXHF   =         0.00000000
  -V(xc)+E(xc)   XCENC  =      1130.50833125
  PAW double counting   =     10998.91041168   -11485.61342155
  entropy T*S    EENTRO =         0.00000000
  eigenvalues    EBANDS =     -5328.47164248
  atomic energy  EATOM  =     14592.26033195
  Solvation  Ediel_sol  =         0.00000000
  ---------------------------------------------------
  free energy    TOTEN  =        48.88564914 eV

  energy without entropy =       48.88564914  energy(sigma->0) =       48.88564914


--------------------------------------------------------------------------------------------------------




--------------------------------------- Iteration      1(   3)  ---------------------------------------


     EDDAV:  cpu time    5.9349: real time    6.5132
 BZINTS: Fermi energy: -3.802793;270.000000 electrons
         Band energy:***********;  BLOECHL correction: -0.020169
       DOS:  cpu time    0.0099: real time    0.0099
    --------------------------------------------
      LOOP:  cpu time    5.9448: real time    6.5231

 eigenvalue-minimisations  :  4008
 total energy-change (2. order) :-0.3851404E+03  (-0.3806747E+03)
 number of electron     270.0000000 magnetization       1.0000000
 augmentation part      270.0000000 magnetization       1.0000000

 Free energy of the ion-electron system (eV)
  ---------------------------------------------------
  alpha Z        PSCENC =       281.78432353
  Ewald energy   TEWEN  =     34229.16821719
  -Hartree energ DENC   =    -44369.66090243
  -exchange      EXHF   =         0.00000000
  -V(xc)+E(xc)   XCENC  =      1130.50833125
  PAW double counting   =     10998.91041168   -11485.61342155
  entropy T*S    EENTRO =         0.00000000
  eigenvalues    EBANDS =     -5713.61207944
  atomic energy  EATOM  =     14592.26033195
  Solvation  Ediel_sol  =         0.00000000
  ---------------------------------------------------
  free energy    TOTEN  =      -336.25478782 eV

  energy without entropy =     -336.25478782  energy(sigma->0) =     -336.25478782


--------------------------------------------------------------------------------------------------------




--------------------------------------- Iteration      1(   4)  ---------------------------------------


     EDDAV:  cpu time    6.2235: real time    6.8947
 BZINTS: Fermi energy: -4.180134;270.000000 electrons
         Band energy:***********;  BLOECHL correction: -0.002064
       DOS:  cpu time    0.0104: real time    0.0104
    --------------------------------------------
      LOOP:  cpu time    6.2339: real time    6.9052

 eigenvalue-minimisations  :  4048
 total energy-change (2. order) :-0.1287638E+02  (-0.1244730E+02)
 number of electron     270.0000000 magnetization       1.0000000
 augmentation part      270.0000000 magnetization       1.0000000

 Free energy of the ion-electron system (eV)
  ---------------------------------------------------
  alpha Z        PSCENC =       281.78432353
  Ewald energy   TEWEN  =     34229.16821719
  -Hartree energ DENC   =    -44369.66090243
  -exchange      EXHF   =         0.00000000
  -V(xc)+E(xc)   XCENC  =      1130.50833125
  PAW double counting   =     10998.91041168   -11485.61342155
  entropy T*S    EENTRO =         0.00000000
  eigenvalues    EBANDS =     -5726.48845704
  atomic energy  EATOM  =     14592.26033195
  Solvation  Ediel_sol  =         0.00000000
  ---------------------------------------------------
  free energy    TOTEN  =      -349.13116542 eV

  energy without entropy =     -349.13116542  energy(sigma->0) =     -349.13116542


--------------------------------------------------------------------------------------------------------




--------------------------------------- Iteration      1(   5)  ---------------------------------------


     EDDAV:  cpu time    6.1028: real time    6.3667
 BZINTS: Fermi energy: -4.198492;270.000000 electrons
         Band energy:***********;  BLOECHL correction: -0.001784
       DOS:  cpu time    0.0103: real time    0.0103
    CHARGE:  cpu time    0.0583: real time    0.0612
    MIXING:  cpu time    0.0028: real time    0.0029
    --------------------------------------------
      LOOP:  cpu time    6.1743: real time    6.4412

 eigenvalue-minimisations  :  4232
 total energy-change (2. order) :-0.4499157E+00  (-0.4454750E+00)
 number of electron     270.0000017 magnetization       0.0322539
 augmentation part       26.3041569 magnetization      -0.1461515

 Broyden mixing:
  rms(total) = 0.75545E+01    rms(broyden)= 0.75514E+01
  rms(prec ) = 0.86419E+01
  weight for this iteration     100.00

 Free energy of the ion-electron system (eV)
  ---------------------------------------------------
  alpha Z        PSCENC =       281.78432353
  Ewald energy   TEWEN  =     34229.16821719
  -Hartree energ DENC   =    -44369.66090243
  -exchange      EXHF   =         0.00000000
  -V(xc)+E(xc)   XCENC  =      1130.50833125
  PAW double counting   =     10998.91041168   -11485.61342155
  entropy T*S    EENTRO =         0.00000000
  eigenvalues    EBANDS =     -5726.93837271
  atomic energy  EATOM  =     14592.26033195
  Solvation  Ediel_sol  =         0.00000000
  ---------------------------------------------------
  free energy    TOTEN  =      -349.58108108 eV

  energy without entropy =     -349.58108108  energy(sigma->0) =     -349.58108108


--------------------------------------------------------------------------------------------------------




--------------------------------------- Iteration      1(   6)  ---------------------------------------


    POTLOK:  cpu time    0.0391: real time    0.0410
    SETDIJ:  cpu time    0.0082: real time    0.0082
     EDDAV:  cpu time    5.3837: real time    5.6021
 BZINTS: Fermi energy: -1.855714;270.000000 electrons
         Band energy:***********;  BLOECHL correction:  0.000000
       DOS:  cpu time    0.0037: real time    0.0037
    CHARGE:  cpu time    0.0592: real time    0.0629
    MIXING:  cpu time    0.0017: real time    0.0017
    --------------------------------------------
      LOOP:  cpu time    5.4956: real time    5.7196

 eigenvalue-minimisations  :  5160
 total energy-change (2. order) : 0.9580781E+02  (-0.1027782E+02)
 number of electron     270.0000020 magnetization      -0.0361154
 augmentation part       24.8187842 magnetization      -0.0475010

 Broyden mixing:
  rms(total) = 0.53137E+01    rms(broyden)= 0.53135E+01
  rms(prec ) = 0.58521E+01
  weight for this iteration     100.00

 eigenvalues of (default mixing * dielectric matrix)
  average eigenvalue GAMMA=   2.1742
  2.1742

 Free energy of the ion-electron system (eV)
  ---------------------------------------------------
  alpha Z        PSCENC =       281.78432353
  Ewald energy   TEWEN  =     34229.16821719
  -Hartree energ DENC   =    -45199.14589053
  -exchange      EXHF   =         0.00000000
  -V(xc)+E(xc)   XCENC  =      1156.80186523
  PAW double counting   =     18818.88454131   -19313.98949039
  entropy T*S    EENTRO =         0.00000000
  eigenvalues    EBANDS =     -4819.53717404
  atomic energy  EATOM  =     14592.26033195
  Solvation  Ediel_sol  =         0.00000000
  ---------------------------------------------------
  free energy    TOTEN  =      -253.77327576 eV

  energy without entropy =     -253.77327576  energy(sigma->0) =     -253.77327576


--------------------------------------------------------------------------------------------------------




--------------------------------------- Iteration      1(   7)  ---------------------------------------


    POTLOK:  cpu time    0.0384: real time    0.0400
    SETDIJ:  cpu time    0.0081: real time    0.0081
     EDDAV:  cpu time    4.7745: real time    4.9664
 BZINTS: Fermi energy:  1.234434;270.000000 electrons
         Band energy:***********;  BLOECHL correction:  0.000000
       DOS:  cpu time    0.0038: real time    0.0038
    CHARGE:  cpu time    0.0594: real time    0.0617
    MIXING:  cpu time    0.0016: real time    0.0016
    --------------------------------------------
      LOOP:  cpu time    4.8857: real time    5.0815

 eigenvalue-minimisations  :  4320
 total energy-change (2. order) : 0.4522402E+02  (-0.1558179E+02)
 number of electron     270.0000024 magnetization      -0.0053283
 augmentation part       23.4337951 magnetization      -0.0022981

 Broyden mixing:
  rms(total) = 0.28813E+01    rms(broyden)= 0.28807E+01
  rms(prec ) = 0.29765E+01
  weight for this iteration     100.00

 eigenvalues of (default mixing * dielectric matrix)
  average eigenvalue GAMMA=   1.8475
  0.9892  2.7058

 Free energy of the ion-electron system (eV)
  ---------------------------------------------------
  alpha Z        PSCENC =       281.78432353
  Ewald energy   TEWEN  =     34229.16821719
  -Hartree energ DENC   =    -46265.53442072
  -exchange      EXHF   =         0.00000000
  -V(xc)+E(xc)   XCENC  =      1191.62691227
  PAW double counting   =     38396.03395898   -38915.15645085
  entropy T*S    EENTRO =         0.00000000
  eigenvalues    EBANDS =     -3718.73212831
  atomic energy  EATOM  =     14592.26033195
  Solvation  Ediel_sol  =         0.00000000
  ---------------------------------------------------
  free energy    TOTEN  =      -208.54925596 eV

  energy without entropy =     -208.54925596  energy(sigma->0) =     -208.54925596


--------------------------------------------------------------------------------------------------------




--------------------------------------- Iteration      1(   8)  ---------------------------------------


    POTLOK:  cpu time    0.0377: real time    0.0392
    SETDIJ:  cpu time    0.0082: real time    0.0082
     EDDAV:  cpu time    4.9785: real time    5.1949
 BZINTS: Fermi energy:  1.500125;270.000000 electrons
         Band energy:***********;  BLOECHL correction:  0.000000
       DOS:  cpu time    0.0035: real time    0.0035
    CHARGE:  cpu time    0.0582: real time    0.0596
    MIXING:  cpu time    0.0014: real time    0.0014
    --------------------------------------------
      LOOP:  cpu time    5.0875: real time    5.3067

 eigenvalue-minimisations  :  4632
 total energy-change (2. order) : 0.4237481E+00  (-0.2309686E+01)
 number of electron     270.0000025 magnetization       0.0172198
 augmentation part       23.0519266 magnetization       0.0215885

 Broyden mixing:
  rms(total) = 0.19413E+01    rms(broyden)= 0.19411E+01
  rms(prec ) = 0.19933E+01
  weight for this iteration     100.00

 eigenvalues of (default mixing * dielectric matrix)
  average eigenvalue GAMMA=   1.9901
  3.3507  1.8360  0.7837

 Free energy of the ion-electron system (eV)
  ---------------------------------------------------
  alpha Z        PSCENC =       281.78432353
  Ewald energy   TEWEN  =     34229.16821719
  -Hartree energ DENC   =    -46405.60722190
  -exchange      EXHF   =         0.00000000
  -V(xc)+E(xc)   XCENC  =      1197.91765508
  PAW double counting   =     48729.06796439   -49252.87254867
  entropy T*S    EENTRO =         0.00000000
  eigenvalues    EBANDS =     -3579.84422944
  atomic energy  EATOM  =     14592.26033195
  Solvation  Ediel_sol  =         0.00000000
  ---------------------------------------------------
  free energy    TOTEN  =      -208.12550788 eV

  energy without entropy =     -208.12550788  energy(sigma->0) =     -208.12550788


--------------------------------------------------------------------------------------------------------




--------------------------------------- Iteration      1(   9)  ---------------------------------------


    POTLOK:  cpu time    0.0381: real time    0.0396
    SETDIJ:  cpu time    0.0077: real time    0.0082
     EDDAV:  cpu time    4.9367: real time    5.0387
 BZINTS: Fermi energy:  1.126282;270.000000 electrons
         Band energy:***********;  BLOECHL correction:  0.000000
       DOS:  cpu time    0.0034: real time    0.0034
    CHARGE:  cpu time    0.0591: real time    0.0598
    MIXING:  cpu time    0.0013: real time    0.0013
    --------------------------------------------
      LOOP:  cpu time    5.0463: real time    5.1509

 eigenvalue-minimisations  :  4544
 total energy-change (2. order) : 0.7035189E+00  (-0.6792766E+00)
 number of electron     270.0000024 magnetization       0.0033468
 augmentation part       23.1940872 magnetization       0.0012169

 Broyden mixing:
  rms(total) = 0.70348E+00    rms(broyden)= 0.70336E+00
  rms(prec ) = 0.74575E+00
  weight for this iteration     100.00

 eigenvalues of (default mixing * dielectric matrix)
  average eigenvalue GAMMA=   1.9466
  3.9922  2.0800  0.9232  0.7911

 Free energy of the ion-electron system (eV)
  ---------------------------------------------------
  alpha Z        PSCENC =       281.78432353
  Ewald energy   TEWEN  =     34229.16821719
  -Hartree energ DENC   =    -46230.10564142
  -exchange      EXHF   =         0.00000000
  -V(xc)+E(xc)   XCENC  =      1194.75329380
  PAW double counting   =     60965.48802101   -61492.10031957
  entropy T*S    EENTRO =         0.00000000
  eigenvalues    EBANDS =     -3748.67021548
  atomic energy  EATOM  =     14592.26033195
  Solvation  Ediel_sol  =         0.00000000
  ---------------------------------------------------
  free energy    TOTEN  =      -207.42198900 eV

  energy without entropy =     -207.42198900  energy(sigma->0) =     -207.42198900


--------------------------------------------------------------------------------------------------------




--------------------------------------- Iteration      1(  10)  ---------------------------------------


    POTLOK:  cpu time    0.0378: real time    0.0396
    SETDIJ:  cpu time    0.0080: real time    0.0083
     EDDAV:  cpu time    4.5640: real time    4.7386
 BZINTS: Fermi energy:  1.095024;270.000000 electrons
         Band energy:***********;  BLOECHL correction:  0.000000
       DOS:  cpu time    0.0035: real time    0.0035
    CHARGE:  cpu time    0.0585: real time    0.0589
    MIXING:  cpu time    0.0014: real time    0.0014
    --------------------------------------------
      LOOP:  cpu time    4.6732: real time    4.8504

 eigenvalue-minimisations  :  4128
 total energy-change (2. order) : 0.4630584E-01  (-0.1661226E+00)
 number of electron     270.0000023 magnetization      -0.0005991
 augmentation part       23.2072852 magnetization      -0.0032749

 Broyden mixing:
  rms(total) = 0.25157E+00    rms(broyden)= 0.25147E+00
  rms(prec ) = 0.28192E+00
  weight for this iteration     100.00

 eigenvalues of (default mixing * dielectric matrix)
  average eigenvalue GAMMA=   1.7607
  3.9954  2.0939  1.0339  0.8802  0.8001

 Free energy of the ion-electron system (eV)
  ---------------------------------------------------
  alpha Z        PSCENC =       281.78432353
  Ewald energy   TEWEN  =     34229.16821719
  -Hartree energ DENC   =    -46212.54218365
  -exchange      EXHF   =         0.00000000
  -V(xc)+E(xc)   XCENC  =      1194.81426826
  PAW double counting   =     66773.88495323   -67301.85793180
  entropy T*S    EENTRO =         0.00000000
  eigenvalues    EBANDS =     -3764.88766185
  atomic energy  EATOM  =     14592.26033195
  Solvation  Ediel_sol  =         0.00000000
  ---------------------------------------------------
  free energy    TOTEN  =      -207.37568315 eV

  energy without entropy =     -207.37568315  energy(sigma->0) =     -207.37568315


--------------------------------------------------------------------------------------------------------




--------------------------------------- Iteration      1(  11)  ---------------------------------------


    POTLOK:  cpu time    0.0746: real time    0.0769
    SETDIJ:  cpu time    0.0082: real time    0.0083
     EDDAV:  cpu time    5.2528: real time    5.4281
 BZINTS: Fermi energy:  1.135034;270.000000 electrons
         Band energy:***********;  BLOECHL correction:  0.000000
       DOS:  cpu time    0.0036: real time    0.0036
    CHARGE:  cpu time    0.0582: real time    0.0590
    MIXING:  cpu time    0.0015: real time    0.0015
    --------------------------------------------
      LOOP:  cpu time    5.3990: real time    5.5774

 eigenvalue-minimisations  :  4240
 total energy-change (2. order) : 0.5794142E-01  (-0.3088211E-01)
 number of electron     270.0000024 magnetization      -0.0003369
 augmentation part       23.1998539 magnetization      -0.0008903

 Broyden mixing:
  rms(total) = 0.16225E+00    rms(broyden)= 0.16224E+00
  rms(prec ) = 0.17757E+00
  weight for this iteration     100.00

 eigenvalues of (default mixing * dielectric matrix)
  average eigenvalue GAMMA=   1.7512
  3.8503  2.1736  1.9167  0.9323  0.9323  0.7022

 Free energy of the ion-electron system (eV)
  ---------------------------------------------------
  alpha Z        PSCENC =       281.78432353
  Ewald energy   TEWEN  =     34229.16821719
  -Hartree energ DENC   =    -46220.51722019
  -exchange      EXHF   =         0.00000000
  -V(xc)+E(xc)   XCENC  =      1194.89953531
  PAW double counting   =     67393.88910336   -67921.70108716
  entropy T*S    EENTRO =         0.00000000
  eigenvalues    EBANDS =     -3757.10094573
  atomic energy  EATOM  =     14592.26033195
  Solvation  Ediel_sol  =         0.00000000
  ---------------------------------------------------
  free energy    TOTEN  =      -207.31774174 eV

  energy without entropy =     -207.31774174  energy(sigma->0) =     -207.31774174


--------------------------------------------------------------------------------------------------------




--------------------------------------- Iteration      1(  12)  ---------------------------------------


    POTLOK:  cpu time    0.0383: real time    0.0400
    SETDIJ:  cpu time    0.0082: real time    0.0082
     EDDAV:  cpu time    5.5311: real time    5.6805
 BZINTS: Fermi energy:  1.120030;270.000000 electrons
         Band energy:***********;  BLOECHL correction:  0.000000
       DOS:  cpu time    0.0037: real time    0.0037
    CHARGE:  cpu time    0.0575: real time    0.0578
    MIXING:  cpu time    0.0016: real time    0.0016
    --------------------------------------------
      LOOP:  cpu time    5.6403: real time    5.7918

 eigenvalue-minimisations  :  5048
 total energy-change (2. order) : 0.2849305E-01  (-0.1425859E-01)
 number of electron     270.0000024 magnetization       0.0000145
 augmentation part       23.1890037 magnetization       0.0002422

 Broyden mixing:
  rms(total) = 0.61248E-01    rms(broyden)= 0.61220E-01
  rms(prec ) = 0.65268E-01
  weight for this iteration     100.00

 eigenvalues of (default mixing * dielectric matrix)
  average eigenvalue GAMMA=   1.7329
  3.7683  2.7644  1.8694  1.0554  1.0554  0.9057  0.7117

 Free energy of the ion-electron system (eV)
  ---------------------------------------------------
  alpha Z        PSCENC =       281.78432353
  Ewald energy   TEWEN  =     34229.16821719
  -Hartree energ DENC   =    -46219.33056510
  -exchange      EXHF   =         0.00000000
  -V(xc)+E(xc)   XCENC  =      1194.64652000
  PAW double counting   =     67400.89337314   -67928.24347549
  entropy T*S    EENTRO =         0.00000000
  eigenvalues    EBANDS =     -3758.46797389
  atomic energy  EATOM  =     14592.26033195
  Solvation  Ediel_sol  =         0.00000000
  ---------------------------------------------------
  free energy    TOTEN  =      -207.28924869 eV

  energy without entropy =     -207.28924869  energy(sigma->0) =     -207.28924869


--------------------------------------------------------------------------------------------------------




--------------------------------------- Iteration      1(  13)  ---------------------------------------


    POTLOK:  cpu time    0.0386: real time    0.0398
    SETDIJ:  cpu time    0.0080: real time    0.0081
     EDDAV:  cpu time    4.8909: real time    5.0038
 BZINTS: Fermi energy:  1.115029;270.000000 electrons
         Band energy:***********;  BLOECHL correction:  0.000000
       DOS:  cpu time    0.0036: real time    0.0036
    CHARGE:  cpu time    0.0567: real time    0.0574
    MIXING:  cpu time    0.0016: real time    0.0016
    --------------------------------------------
      LOOP:  cpu time    4.9995: real time    5.1143

 eigenvalue-minimisations  :  4408
 total energy-change (2. order) : 0.5415503E-03  (-0.2082441E-02)
 number of electron     270.0000024 magnetization      -0.0001280
 augmentation part       23.1916809 magnetization      -0.0000509

 Broyden mixing:
  rms(total) = 0.28583E-01    rms(broyden)= 0.28575E-01
  rms(prec ) = 0.30999E-01
  weight for this iteration     100.00

 eigenvalues of (default mixing * dielectric matrix)
  average eigenvalue GAMMA=   1.7041
  3.7754  2.9579  1.9140  1.2358  1.2358  0.7252  0.8943  0.8943

 Free energy of the ion-electron system (eV)
  ---------------------------------------------------
  alpha Z        PSCENC =       281.78432353
  Ewald energy   TEWEN  =     34229.16821719
  -Hartree energ DENC   =    -46217.86902408
  -exchange      EXHF   =         0.00000000
  -V(xc)+E(xc)   XCENC  =      1194.52471393
  PAW double counting   =     67562.71635628   -68090.07177779
  entropy T*S    EENTRO =         0.00000000
  eigenvalues    EBANDS =     -3759.80184814
  atomic energy  EATOM  =     14592.26033195
  Solvation  Ediel_sol  =         0.00000000
  ---------------------------------------------------
  free energy    TOTEN  =      -207.28870714 eV

  energy without entropy =     -207.28870714  energy(sigma->0) =     -207.28870714


--------------------------------------------------------------------------------------------------------




--------------------------------------- Iteration      1(  14)  ---------------------------------------


    POTLOK:  cpu time    0.0378: real time    0.0394
    SETDIJ:  cpu time    0.0078: real time    0.0081
     EDDAV:  cpu time    5.4863: real time    5.6708
 BZINTS: Fermi energy:  1.125031;270.000000 electrons
         Band energy:***********;  BLOECHL correction:  0.000000
       DOS:  cpu time    0.0035: real time    0.0035
    CHARGE:  cpu time    0.0568: real time    0.0571
    MIXING:  cpu time    0.0017: real time    0.0017
    --------------------------------------------
      LOOP:  cpu time    5.5941: real time    5.7807

 eigenvalue-minimisations  :  4984
 total energy-change (2. order) : 0.2656477E-03  (-0.3857690E-03)
 number of electron     270.0000024 magnetization      -0.0000049
 augmentation part       23.1918354 magnetization       0.0000418

 Broyden mixing:
  rms(total) = 0.15261E-01    rms(broyden)= 0.15258E-01
  rms(prec ) = 0.16037E-01
  weight for this iteration     100.00

 eigenvalues of (default mixing * dielectric matrix)
  average eigenvalue GAMMA=   1.7201
  3.6590  3.1183  2.1204  1.6442  1.4255  0.7268  0.9846  0.9010  0.9010

 Free energy of the ion-electron system (eV)
  ---------------------------------------------------
  alpha Z        PSCENC =       281.78432353
  Ewald energy   TEWEN  =     34229.16821719
  -Hartree energ DENC   =    -46220.53188212
  -exchange      EXHF   =         0.00000000
  -V(xc)+E(xc)   XCENC  =      1194.55815919
  PAW double counting   =     67653.15847604   -68180.55507065
  entropy T*S    EENTRO =         0.00000000
  eigenvalues    EBANDS =     -3757.13099662
  atomic energy  EATOM  =     14592.26033195
  Solvation  Ediel_sol  =         0.00000000
  ---------------------------------------------------
  free energy    TOTEN  =      -207.28844149 eV

  energy without entropy =     -207.28844149  energy(sigma->0) =     -207.28844149


--------------------------------------------------------------------------------------------------------




--------------------------------------- Iteration      1(  15)  ---------------------------------------


    POTLOK:  cpu time    0.0377: real time    0.0392
    SETDIJ:  cpu time    0.0081: real time    0.0081
     EDDAV:  cpu time    4.6266: real time    4.8084
 BZINTS: Fermi energy:  1.131283;270.000000 electrons
         Band energy:***********;  BLOECHL correction:  0.000000
       DOS:  cpu time    0.0033: real time    0.0033
    --------------------------------------------
      LOOP:  cpu time    4.6756: real time    4.8590

 eigenvalue-minimisations  :  3992
 total energy-change (2. order) :-0.9600524E-05  (-0.9038771E-04)
 number of electron     270.0000024 magnetization      -0.0000049
 augmentation part       23.1918354 magnetization       0.0000418

 Free energy of the ion-electron system (eV)
  ---------------------------------------------------
  alpha Z        PSCENC =       281.78432353
  Ewald energy   TEWEN  =     34229.16821719
  -Hartree energ DENC   =    -46222.35185533
  -exchange      EXHF   =         0.00000000
  -V(xc)+E(xc)   XCENC  =      1194.58722451
  PAW double counting   =     67646.32645091   -68173.71745273
  entropy T*S    EENTRO =         0.00000000
  eigenvalues    EBANDS =     -3755.34569112
  atomic energy  EATOM  =     14592.26033195
  Solvation  Ediel_sol  =         0.00000000
  ---------------------------------------------------
  free energy    TOTEN  =      -207.28845109 eV

  energy without entropy =     -207.28845109  energy(sigma->0) =     -207.28845109


--------------------------------------------------------------------------------------------------------




 average (electrostatic) potential at core
  the test charge radii are     0.6991  0.7089  0.9911
  (the norm of the test charge is              1.0000)
       1 -58.6062       2 -59.0753       3 -59.0445       4 -58.8543       5 -58.7707
       6 -58.9108       7 -58.7167       8 -58.4773       9 -58.3909      10 -59.9079
      11 -59.0944      12 -59.9074      13 -58.5562      14 -58.6165      15 -58.2960
      16 -58.9845      17 -58.8449      18 -58.7768      19 -58.8635      20 -58.4928
      21 -58.4730      22 -58.9829      23 -58.7838      24 -59.0668      25 -72.8898
      26 -70.1810      27 -70.1977      28 -70.4360      29 -70.5047      30 -70.3960
      31 -70.2406      32 -74.2000      33 -72.2240      34 -70.8507      35 -72.4242
      36 -70.5345      37 -70.5157      38 -70.9474      39 -72.3260      40 -74.3687
      41 -72.5614      42 -70.5150      43 -70.3592      44 -70.5966      45 -70.7609
      46 -70.2946      47 -70.2620      48 -74.0849      49 -72.4549      50 -70.7286
      51 -70.6566      52 -70.1292      53 -70.0555      54 -70.5477      55 -70.6516
      56 -74.4576      57 -78.4622
 
 
 
 E-fermi :   1.1313     XC(G=0):  -4.3320     alpha+bet : -4.3960


 spin component 1

 k-point     1 :       0.0000    0.0000    0.0000
  band No.  band energies     occupation 
      1     -31.2915      1.00000
      2     -31.1371      1.00000
      3     -30.8275      1.00000
      4     -30.7440      1.00000
      5     -29.1634      1.00000
      6     -28.9330      1.00000
      7     -28.8129      1.00000
      8     -27.9482      1.00000
      9     -27.7293      1.00000
     10     -27.6257      1.00000
     11     -27.5685      1.00000
     12     -27.3711      1.00000
     13     -27.3049      1.00000
     14     -26.0135      1.00000
     15     -25.7583      1.00000
     16     -25.6085      1.00000
     17     -24.8031      1.00000
     18     -24.5348      1.00000
     19     -23.9875      1.00000
     20     -23.9034      1.00000
     21     -23.6988      1.00000
     22     -23.6480      1.00000
     23     -23.5839      1.00000
     24     -23.3914      1.00000
     25     -23.2981      1.00000
     26     -23.2223      1.00000
     27     -22.9597      1.00000
     28     -22.8722      1.00000
     29     -22.8603      1.00000
     30     -22.7229      1.00000
     31     -22.6833      1.00000
     32     -22.5440      1.00000
     33     -22.1904      1.00000
     34     -22.0118      1.00000
     35     -21.9407      1.00000
     36     -21.7245      1.00000
     37     -20.8304      1.00000
     38     -19.3983      1.00000
     39     -19.2705      1.00000
     40     -19.0671      1.00000
     41     -18.7680      1.00000
     42     -18.6296      1.00000
     43     -18.3919      1.00000
     44     -18.3553      1.00000
     45     -18.2897      1.00000
     46     -16.8203      1.00000
     47     -16.6490      1.00000
     48     -16.5522      1.00000
     49     -16.1744      1.00000
     50     -16.1112      1.00000
     51     -16.0002      1.00000
     52     -15.7807      1.00000
     53     -15.7487      1.00000
     54     -15.6709      1.00000
     55     -15.6392      1.00000
     56     -15.4611      1.00000
     57     -15.2928      1.00000
     58     -15.1316      1.00000
     59     -15.0238      1.00000
     60     -14.9136      1.00000
     61     -14.6529      1.00000
     62     -14.5974      1.00000
     63     -14.4374      1.00000
     64     -14.2731      1.00000
     65     -14.1057      1.00000
     66     -14.0250      1.00000
     67     -13.5657      1.00000
     68     -13.1177      1.00000
     69     -12.7193      1.00000
     70     -12.4619      1.00000
     71     -12.4048      1.00000
     72     -12.0538      1.00000
     73     -11.9897      1.00000
     74     -11.9130      1.00000
     75     -11.7139      1.00000
     76     -11.6115      1.00000
     77     -11.3152      1.00000
     78     -11.2152      1.00000
     79     -11.1084      1.00000
     80     -10.9873      1.00000
     81     -10.9517      1.00000
     82     -10.7581      1.00000
     83     -10.7088      1.00000
     84     -10.5926      1.00000
     85     -10.2431      1.00000
     86      -9.8519      1.00000
     87      -9.5954      1.00000
     88      -9.1404      1.00000
     89      -8.9996      1.00000
     90      -8.8190      1.00000
     91      -8.5214      1.00000
     92      -8.4205      1.00000
     93      -8.1913      1.00000
     94      -8.0546      1.00000
     95      -7.5918      1.00000
     96      -7.4552      1.00000
     97      -7.3224      1.00000
     98      -7.2503      1.00000
     99      -7.1591      1.00000
    100      -7.0996      1.00000
    101      -6.9991      1.00000
    102      -6.8473      1.00000
    103      -6.6243      1.00000
    104      -6.4551      1.00000
    105      -6.0562      1.00000
    106      -5.6151      1.00000
    107      -5.5328      1.00000
    108      -5.2388      1.00000
    109      -4.8608      1.00000
    110      -4.6098      1.00000
    111      -4.4273      1.00000
    112      -4.1998      1.00000
    113      -4.0915      1.00000
    114      -4.0778      1.00000
    115      -3.9857      1.00000
    116      -3.9166      1.00000
    117      -3.7685      1.00000
    118      -3.7221      1.00000
    119      -3.5954      1.00000
    120      -3.4842      1.00000
    121      -3.2691      1.00000
    122      -3.1458      1.00000
    123      -2.6836      1.00000
    124      -2.5314      1.00000
    125      -2.2475      1.00000
    126      -1.9916      1.00000
    127      -1.7885      1.00000
    128      -1.7123      1.00000
    129      -1.6333      1.00000
    130      -1.2824      1.00000
    131      -1.1877      1.00000
    132      -0.7566      1.00000
    133      -0.4829      1.00000
    134      -0.3661      1.00000
    135       0.8894      1.00000
    136       1.5733      0.00000
    137       1.6947      0.00000
    138       1.7332      0.00000
    139       2.1968      0.00000
    140       2.4372      0.00000
    141       2.5393      0.00000
    142       2.7158      0.00000
    143       2.8351      0.00000
    144       2.9548      0.00000
    145       3.1904      0.00000
    146       3.2522      0.00000
    147       3.3932      0.00000
    148       3.4352      0.00000
    149       3.7217      0.00000
    150       3.9064      0.00000
    151       4.0201      0.00000
    152       4.1255      0.00000
    153       4.2226      0.00000
    154       4.3436      0.00000
    155       4.4735      0.00000
    156       4.5140      0.00000
    157       4.5700      0.00000
    158       4.6384      0.00000
    159       4.7899      0.00000
    160       5.0458      0.00000
    161       5.1048      0.00000
    162       5.1955      0.00000
    163       5.2257      0.00000
    164       5.3279      0.00000
    165       5.4874      0.00000
    166       5.5872      0.00000
    167       5.6470      0.00000
    168       5.8688      0.00000

 k-point     2 :       0.3333    0.0000    0.0000
  band No.  band energies     occupation 
      1     -31.2625      1.00000
      2     -31.1662      1.00000
      3     -30.8208      1.00000
      4     -30.7680      1.00000
      5     -29.0860      1.00000
      6     -28.9110      1.00000
      7     -28.6985      1.00000
      8     -28.2727      1.00000
      9     -27.7918      1.00000
     10     -27.7282      1.00000
     11     -27.5908      1.00000
     12     -27.5141      1.00000
     13     -26.6604      1.00000
     14     -26.1003      1.00000
     15     -25.7179      1.00000
     16     -25.6116      1.00000
     17     -24.8380      1.00000
     18     -24.5822      1.00000
     19     -24.0125      1.00000
     20     -23.8751      1.00000
     21     -23.6808      1.00000
     22     -23.6363      1.00000
     23     -23.5729      1.00000
     24     -23.5146      1.00000
     25     -23.4535      1.00000
     26     -23.4114      1.00000
     27     -23.2110      1.00000
     28     -22.9446      1.00000
     29     -22.8252      1.00000
     30     -22.7707      1.00000
     31     -22.6953      1.00000
     32     -22.2452      1.00000
     33     -21.8851      1.00000
     34     -21.7765      1.00000
     35     -21.6555      1.00000
     36     -21.5428      1.00000
     37     -21.0526      1.00000
     38     -19.6441      1.00000
     39     -19.5353      1.00000
     40     -19.1666      1.00000
     41     -18.8496      1.00000
     42     -18.6314      1.00000
     43     -18.4537      1.00000
     44     -18.3928      1.00000
     45     -18.3365      1.00000
     46     -16.6228      1.00000
     47     -16.5431      1.00000
     48     -16.2868      1.00000
     49     -16.1088      1.00000
     50     -15.9778      1.00000
     51     -15.8671      1.00000
     52     -15.7367      1.00000
     53     -15.7104      1.00000
     54     -15.6129      1.00000
     55     -15.4864      1.00000
     56     -15.4398      1.00000
     57     -15.3236      1.00000
     58     -15.2127      1.00000
     59     -15.1061      1.00000
     60     -14.9657      1.00000
     61     -14.8317      1.00000
     62     -14.5897      1.00000
     63     -14.5193      1.00000
     64     -14.3536      1.00000
     65     -14.0484      1.00000
     66     -13.9831      1.00000
     67     -13.4868      1.00000
     68     -13.2873      1.00000
     69     -13.0491      1.00000
     70     -12.9046      1.00000
     71     -12.4344      1.00000
     72     -12.3067      1.00000
     73     -11.9491      1.00000
     74     -11.7252      1.00000
     75     -11.6382      1.00000
     76     -11.5159      1.00000
     77     -11.2567      1.00000
     78     -11.1979      1.00000
     79     -11.0827      1.00000
     80     -10.9761      1.00000
     81     -10.9230      1.00000
     82     -10.8741      1.00000
     83     -10.3914      1.00000
     84     -10.2372      1.00000
     85      -9.9884      1.00000
     86      -9.7930      1.00000
     87      -9.5754      1.00000
     88      -9.1962      1.00000
     89      -9.0586      1.00000
     90      -8.8255      1.00000
     91      -8.7420      1.00000
     92      -8.4670      1.00000
     93      -8.3240      1.00000
     94      -8.1751      1.00000
     95      -7.6163      1.00000
     96      -7.4787      1.00000
     97      -7.3376      1.00000
     98      -7.1964      1.00000
     99      -7.1555      1.00000
    100      -7.0345      1.00000
    101      -6.9490      1.00000
    102      -6.8101      1.00000
    103      -6.6769      1.00000
    104      -6.4676      1.00000
    105      -6.1891      1.00000
    106      -5.5859      1.00000
    107      -5.5359      1.00000
    108      -5.1626      1.00000
    109      -4.7895      1.00000
    110      -4.5589      1.00000
    111      -4.4653      1.00000
    112      -4.2463      1.00000
    113      -4.1741      1.00000
    114      -4.0867      1.00000
    115      -3.9671      1.00000
    116      -3.8793      1.00000
    117      -3.7485      1.00000
    118      -3.7069      1.00000
    119      -3.5831      1.00000
    120      -3.4470      1.00000
    121      -3.2861      1.00000
    122      -3.2493      1.00000
    123      -2.5678      1.00000
    124      -2.5198      1.00000
    125      -2.2590      1.00000
    126      -2.0869      1.00000
    127      -1.8099      1.00000
    128      -1.6966      1.00000
    129      -1.4874      1.00000
    130      -1.3174      1.00000
    131      -1.1790      1.00000
    132      -0.9404      1.00000
    133      -0.5436      1.00000
    134      -0.3426      1.00000
    135       1.0842      1.00000
    136       1.5380      0.00000
    137       1.8482      0.00000
    138       1.9861      0.00000
    139       2.2661      0.00000
    140       2.4578      0.00000
    141       2.5077      0.00000
    142       2.6638      0.00000
    143       2.8845      0.00000
    144       2.9570      0.00000
    145       2.9864      0.00000
    146       3.1826      0.00000
    147       3.3655      0.00000
    148       3.4460      0.00000
    149       3.7149      0.00000
    150       3.8176      0.00000
    151       4.0164      0.00000
    152       4.0862      0.00000
    153       4.2030      0.00000
    154       4.3015      0.00000
    155       4.3579      0.00000
    156       4.4508      0.00000
    157       4.5492      0.00000
    158       4.6487      0.00000
    159       4.6984      0.00000
    160       4.9213      0.00000
    161       5.1408      0.00000
    162       5.2281      0.00000
    163       5.3988      0.00000
    164       5.4531      0.00000
    165       5.5616      0.00000
    166       5.6199      0.00000
    167       5.7402      0.00000
    168       6.0044      0.00000

 k-point     3 :       0.0000    0.3333    0.0000
  band No.  band energies     occupation 
      1     -31.2788      1.00000
      2     -31.1366      1.00000
      3     -30.8566      1.00000
      4     -30.7448      1.00000
      5     -29.1429      1.00000
      6     -28.8066      1.00000
      7     -28.7467      1.00000
      8     -28.1676      1.00000
      9     -27.9366      1.00000
     10     -27.7511      1.00000
     11     -27.6647      1.00000
     12     -27.3742      1.00000
     13     -26.6579      1.00000
     14     -26.0334      1.00000
     15     -25.8811      1.00000
     16     -25.5391      1.00000
     17     -24.7920      1.00000
     18     -24.5811      1.00000
     19     -24.0320      1.00000
     20     -23.8684      1.00000
     21     -23.6870      1.00000
     22     -23.6180      1.00000
     23     -23.5883      1.00000
     24     -23.5167      1.00000
     25     -23.4846      1.00000
     26     -23.4187      1.00000
     27     -23.1931      1.00000
     28     -22.9553      1.00000
     29     -22.8912      1.00000
     30     -22.7022      1.00000
     31     -22.6309      1.00000
     32     -22.3072      1.00000
     33     -21.8369      1.00000
     34     -21.7906      1.00000
     35     -21.6382      1.00000
     36     -21.5977      1.00000
     37     -21.0371      1.00000
     38     -19.6743      1.00000
     39     -19.5273      1.00000
     40     -19.1931      1.00000
     41     -18.7304      1.00000
     42     -18.5857      1.00000
     43     -18.5009      1.00000
     44     -18.3962      1.00000
     45     -18.3515      1.00000
     46     -16.7655      1.00000
     47     -16.4520      1.00000
     48     -16.3535      1.00000
     49     -16.0786      1.00000
     50     -15.9504      1.00000
     51     -15.9010      1.00000
     52     -15.7307      1.00000
     53     -15.7129      1.00000
     54     -15.6395      1.00000
     55     -15.5609      1.00000
     56     -15.4648      1.00000
     57     -15.3431      1.00000
     58     -15.1858      1.00000
     59     -15.1637      1.00000
     60     -14.9022      1.00000
     61     -14.7975      1.00000
     62     -14.4664      1.00000
     63     -14.3273      1.00000
     64     -14.2246      1.00000
     65     -14.1607      1.00000
     66     -13.9925      1.00000
     67     -13.6520      1.00000
     68     -13.3785      1.00000
     69     -12.9617      1.00000
     70     -12.7684      1.00000
     71     -12.6858      1.00000
     72     -12.1071      1.00000
     73     -11.9619      1.00000
     74     -11.8221      1.00000
     75     -11.6178      1.00000
     76     -11.4951      1.00000
     77     -11.3357      1.00000
     78     -11.2204      1.00000
     79     -11.0822      1.00000
     80     -11.0207      1.00000
     81     -10.9632      1.00000
     82     -10.8172      1.00000
     83     -10.3305      1.00000
     84     -10.2583      1.00000
     85     -10.0156      1.00000
     86      -9.7168      1.00000
     87      -9.5799      1.00000
     88      -9.2287      1.00000
     89      -9.0264      1.00000
     90      -8.8917      1.00000
     91      -8.6764      1.00000
     92      -8.5711      1.00000
     93      -8.3148      1.00000
     94      -8.0777      1.00000
     95      -7.5706      1.00000
     96      -7.3756      1.00000
     97      -7.3244      1.00000
     98      -7.2194      1.00000
     99      -7.1729      1.00000
    100      -7.1020      1.00000
    101      -6.9945      1.00000
[...]
   -.108E+02 0.464E+02 0.187E+03   0.185E+02 -.464E+02 -.186E+03   0.361E+01 0.143E+01 0.722E+00   -.235E-01 -.766E-02 -.267E-02
   0.102E+03 -.840E+02 -.126E+03   -.106E+03 0.846E+02 0.128E+03   0.424E+01 -.217E+01 -.633E+00   0.206E-01 -.236E-01 -.113E-02
   -.216E+02 0.811E+02 0.292E+03   0.210E+02 -.824E+02 -.296E+03   -.295E+00 0.457E+01 0.308E+01   -.436E-02 -.591E-02 0.117E-02
   -.953E+02 -.282E+02 0.141E+03   0.987E+02 0.288E+02 -.143E+03   -.416E+01 -.216E+01 0.181E+01   -.422E-02 -.325E-02 0.338E-02
   0.609E+02 -.341E+02 -.456E+02   -.598E+02 0.389E+02 0.496E+02   0.102E+01 0.293E+01 0.854E+00   0.128E-01 -.368E-02 -.316E-02
   0.309E+02 -.289E+02 -.713E+02   -.351E+02 0.244E+02 0.717E+02   -.330E+01 -.244E+01 0.732E+00   0.143E-01 -.102E-01 0.113E-02
   -.459E+01 -.741E+01 -.861E+02   0.892E+01 0.238E+01 0.878E+02   0.379E+01 -.170E+01 0.416E+00   0.149E-01 -.380E-02 -.160E-02
   -.369E+02 0.238E+02 -.106E+03   0.338E+02 -.240E+02 0.108E+03   0.119E+01 -.207E+01 -.165E+01   -.603E-02 0.122E-01 0.524E-02
   -.488E+01 0.320E+02 0.678E+02   0.503E+01 -.369E+02 -.693E+02   0.113E+00 0.447E+01 -.550E+00   -.588E-02 0.780E-02 0.102E-01
   0.483E+02 0.208E+02 -.932E+02   -.453E+02 -.214E+02 0.971E+02   -.126E+01 -.268E+01 -.103E+01   -.775E-02 -.237E-02 -.687E-02
   -.517E+01 -.178E+02 -.251E+02   0.600E+01 0.212E+02 0.218E+02   -.368E+00 0.446E+01 -.959E+00   0.164E-01 -.114E-01 -.499E-02
   0.492E+02 0.390E+02 0.282E+03   -.541E+02 -.414E+02 -.283E+03   -.396E+01 -.148E+01 -.134E+01   0.275E-01 -.102E-01 0.434E-02
   -.114E+02 0.271E+02 0.126E+03   0.167E+02 -.323E+02 -.127E+03   0.393E+01 -.125E+01 -.521E+00   0.150E-01 -.169E-01 -.383E-02
   0.986E+02 -.269E+02 0.963E+02   -.102E+03 0.271E+02 -.980E+02   0.421E+01 -.227E+01 0.951E+00   -.352E-02 0.549E-02 0.201E-02
   0.611E+01 0.114E+03 0.313E+03   -.355E+01 -.115E+03 -.318E+03   -.423E+00 0.428E+01 0.269E+01   0.359E-02 0.130E-02 0.864E-02
   -.969E+02 -.881E+02 -.143E+03   0.101E+03 0.893E+02 0.146E+03   -.412E+01 -.204E+01 -.785E+00   -.123E-01 -.131E-01 -.346E-02
   -.527E+02 -.316E+02 -.204E+03   0.494E+02 0.380E+02 0.208E+03   -.443E+00 0.296E+01 0.765E+00   -.149E-01 0.195E-01 0.321E-02
   0.846E+01 -.944E+01 -.156E+03   -.140E+02 0.454E+01 0.161E+03   -.384E+01 -.160E+01 0.601E+00   -.151E-01 0.905E-02 -.932E-03
   -.338E+02 -.229E+02 -.129E+03   0.393E+02 0.181E+02 0.131E+03   0.305E+01 -.256E+01 0.152E+01   -.136E-01 0.463E-02 0.318E-02
   0.111E+03 -.102E+03 0.203E+03   -.111E+03 0.108E+03 -.204E+03   0.388E+01 -.345E+01 0.608E+00   0.253E-01 -.124E-01 0.449E-02
   -.157E+02 0.654E+02 -.275E+03   0.158E+02 -.695E+02 0.280E+03   -.111E+00 0.475E+01 -.211E+01   0.283E-02 0.115E-01 -.801E-02
   -.127E+03 -.378E+02 -.879E+02   0.129E+03 0.397E+02 0.906E+02   -.455E+01 -.171E+01 -.173E+01   -.915E-02 0.463E-02 0.172E-02
   -.205E+02 0.560E+02 0.247E+03   0.218E+02 -.558E+02 -.253E+03   -.320E+00 0.195E+01 0.386E+01   -.350E-01 -.766E-02 0.207E-02
   -.283E+03 -.440E+02 0.326E+03   0.342E+03 0.760E+02 -.352E+03   -.336E+02 -.169E+02 0.140E+02   -.598E-02 0.385E-02 0.394E-02
   0.227E+03 -.223E+03 -.344E+03   -.285E+03 0.255E+03 0.370E+03   0.324E+02 -.177E+02 -.107E+02   0.178E-01 -.224E-01 -.117E-02
   0.855E+01 0.249E+03 0.575E+03   -.365E+01 -.304E+03 -.621E+03   -.106E+01 0.303E+02 0.227E+02   0.719E-02 -.258E-01 -.117E-01
   -.524E+02 0.203E+03 0.606E+03   0.502E+02 -.252E+03 -.659E+03   0.105E+01 0.294E+02 0.269E+02   -.135E-01 -.223E-01 -.746E-02
   0.282E+03 -.141E+03 -.163E+03   -.339E+03 0.181E+03 0.167E+03   0.313E+02 -.195E+02 -.656E-01   0.181E-01 -.232E-01 -.151E-02
   -.211E+03 -.117E+03 0.366E+03   0.268E+03 0.136E+03 -.407E+03   -.318E+02 -.114E+02 0.203E+02   0.155E-01 -.783E-02 0.152E-02
   -.638E+01 -.314E+01 -.351E+02   0.708E+01 0.258E+01 0.375E+02   -.229E+00 0.323E+00 -.108E+01   -.212E-02 0.870E-02 -.404E-02
   0.236E+02 -.326E+02 -.141E+03   -.236E+02 0.342E+02 0.150E+03   0.370E+00 -.827E+00 -.433E+01   0.251E-01 -.725E-02 0.253E-04
   0.208E+00 -.857E+02 -.437E+03   0.393E+02 0.113E+03 0.487E+03   -.236E+02 -.151E+02 -.251E+02   0.127E-01 0.900E-02 -.659E-02
   0.719E+01 0.988E+02 -.109E+03   -.457E+02 -.935E+02 0.129E+03   0.198E+02 -.396E+01 -.109E+02   -.337E-01 0.151E-01 0.122E-01
   -.229E+02 0.163E+03 0.177E+03   0.287E+02 -.227E+03 -.200E+03   -.185E+01 0.348E+02 0.966E+01   -.197E-01 0.111E-01 0.154E-01
   -.173E+01 0.158E+03 0.199E+03   -.247E+01 -.222E+03 -.221E+03   0.120E+01 0.348E+02 0.976E+01   0.239E-02 -.314E-02 0.144E-01
   0.568E+02 -.837E+02 -.481E+03   -.105E+03 0.112E+03 0.522E+03   0.285E+02 -.154E+02 -.188E+02   -.205E-01 0.293E-01 0.559E-02
   0.181E+01 0.112E+03 -.153E+03   0.333E+02 -.109E+03 0.182E+03   -.182E+02 -.330E+01 -.148E+02   -.102E-01 0.546E-02 -.188E-04
   0.696E+02 0.248E+02 0.110E+03   -.796E+02 -.315E+02 -.111E+03   0.393E+01 0.287E+01 -.137E+00   -.191E-02 -.163E-01 -.260E-02
   0.199E+02 0.577E+02 0.218E+03   -.245E+02 -.606E+02 -.228E+03   0.229E+01 0.180E+01 0.421E+01   0.386E-01 -.212E-01 -.323E-02
   -.278E+03 -.149E+03 -.179E+03   0.335E+03 0.187E+03 0.183E+03   -.313E+02 -.183E+02 -.127E+01   0.633E-02 -.606E-02 -.814E-02
   0.216E+03 -.998E+02 0.282E+03   -.276E+03 0.118E+03 -.319E+03   0.329E+02 -.110E+02 0.169E+02   -.174E-01 0.107E-01 0.566E-03
   0.144E+02 0.235E+03 0.627E+03   -.753E+01 -.286E+03 -.677E+03   -.374E+01 0.307E+02 0.237E+02   -.163E-01 -.407E-03 0.112E-01
   0.261E+01 0.342E+03 0.524E+03   -.670E+01 -.409E+03 -.550E+03   0.846E-01 0.350E+02 0.111E+02   0.138E-01 0.901E-03 0.148E-01
   0.284E+03 -.452E+02 0.198E+03   -.345E+03 0.800E+02 -.211E+03   0.339E+02 -.180E+02 0.729E+01   -.175E-01 0.225E-01 0.279E-02
   -.207E+03 -.230E+03 -.424E+03   0.261E+03 0.262E+03 0.455E+03   -.310E+02 -.174E+02 -.136E+02   -.159E-01 -.434E-02 -.368E-02
   0.117E+01 -.474E+02 -.202E+02   -.102E+01 0.503E+02 0.152E+02   -.191E+00 -.140E+01 0.199E+01   0.173E-02 -.126E-01 0.287E-02
   -.231E+02 -.366E+02 -.276E+03   0.221E+02 0.408E+02 0.288E+03   0.148E+00 -.228E+01 -.586E+01   -.236E-01 0.162E-01 0.427E-02
   -.326E+03 -.932E+02 -.136E+03   0.386E+03 0.128E+03 0.139E+03   -.323E+02 -.189E+02 -.208E+01   -.721E-02 0.212E-01 0.154E-02
   0.256E+03 -.218E+03 0.443E+03   -.316E+03 0.247E+03 -.463E+03   0.316E+02 -.178E+02 0.664E+01   0.334E-01 -.168E-01 0.394E-02
   0.103E+01 0.216E+03 -.559E+03   0.755E+01 -.269E+03 0.606E+03   -.369E+01 0.298E+02 -.233E+02   0.233E-01 -.320E-02 -.483E-02
   -.520E+02 0.166E+03 -.627E+03   0.497E+02 -.214E+03 0.682E+03   0.598E+00 0.289E+02 -.272E+02   -.141E-01 0.888E-02 -.246E-03
   0.273E+03 -.186E+03 0.343E+03   -.321E+03 0.228E+03 -.370E+03   0.257E+02 -.227E+02 0.119E+02   0.230E-01 -.656E-02 0.148E-02
   -.242E+03 -.109E+03 -.267E+03   0.304E+03 0.124E+03 0.298E+03   -.329E+02 -.112E+02 -.145E+02   0.232E-01 -.540E-02 0.827E-02
   -.662E+02 0.292E+02 0.631E+02   0.732E+02 -.349E+02 -.696E+02   -.239E+01 0.224E+01 0.199E+01   -.267E-02 0.180E-02 0.511E-02
   0.680E+02 -.168E+03 -.146E+04   -.706E+02 0.196E+03 0.151E+04   0.172E+01 -.189E+02 -.313E+02   -.678E-01 0.689E-01 -.109E+00
 -----------------------------------------------------------------------------------------------
   0.278E+01 -.700E+01 0.967E+01   0.625E-12 -.739E-12 -.455E-12   -.271E+01 0.704E+01 -.967E+01   -.612E-01 -.328E-01 -.408E-01
 
 
 POSITION                                       TOTAL-FORCE (eV/Angst)
 -----------------------------------------------------------------------------------
     -0.01196      1.98159      5.11757         0.018163      9.714179     -3.296345
      0.97649      3.68608      5.19790       -11.600524      1.303320     -0.116437
     -1.01991      3.64965      5.12745        11.289447      1.404752      1.197141
      4.60054      0.52903      6.06833         0.660466     -1.541117      1.999173
      2.79044      3.68508      4.95031        -0.927350      3.246179     -0.988151
      0.94872      0.47634      5.38418        -0.839681     -1.503041     -0.443736
     -2.87473      6.64604      5.80682         2.181349      7.713403      4.867959
     -1.77963      8.28418      6.01441        -7.477171     -6.937732      1.189653
     -3.74628      8.36056      5.97750         8.134475     -6.736773      2.104824
      1.92468      5.06136      6.02285        -1.942205     -2.225972      0.444483
      0.03153      8.21411      5.86764         0.261042     -0.467953     -1.957587
     -2.03934      5.05875      5.76805         1.737144     -3.252945      2.931464
      5.58925      1.99172      5.67245         0.478388      7.820837     -4.264779
      6.48311      3.52687      4.79859        -8.823119     -3.827978     -2.120166
      4.57626      3.59621      5.22554         9.197402     -6.472053     -1.596509
     10.11531      0.34594      5.52840         0.528552     -2.016547     -0.683582
      8.27786      3.47288      4.72656         2.146035      2.560127     -2.173335
      6.53402      0.51855      6.14438         0.005515     -0.795065      1.675051
      2.85326      6.56038      6.37499        -3.773409      9.378206      4.710954
      3.77884      8.27450      6.27456        -9.373632     -6.501394      4.920798
      1.80742      8.25721      6.25592         8.497298     -7.358823      3.484868
      7.27503      5.12278      5.04611         3.873686      2.480702     -0.482839
      5.57614      8.29099      6.41597         0.029099      0.668561      2.392870
      3.80947      5.09463      5.87832        -3.083892      0.246206      1.019871
     -0.01148      3.11311      5.10034         0.889923      2.167787     -2.538154
      0.93310      1.48092      5.05142        25.678674     15.117444    -12.275200
      3.71405     -0.03441      6.26589       -25.308579     14.238527     15.539744
      3.71583      3.21966      4.70863         3.845738    -24.146674    -23.891723
      1.82007      3.32259      4.67703        -1.216509    -19.890890    -25.845836
      4.62138      1.57640      5.91782       -25.489003     20.581473      3.794883
     -3.71422      9.22171      5.35988        25.321714      7.478757    -21.254995
      0.01346      0.01711      5.79410         0.464262     -0.229501      1.334269
     -2.77742      7.74826      6.00311         0.434300      0.763672      4.695556
     -2.08899      6.01678      6.21346        15.868799     12.027922     25.569089
      0.97604      4.54447      5.89861       -18.725822      1.399803      9.348967
      0.96896      7.69618      5.87668         3.899799    -29.068230    -12.433154
     -0.90360      7.70849      5.75248        -2.992578    -28.989334    -12.451528
      1.93814      5.98694      6.53801       -19.711048     12.592448     22.247053
     -1.10843      4.50344      5.82139        16.881111      0.536924     14.317424
      8.19993      4.48942      5.23186        -6.001168     -3.914441     -0.918244
      5.56270      2.98713      5.15181        -2.333445     -1.113085     -5.195178
      6.54175      1.56187      5.94285        26.174056     19.805480      2.572467
      3.69995      9.10105      5.61419       -26.418408      6.684516    -19.728131
     -1.80604      3.25520      4.54563         3.134890    -20.950306    -25.914052
      7.36910      2.96235      4.55434        -3.983166    -31.180919    -14.143615
     10.10517      1.35500      5.22157       -26.664379     16.767750     -6.220488
      7.37849     -0.05300      6.47377        23.220240     14.507300     18.220894
      5.56957     -0.04070      5.97971        -0.032344      1.449063     -3.028363
      2.79267      7.68493      6.41039        -0.932559      1.993411      6.428238
      3.79429      6.12360      6.14958        27.806916     15.615112      0.491472
      6.40983      4.61350      4.74896       -29.251196     11.419610    -14.038586
     -4.54788      7.97833      6.58413         4.912227    -23.472085     23.312231
      4.64542      7.91263      6.79260        -1.674516    -19.042105     27.528948
     -3.70328      6.33594      5.21466       -22.173229     19.644477    -14.717813
      4.67235      4.49461      5.80585        29.535361      4.695934     15.968279
      2.82137      4.61772      5.60593         4.622745     -3.451666     -4.421296
     -0.10715      5.50334      6.69354        -0.979884      9.062749     12.831202
 -----------------------------------------------------------------------------------
    total drift:                                0.007209      0.005001     -0.033809


--------------------------------------------------------------------------------------------------------



  FREE ENERGIE OF THE ION-ELECTRON SYSTEM (eV)
  ---------------------------------------------------
  free  energy   TOTEN  =      -212.75991480 eV

  energy  without entropy=     -212.75991480  energy(sigma->0) =     -212.75991480
 


--------------------------------------------------------------------------------------------------------


    POTLOK:  cpu time    0.0454: real time    0.0456


--------------------------------------------------------------------------------------------------------


 stress matrix after NEB project (eV)
   1334.37338    -23.84629     36.72307
    -23.84629   1197.81801     67.49763
     36.72307     67.49763    275.39108
  FORCES: max atom, RMS    34.469655   21.749378
  FORCE total and by dimension  164.204206   31.180919
  Stress total and by dimension 1817.720243 1334.373384
     LOOP+:  cpu time   84.6100: real time   88.4895
    4ORBIT:  cpu time    0.0000: real time    0.0000
 


 total charge     
 
# of ion       s       p       d       tot
------------------------------------------
    1        1.173   2.661   0.000   3.834
    2        1.150   2.630   0.000   3.781
    3        1.155   2.647   0.000   3.802
    4        1.186   2.689   0.000   3.875
    5        1.170   2.676   0.000   3.846
    6        1.194   2.701   0.000   3.895
    7        1.172   2.660   0.000   3.832
    8        1.167   2.654   0.000   3.821
    9        1.178   2.654   0.000   3.831
   10        1.200   2.744   0.000   3.944
   11        1.191   2.694   0.000   3.886
   12        1.208   2.758   0.000   3.966
   13        1.166   2.653   0.000   3.819
   14        1.164   2.650   0.000   3.813
   15        1.160   2.647   0.000   3.808
   16        1.197   2.709   0.000   3.906
   17        1.174   2.691   0.000   3.866
   18        1.181   2.689   0.000   3.869
   19        1.169   2.653   0.000   3.823
   20        1.171   2.648   0.000   3.819
   21        1.162   2.641   0.000   3.803
   22        1.180   2.689   0.000   3.870
   23        1.181   2.675   0.000   3.857
   24        1.190   2.710   0.000   3.900
   25        1.437   3.434   0.000   4.871
   26        1.447   3.292   0.000   4.738
   27        1.443   3.278   0.000   4.721
   28        1.439   3.242   0.000   4.681
   29        1.446   3.275   0.000   4.721
   30        1.439   3.273   0.000   4.712
   31        1.453   3.273   0.000   4.727
   32        1.466   3.479   0.000   4.946
   33        1.456   3.452   0.000   4.907
   34        1.444   3.299   0.000   4.743
   35        1.428   3.339   0.000   4.767
   36        1.436   3.268   0.000   4.704
   37        1.435   3.267   0.000   4.702
   38        1.438   3.286   0.000   4.724
   39        1.431   3.345   0.000   4.776
   40        1.469   3.497   0.000   4.966
   41        1.448   3.430   0.000   4.878
   42        1.435   3.257   0.000   4.692
   43        1.453   3.282   0.000   4.735
   44        1.445   3.272   0.000   4.718
   45        1.441   3.240   0.000   4.681
   46        1.448   3.297   0.000   4.745
   47        1.442   3.266   0.000   4.708
   48        1.462   3.483   0.000   4.946
   49        1.440   3.416   0.000   4.856
   50        1.450   3.282   0.000   4.732
   51        1.443   3.265   0.000   4.708
   52        1.434   3.253   0.000   4.688
   53        1.439   3.259   0.000   4.698
   54        1.435   3.264   0.000   4.699
   55        1.451   3.264   0.000   4.715
   56        1.465   3.485   0.000   4.951
   57        1.279   1.448  10.416  13.143
--------------------------------------------------
tot         75.757 171.988  10.416 258.161
 


 magnetization (x)
 
# of ion       s       p       d       tot
------------------------------------------
    1       -0.000   0.000   0.000   0.000
    2       -0.000  -0.000   0.000  -0.000
    3       -0.000   0.000   0.000   0.000
    4       -0.000   0.000   0.000   0.000
    5        0.000  -0.000   0.000  -0.000
    6       -0.000   0.000   0.000   0.000
    7        0.000   0.000   0.000   0.000
    8       -0.000  -0.000   0.000  -0.000
    9        0.000   0.000   0.000   0.000
   10        0.000   0.000   0.000   0.000
   11       -0.000   0.000   0.000  -0.000
   12       -0.000   0.000   0.000   0.000
   13       -0.000   0.000   0.000   0.000
   14        0.000   0.000   0.000   0.000
   15        0.000   0.000   0.000   0.000
   16       -0.000  -0.000   0.000  -0.000
   17       -0.000   0.000   0.000   0.000
   18       -0.000   0.000   0.000   0.000
   19       -0.000  -0.000   0.000  -0.000
   20        0.000   0.000   0.000   0.000
   21       -0.000  -0.000   0.000  -0.000
   22       -0.000   0.000   0.000   0.000
   23       -0.000   0.000   0.000  -0.000
   24       -0.000  -0.000   0.000  -0.000
   25       -0.000   0.000   0.000  -0.000
   26       -0.000  -0.000   0.000  -0.000
   27       -0.000   0.000   0.000   0.000
   28        0.000  -0.000   0.000   0.000
   29        0.000  -0.000   0.000  -0.000
   30       -0.000   0.000   0.000  -0.000
   31       -0.000  -0.000   0.000  -0.000
   32        0.000   0.000   0.000   0.000
   33       -0.000   0.000   0.000   0.000
   34       -0.000  -0.000   0.000  -0.000
   35        0.000  -0.000   0.000   0.000
   36       -0.000   0.000   0.000  -0.000
   37       -0.000   0.000   0.000   0.000
   38       -0.000  -0.000   0.000  -0.000
   39       -0.000   0.000   0.000  -0.000
   40       -0.000   0.000   0.000   0.000
   41       -0.000  -0.000   0.000  -0.000
   42       -0.000   0.000   0.000  -0.000
   43        0.000  -0.000   0.000   0.000
   44       -0.000  -0.000   0.000  -0.000
   45       -0.000  -0.000   0.000  -0.000
   46       -0.000   0.000   0.000  -0.000
   47       -0.000   0.000   0.000   0.000
   48       -0.000   0.000   0.000   0.000
   49        0.000  -0.000   0.000   0.000
   50        0.000   0.000   0.000   0.000
   51       -0.000  -0.000   0.000  -0.000
   52        0.000  -0.000   0.000  -0.000
   53        0.000  -0.000   0.000   0.000
   54       -0.000  -0.000   0.000  -0.000
   55        0.000  -0.000   0.000   0.000
   56        0.000  -0.000   0.000   0.000
   57       -0.000  -0.000  -0.000  -0.000
--------------------------------------------------
tot         -0.000   0.000  -0.000   0.000
 
 BZINTS: Fermi energy:  1.131283;270.000000 electrons
         Band energy:***********;  BLOECHL correction:  0.000000

 total amount of memory used by VASP MPI-rank0    58941. kBytes
=======================================================================

   base      :      30000. kBytes
   nonl-proj :       6647. kBytes
   fftplans  :       1973. kBytes
   grid      :       5275. kBytes
   one-center:        155. kBytes
   wavefun   :      14891. kBytes
 
  
  
 General timing and accounting informations for this job:
 ========================================================
  
                  Total CPU time used (sec):       95.999
                            User time (sec):       90.488
                          System time (sec):        5.511
                         Elapsed time (sec):      108.742
  
                   Maximum memory used (kb):      458876.
                   Average memory used (kb):           0.
  
                          Minor page faults:       478339
                          Major page faults:            0
                 Voluntary context switches:         8007
