       N       E                     dE             d eps       ncg     rms          rms(c)
DAV:   1     0.306580539732E+04    0.30658E+04   -0.12541E+05  4144   0.132E+03
DAV:   2    -0.153178959853E+02   -0.30811E+04   -0.29909E+04  4464   0.370E+02
DAV:   3    -0.429172707912E+03   -0.41385E+03   -0.41012E+03  4064   0.156E+02
DAV:   4    -0.442874715424E+03   -0.13702E+02   -0.13348E+02  4216   0.386E+01
DAV:   5    -0.443400093852E+03   -0.52538E+00   -0.52019E+00  4384   0.572E+00    0.671E+01
DAV:   6    -0.371824605409E+03    0.71575E+02   -0.71896E+01  4888   0.341E+01    0.463E+01
DAV:   7    -0.339346043132E+03    0.32479E+02   -0.13637E+02  4480   0.370E+01    0.239E+01
DAV:   8    -0.338176401899E+03    0.11696E+01   -0.17105E+01  4512   0.162E+01    0.165E+01
DAV:   9    -0.338188083992E+03   -0.11682E-01   -0.91005E+00  5416   0.186E+01    0.590E+00
DAV:  10    -0.337764746346E+03    0.42334E+00   -0.69416E+00  5768   0.159E+01    0.293E+00
DAV:  11    -0.337646393408E+03    0.11835E+00   -0.73880E-01  3872   0.320E+00    0.153E+00
DAV:  12    -0.337622648657E+03    0.23745E-01   -0.19462E-01  4672   0.165E+00    0.667E-01
DAV:  13    -0.337620895167E+03    0.17535E-02   -0.42791E-02  4168   0.704E-01    0.393E-01
DAV:  14    -0.337620552973E+03    0.34219E-03   -0.73965E-03  4008   0.301E-01    0.314E-01
DAV:  15    -0.337620488512E+03    0.64461E-04   -0.28162E-03  5248   0.277E-01    0.144E-01
DAV:  16    -0.337620430450E+03    0.58062E-04   -0.76859E-04  3408   0.160E-01
   1 F= -.34258952E+03 E0= -.34258952E+03  d E =0.000000E+00  mag=     0.0000
