 vasp.5.4.4.18Apr17-6-g9f103f2a35 (build Nov  8 2022 18:58:45) complex           
 executed on             LinuxGNU date 2023.04.13  15:54:37
 running on   48 total cores
 distrk:  each k-point on   48 cores,    1 groups
 distr:  one band on NCORES_PER_BAND=  12 cores,    4 groups


--------------------------------------------------------------------------------------------------------


 INCAR:
 POTCAR:    PAW_PBE C 08Apr2002                   
 POTCAR:    PAW_PBE N 08Apr2002                   
 POTCAR:    PAW_PBE Ge_d 03Jul2007                
 POTCAR:    PAW_PBE C 08Apr2002                   
 POTCAR:    PAW_PBE O 08Apr2002                   
 POTCAR:    PAW_PBE C 08Apr2002                   
   SHA256 =  253f7b50bb8d59471dbedb8285d89021f4a42ed1a2c5d38a03a736e69125dd95 C/
   COPYR  = (c) Copyright 08Apr2002 Georg Kresse                                
   COPYR  = This file is part of the software VASP. Any use, copying, and all ot
   COPYR  = If you do not have a valid VASP license, you may not use, copy or di
   VRHFIN =C: s2p2                                                              
   LEXCH  = PE                                                                  
   EATOM  =   147.1560 eV,   10.8157 Ry                                         
                                                                                
   TITEL  = PAW_PBE C 08Apr2002                                                 
   LULTRA =        F    use ultrasoft PP ?                                      
   IUNSCR =        1    unscreen: 0-lin 1-nonlin 2-no                           
   RPACOR =    1.200    partial core radius                                     
   POMASS =   12.011; ZVAL   =    4.000    mass and valenz                      
   RCORE  =    1.500    outmost cutoff radius                                   
   RWIGS  =    1.630; RWIGS  =    0.863    wigner-seitz radius (au A)           
   ENMAX  =  400.000; ENMIN  =  300.000 eV                                      
   ICORE  =        2    local potential                                         
   LCOR   =        T    correct aug charges                                     
   LPAW   =        T    paw PP                                                  
   EAUG   =  644.873                                                            
   DEXC   =    0.000                                                            
   RMAX   =    1.529    core radius for proj-oper                               
   RAUG   =    1.300    factor for augmentation sphere                          
   RDEP   =    1.501    radius for radial grids                                 
   RDEPT  =    1.300    core radius for aug-charge                              
                                                                                
   Atomic configuration                                                         
    4 entries                                                                   
     n  l   j            E        occ.                                          
     1  0  0.50      -273.3789   2.0000                                         
     2  0  0.50       -13.7508   2.0000                                         
     2  1  0.50        -5.2854   2.0000                                         
     3  2  1.50        -5.4423   0.0000                                         
   Description                                                                  
     l       E           TYP  RCUT    TYP  RCUT                                 
     0    -13.7508458     23  1.200                                             
     0     -8.2022199     23  1.200                                             
     1     -5.2854383     23  1.500                                             
     1     34.0145650     23  1.500                                             
     2     -5.4423304      7  1.500                                             
  local pseudopotential read in
  partial core-charges read in
  partial kinetic energy density read in
  atomic valenz-charges read in
  non local Contribution for L=           0  read in
    real space projection operators read in
  non local Contribution for L=           0  read in
    real space projection operators read in
  non local Contribution for L=           1  read in
    real space projection operators read in
  non local Contribution for L=           1  read in
    real space projection operators read in
    PAW grid and wavefunctions read in

   number of l-projection  operators is LMAX  =           4
   number of lm-projection operators is LMMAX =           8

 POTCAR:    PAW_PBE N 08Apr2002                   
   SHA256 =  e053789ff3a61a86a1b75d8a110fcc91f86041011e7b0817c7c99e4e8a6349d7 N/
   COPYR  = (c) Copyright 08Apr2002 Georg Kresse                                
   COPYR  = This file is part of the software VASP. Any use, copying, and all ot
   COPYR  = If you do not have a valid VASP license, you may not use, copy or di
   VRHFIN =N: s2p3                                                              
   LEXCH  = PE                                                                  
   EATOM  =   264.5486 eV,   19.4438 Ry                                         
                                                                                
   TITEL  = PAW_PBE N 08Apr2002                                                 
   LULTRA =        F    use ultrasoft PP ?                                      
   IUNSCR =        1    unscreen: 0-lin 1-nonlin 2-no                           
   RPACOR =    1.200    partial core radius                                     
   POMASS =   14.001; ZVAL   =    5.000    mass and valenz                      
   RCORE  =    1.500    outmost cutoff radius                                   
   RWIGS  =    1.400; RWIGS  =    0.741    wigner-seitz radius (au A)           
   ENMAX  =  400.000; ENMIN  =  300.000 eV                                      
   ICORE  =        2    local potential                                         
   LCOR   =        T    correct aug charges                                     
   LPAW   =        T    paw PP                                                  
   EAUG   =  627.112                                                            
   DEXC   =    0.000                                                            
   RMAX   =    1.529    core radius for proj-oper                               
   RAUG   =    1.300    factor for augmentation sphere                          
   RDEP   =    1.514    radius for radial grids                                 
   RDEPT  =    1.338    core radius for aug-charge                              
                                                                                
   Atomic configuration                                                         
    4 entries                                                                   
     n  l   j            E        occ.                                          
     1  0  0.50      -384.7179   2.0000                                         
     2  0  0.50       -18.5828   2.0000                                         
     2  1  0.50        -7.0898   3.0000                                         
     3  2  1.50        -6.8029   0.0000                                         
   Description                                                                  
     l       E           TYP  RCUT    TYP  RCUT                                 
     0    -18.5828119     23  1.200                                             
     0    -13.5018863     23  1.200                                             
     1     -7.0897853     23  1.500                                             
     1      9.5240782     23  1.500                                             
     2     -6.8029130      7  1.500                                             
  local pseudopotential read in
  partial core-charges read in
  partial kinetic energy density read in
  atomic valenz-charges read in
  non local Contribution for L=           0  read in
    real space projection operators read in
  non local Contribution for L=           0  read in
    real space projection operators read in
  non local Contribution for L=           1  read in
    real space projection operators read in
  non local Contribution for L=           1  read in
    real space projection operators read in
    PAW grid and wavefunctions read in

   number of l-projection  operators is LMAX  =           4
   number of lm-projection operators is LMMAX =           8

 POTCAR:    PAW_PBE Ge_d 03Jul2007                
   SHA256 =  944b26c40d2d7c4f4eb1ff3a2e8dbfdd7129146276cd341854bfd5c0e57780ed Ge
   COPYR  = (c) Copyright 03Jul2007 Georg Kresse                                
   COPYR  = This file is part of the software VASP. Any use, copying, and all ot
   COPYR  = If you do not have a valid VASP license, you may not use, copy or di
   VRHFIN =Ge: 3d4s4p                                                           
   LEXCH  = PE                                                                  
   EATOM  =  2596.2402 eV,  190.8183 Ry                                         
                                                                                
   TITEL  = PAW_PBE Ge_d 03Jul2007                                              
   LULTRA =        F    use ultrasoft PP ?                                      
   IUNSCR =        1    unscreen: 0-lin 1-nonlin 2-no                           
   RPACOR =    2.000    partial core radius                                     
   POMASS =   72.610; ZVAL   =   14.000    mass and valenz                      
   RCORE  =    2.300    outmost cutoff radius                                   
   RWIGS  =    2.300; RWIGS  =    1.217    wigner-seitz radius (au A)           
   ENMAX  =  310.294; ENMIN  =  232.720 eV                                      
   ICORE  =        3    local potential                                         
   LCOR   =        T    correct aug charges                                     
   LPAW   =        T    paw PP                                                  
   EAUG   =  531.356                                                            
   DEXC   =    0.000                                                            
   RMAX   =    2.342    core radius for proj-oper                               
   RAUG   =    1.300    factor for augmentation sphere                          
   RDEP   =    2.318    radius for radial grids                                 
   RDEPT  =    1.783    core radius for aug-charge                              
                                                                                
   Atomic configuration                                                         
    9 entries                                                                   
     n  l   j            E        occ.                                          
     1  0  0.50    -10959.8463   2.0000                                         
     2  0  0.50     -1371.6056   2.0000                                         
     2  1  1.50     -1198.4791   6.0000                                         
     3  0  0.50      -168.4733   2.0000                                         
     3  1  1.50      -115.6019   6.0000                                         
     3  2  2.50       -29.3106  10.0000                                         
     4  0  0.50       -11.7309   2.0000                                         
     4  1  0.50        -3.8952   2.0000                                         
     4  3  2.50        -4.0817   0.0000                                         
   Description                                                                  
     l       E           TYP  RCUT    TYP  RCUT                                 
     2    -29.3105938     23  2.200                                             
     2    -13.6058260     23  2.200                                             
     0    -11.7309493     23  2.300                                             
     0     -7.4578696     23  2.300                                             
     1     -3.8952261     23  2.300                                             
     1      6.1178114     23  2.300                                             
     3     -1.3605826     23  2.300                                             
  local pseudopotential read in
  partial core-charges read in
  partial kinetic energy density read in
  atomic valenz-charges read in
  non local Contribution for L=           2  read in
    real space projection operators read in
  non local Contribution for L=           2  read in
    real space projection operators read in
  non local Contribution for L=           0  read in
    real space projection operators read in
  non local Contribution for L=           0  read in
    real space projection operators read in
  non local Contribution for L=           1  read in
    real space projection operators read in
  non local Contribution for L=           1  read in
    real space projection operators read in
    PAW grid and wavefunctions read in

   number of l-projection  operators is LMAX  =           6
   number of lm-projection operators is LMMAX =          18

 POTCAR:    PAW_PBE C 08Apr2002                   
   SHA256 =  253f7b50bb8d59471dbedb8285d89021f4a42ed1a2c5d38a03a736e69125dd95 C/
   COPYR  = (c) Copyright 08Apr2002 Georg Kresse                                
   COPYR  = This file is part of the software VASP. Any use, copying, and all ot
   COPYR  = If you do not have a valid VASP license, you may not use, copy or di
   VRHFIN =C: s2p2                                                              
   LEXCH  = PE                                                                  
   EATOM  =   147.1560 eV,   10.8157 Ry                                         
                                                                                
   TITEL  = PAW_PBE C 08Apr2002                                                 
   LULTRA =        F    use ultrasoft PP ?                                      
   IUNSCR =        1    unscreen: 0-lin 1-nonlin 2-no                           
   RPACOR =    1.200    partial core radius                                     
   POMASS =   12.011; ZVAL   =    4.000    mass and valenz                      
   RCORE  =    1.500    outmost cutoff radius                                   
   RWIGS  =    1.630; RWIGS  =    0.863    wigner-seitz radius (au A)           
   ENMAX  =  400.000; ENMIN  =  300.000 eV                                      
   ICORE  =        2    local potential                                         
   LCOR   =        T    correct aug charges                                     
   LPAW   =        T    paw PP                                                  
   EAUG   =  644.873                                                            
   DEXC   =    0.000                                                            
   RMAX   =    1.529    core radius for proj-oper                               
   RAUG   =    1.300    factor for augmentation sphere                          
   RDEP   =    1.501    radius for radial grids                                 
   RDEPT  =    1.300    core radius for aug-charge                              
                                                                                
   Atomic configuration                                                         
    4 entries                                                                   
     n  l   j            E        occ.                                          
     1  0  0.50      -273.3789   2.0000                                         
     2  0  0.50       -13.7508   2.0000                                         
     2  1  0.50        -5.2854   2.0000                                         
     3  2  1.50        -5.4423   0.0000                                         
   Description                                                                  
     l       E           TYP  RCUT    TYP  RCUT                                 
     0    -13.7508458     23  1.200                                             
     0     -8.2022199     23  1.200                                             
     1     -5.2854383     23  1.500                                             
     1     34.0145650     23  1.500                                             
     2     -5.4423304      7  1.500                                             
  local pseudopotential read in
  partial core-charges read in
  partial kinetic energy density read in
  atomic valenz-charges read in
  non local Contribution for L=           0  read in
    real space projection operators read in
  non local Contribution for L=           0  read in
    real space projection operators read in
  non local Contribution for L=           1  read in
    real space projection operators read in
  non local Contribution for L=           1  read in
    real space projection operators read in
    PAW grid and wavefunctions read in

   number of l-projection  operators is LMAX  =           4
   number of lm-projection operators is LMMAX =           8

 POTCAR:    PAW_PBE O 08Apr2002                   
   SHA256 =  818f92134a0a090dccd8ba1447fa70422a3b330e708bb4f08108d8ae51209ddf O/
   COPYR  = (c) Copyright 08Apr2002 Georg Kresse                                
   COPYR  = This file is part of the software VASP. Any use, copying, and all ot
   COPYR  = If you do not have a valid VASP license, you may not use, copy or di
   VRHFIN =O: s2p4                                                              
   LEXCH  = PE                                                                  
   EATOM  =   432.3788 eV,   31.7789 Ry                                         
                                                                                
   TITEL  = PAW_PBE O 08Apr2002                                                 
   LULTRA =        F    use ultrasoft PP ?                                      
   IUNSCR =        1    unscreen: 0-lin 1-nonlin 2-no                           
   RPACOR =    1.200    partial core radius                                     
   POMASS =   16.000; ZVAL   =    6.000    mass and valenz                      
   RCORE  =    1.520    outmost cutoff radius                                   
   RWIGS  =    1.550; RWIGS  =    0.820    wigner-seitz radius (au A)           
   ENMAX  =  400.000; ENMIN  =  300.000 eV                                      
   ICORE  =        2    local potential                                         
   LCOR   =        T    correct aug charges                                     
   LPAW   =        T    paw PP                                                  
   EAUG   =  605.392                                                            
   DEXC   =    0.000                                                            
   RMAX   =    1.553    core radius for proj-oper                               
   RAUG   =    1.300    factor for augmentation sphere                          
   RDEP   =    1.550    radius for radial grids                                 
   RDEPT  =    1.329    core radius for aug-charge                              
                                                                                
   Atomic configuration                                                         
    4 entries                                                                   
     n  l   j            E        occ.                                          
     1  0  0.50      -514.6923   2.0000                                         
     2  0  0.50       -23.9615   2.0000                                         
     2  1  0.50        -9.0305   4.0000                                         
     3  2  1.50        -9.5241   0.0000                                         
   Description                                                                  
     l       E           TYP  RCUT    TYP  RCUT                                 
     0    -23.9615318     23  1.200                                             
     0     -9.5240782     23  1.200                                             
     1     -9.0304911     23  1.520                                             
     1      8.1634956     23  1.520                                             
     2     -9.5240782      7  1.500                                             
  local pseudopotential read in
  partial core-charges read in
  partial kinetic energy density read in
  kinetic energy density of atom read in
  atomic valenz-charges read in
  non local Contribution for L=           0  read in
    real space projection operators read in
  non local Contribution for L=           0  read in
    real space projection operators read in
  non local Contribution for L=           1  read in
    real space projection operators read in
  non local Contribution for L=           1  read in
    real space projection operators read in
    PAW grid and wavefunctions read in

   number of l-projection  operators is LMAX  =           4
   number of lm-projection operators is LMMAX =           8


 ----------------------------------------------------------------------------- 
|                                                                             |
|  ADVICE TO THIS USER RUNNING 'VASP/VAMP'   (HEAR YOUR MASTER'S VOICE ...):  |
|                                                                             |
|      You have a (more or less) 'large supercell' and for larger cells       |
|      it might be more efficient to use real space projection opertators     |
|      So try LREAL= Auto  in the INCAR   file.                               |
|      Mind:          For very  accurate calculation you might also keep the  |
|      reciprocal projection scheme          (i.e. LREAL=.FALSE.)             |
|                                                                             |
 ----------------------------------------------------------------------------- 

  PAW_PBE C 08Apr2002                   :
 energy of atom  1       EATOM= -147.1560
 kinetic energy error for atom=    0.0132 (will be added to EATOM!!)
  PAW_PBE N 08Apr2002                   :
 energy of atom  2       EATOM= -264.5486
 kinetic energy error for atom=    0.0298 (will be added to EATOM!!)
  PAW_PBE Ge_d 03Jul2007                :
 energy of atom  3       EATOM=-2596.2402
 kinetic energy error for atom=    0.0090 (will be added to EATOM!!)
  PAW_PBE C 08Apr2002                   :
 energy of atom  4       EATOM= -147.1560
 kinetic energy error for atom=    0.0132 (will be added to EATOM!!)
  PAW_PBE O 08Apr2002                   :
 energy of atom  5       EATOM= -432.3788
 kinetic energy error for atom=    0.0458 (will be added to EATOM!!)


 POSCAR: POSCAR-c3n4                             
  positions in direct lattice
  velocities in cartesian coordinates
 exchange correlation table for  LEXCH =        8
   RHO(1)=    0.500       N(1)  =     2000
   RHO(2)=  100.500       N(2)  =     4000



--------------------------------------------------------------------------------------------------------


 ion  position               nearest neighbor table
   1  0.107  0.213  0.486-  46 1.34  26 1.35  25 1.51
   2  0.287  0.392  0.486-  29 1.33  35 1.40  25 1.54
   3  0.103  0.392  0.486-  44 1.33  39 1.40  25 1.58
   4  0.446  0.056  0.498-  30 1.33  27 1.36  48 1.42
   5  0.443  0.387  0.478-  28 1.35  29 1.36  56 1.44
   6  0.110  0.055  0.485-  26 1.34  31 1.36  32 1.41
   7  0.106  0.714  0.496-  54 1.34  34 1.38  33 1.48
   8  0.288  0.893  0.493-  27 1.33  37 1.38  33 1.55
   9  0.103  0.895  0.498-  31 1.33  52 1.35  33 1.63
  10  0.451  0.556  0.498-  38 1.33  56 1.37  35 1.38
  11  0.444  0.890  0.483-  37 1.36  36 1.37  48 1.40
  12  0.104  0.555  0.502-  34 1.34  40 1.37  39 1.39
  13  0.607  0.215  0.493-  30 1.35  42 1.36  41 1.48
  14  0.788  0.392  0.477-  51 1.36  45 1.36  41 1.55
  15  0.604  0.394  0.478-  28 1.36  55 1.36  41 1.61
  16  0.946  0.055  0.491-  46 1.34  43 1.35  32 1.42
  17  0.942  0.386  0.475-  45 1.34  44 1.37  40 1.44
  18  0.611  0.058  0.500-  42 1.33  47 1.37  48 1.42
  19  0.611  0.716  0.493-  50 1.34  38 1.37  49 1.48
  20  0.789  0.894  0.501-  43 1.33  53 1.36  49 1.55
  21  0.605  0.896  0.494-  47 1.33  36 1.37  49 1.62
  22  0.944  0.556  0.483-  51 1.33  54 1.35  40 1.44
  23  0.943  0.888  0.510-  53 1.36  52 1.37  32 1.41
  24  0.613  0.558  0.481-  55 1.34  50 1.36  56 1.43
  25  0.167  0.333  0.485-   1 1.51   2 1.54   3 1.58
  26  0.161  0.162  0.481-   6 1.34   1 1.35
  27  0.340  0.998  0.505-   8 1.33   4 1.36
  28  0.498  0.338  0.472-   5 1.35  15 1.36
  29  0.337  0.340  0.474-   2 1.33   5 1.36
  30  0.502  0.163  0.497-   4 1.33  13 1.35
  31  0.159  0.999  0.482-   9 1.33   6 1.36
  32  0.999  0.999  0.494-  23 1.41   6 1.41  16 1.42
  33  0.167  0.832  0.496-   7 1.48   8 1.55   9 1.63
  34  0.157  0.661  0.512-  12 1.34   7 1.38
  35  0.343  0.502  0.500-  10 1.38   2 1.40  57 2.12
  36  0.499  0.839  0.481-  21 1.37  11 1.37
  37  0.338  0.838  0.479-  11 1.36   8 1.38
  38  0.504  0.661  0.507-  10 1.33  19 1.37
  39  0.159  0.502  0.503-  12 1.39   3 1.40  57 2.12
  40  0.998  0.499  0.491-  12 1.37  22 1.44  17 1.44
  41  0.666  0.332  0.482-  13 1.48  14 1.55  15 1.61
  42  0.662  0.165  0.501-  18 1.33  13 1.36
  43  0.840  0.999  0.489-  20 1.33  16 1.35
  44  0.001  0.340  0.470-   3 1.33  17 1.37
  45  0.837  0.337  0.467-  17 1.34  14 1.36
  46  0.002  0.162  0.490-  16 1.34   1 1.34
  47  0.660  0.001  0.506-  21 1.33  18 1.37
  48  0.500  0.001  0.491-  11 1.40  18 1.42   4 1.42
  49  0.668  0.834  0.496-  19 1.48  20 1.55  21 1.62
  50  0.663  0.666  0.476-  19 1.34  24 1.36
  51  0.840  0.500  0.480-  22 1.33  14 1.36
  52  1.000  0.839  0.517-   9 1.35  23 1.37
  53  0.838  0.838  0.518-  23 1.36  20 1.36
  54  0.004  0.664  0.479-   7 1.34  22 1.35
  55  0.661  0.503  0.477-  24 1.34  15 1.36
  56  0.502  0.501  0.490-  10 1.37  24 1.43   5 1.44
  57  0.314  0.626  0.528-  39 2.12  35 2.12
  58  0.297  0.598  0.743-  59 1.15
  59  0.228  0.528  0.776-  58 1.15


IMPORTANT INFORMATION: All symmetrisations will be switched off!
NOSYMM: (Re-)initialisation of all symmetry stuff for point group C_1.



 KPOINTS: K-Points                                

Automatic generation of k-mesh.
Space group operators:
 irot       det(A)        alpha          n_x          n_y          n_z        tau_x        tau_y        tau_z
    1     1.000000     0.000001     1.000000     0.000000     0.000000     0.000000     0.000000     0.000000
 
 Subroutine IBZKPT returns following result:
 ===========================================
 
 Found      5 irreducible k-points:
 
 Following reciprocal coordinates:
            Coordinates               Weight
  0.000000  0.000000  0.000000      1.000000
  0.333333  0.000000  0.000000      2.000000
  0.000000  0.333333  0.000000      2.000000
  0.333333  0.333333  0.000000      2.000000
 -0.333333  0.333333  0.000000      2.000000
 
 Following cartesian coordinates:
            Coordinates               Weight
  0.000000  0.000000  0.000000      1.000000
  0.024277  0.014368  0.000000      2.000000
  0.000396  0.028736  0.000000      2.000000
  0.024673  0.043104  0.000000      2.000000
 -0.023881  0.014368  0.000000      2.000000
 
 TETIRR: Found     24 inequivalent tetrahedra from       54


--------------------------------------------------------------------------------------------------------




 Dimension of arrays:
   k-points           NKPTS =      5   k-points in BZ     NKDIM =      5   number of bands    NBANDS=    172
   number of dos      NEDOS =   4000   number of ions     NIONS =     59
   non local maximal  LDIM  =      6   non local SUM 2l+1 LMDIM =     18
   total plane-waves  NPLWV = 537600
   max r-space proj   IRMAX =      1   max aug-charges    IRDMAX=   6157
   dimension x,y,z NGX =    80 NGY =   80 NGZ =   84
   dimension x,y,z NGXF=   160 NGYF=  160 NGZF=  168
   support grid    NGXF=   160 NGYF=  160 NGZF=  168
   ions per type =              24  32   1   1   1
   NGX,Y,Z   is equivalent  to a cutoff of   8.89,  9.06,  8.62 a.u.
   NGXF,Y,Z  is equivalent  to a cutoff of  17.79, 18.12, 17.24 a.u.

 SYSTEM =  unknown system                          
 POSCAR =  POSCAR-c3n4                             

 Startparameter for this run:
   NWRITE =      2    write-flag & timer
   PREC   = normal    normal or accurate (medium, high low for compatibility)
   ISTART =      0    job   : 0-new  1-cont  2-samecut
   ICHARG =      2    charge: 1-file 2-atom 10-const
   ISPIN  =      2    spin polarized calculation?
   LNONCOLLINEAR =      F non collinear calculations
   LSORBIT =      F    spin-orbit coupling
   INIWAV =      1    electr: 0-lowe 1-rand  2-diag
   LASPH  =      F    aspherical Exc in radial PAW
   METAGGA=      F    non-selfconsistent MetaGGA calc.

 Electronic Relaxation 1
   ENCUT  =  440.0 eV  32.34 Ry    5.69 a.u.  25.57 25.10 27.71*2*pi/ulx,y,z
   ENINI  =  440.0     initial cutoff
   ENAUG  =  644.9 eV  augmentation charge cutoff
   NELM   =    100;   NELMIN=  2; NELMDL= -5     # of ELM steps 
   EDIFF  = 0.1E-03   stopping-criterion for ELM
   LREAL  =      F    real-space projection
   NLSPLINE    = F    spline interpolate recip. space projectors
   LCOMPAT=      F    compatible to vasp.4.4
   GGA_COMPAT  = T    GGA compatible to vasp.4.4-vasp.4.6
   LMAXPAW     = -100 max onsite density
   LMAXMIX     =    2 max onsite mixed and CHGCAR
   VOSKOWN=      0    Vosko Wilk Nusair interpolation
   ROPT   =    0.00000   0.00000   0.00000   0.00000
   ROPT   =    0.00000
 Ionic relaxation
   EDIFFG = -.1E-01   stopping-criterion for IOM
   NSW    =      0    number of steps for IOM
   NBLOCK =      1;   KBLOCK =      1    inner block; outer block 
   IBRION =     -1    ionic relax: 0-MD 1-quasi-New 2-CG
   NFREE  =      0    steps in history (QN), initial steepest desc. (CG)
   ISIF   =      2    stress and relaxation
   IWAVPR =     10    prediction:  0-non 1-charg 2-wave 3-comb
   ISYM   =      0    0-nonsym 1-usesym 2-fastsym
   LCORR  =      T    Harris-Foulkes like correction to forces

   POTIM  = 0.5000    time-step for ionic-motion
   TEIN   =    0.0    initial temperature
   TEBEG  =    0.0;   TEEND  =   0.0 temperature during run
   SMASS  =  -3.00    Nose mass-parameter (am)
   estimated Nose-frequenzy (Omega)   =  0.10E-29 period in steps =****** mass=  -0.511E-26a.u.
   SCALEE = 1.0000    scale energy and forces
   NPACO  =    256;   APACO  = 16.0  distance and # of slots for P.C.
   PSTRESS=    0.0 pullay stress

  Mass of Ions in am
   POMASS =  12.01 14.00 72.61 12.01 16.00
  Ionic Valenz
   ZVAL   =   4.00  5.00 14.00  4.00  6.00
  Atomic Wigner-Seitz radii
   RWIGS  =  -1.00 -1.00 -1.00 -1.00 -1.00
  virtual crystal weights 
   VCA    =   1.00  1.00  1.00  1.00  1.00
   NELECT =     280.0000    total number of electrons
   NUPDOWN=      -1.0000    fix difference up-down

 DOS related values:
   EMIN   = -14.00;   EMAX   =  6.00  energy-range for DOS
   EFERMI =   0.00
   ISMEAR =    -5;   SIGMA  =   0.20  broadening in eV -4-tet -1-fermi 0-gaus

 Electronic relaxation 2 (details)
   IALGO  =     38    algorithm
   LDIAG  =      T    sub-space diagonalisation (order eigenvalues)
   LSUBROT=      F    optimize rotation matrix (better conditioning)
   TURBO    =      0    0=normal 1=particle mesh
   IRESTART =      0    0=no restart 2=restart with 2 vectors
   NREBOOT  =      0    no. of reboots
   NMIN     =      0    reboot dimension
   EREF     =   0.00    reference energy to select bands
   IMIX   =      4    mixing-type and parameters
     AMIX     =   0.25;   BMIX     =  0.00
     AMIX_MAG =   1.00;   BMIX_MAG =  0.00
     AMIN     =   0.10
     WC   =   100.;   INIMIX=   1;  MIXPRE=   1;  MAXMIX= -45

 Intra band minimization:
   WEIMIN = 0.0000     energy-eigenvalue tresh-hold
   EBREAK =  0.15E-06  absolut break condition
   DEPER  =   0.30     relativ break condition  

   TIME   =   0.40     timestep for ELM

  volume/ion in A,a.u.               =      51.43       347.06
  Fermi-wavevector in a.u.,A,eV,Ry     =   0.739790  1.398000  7.446320  0.547289
  Thomas-Fermi vector in A             =   1.834037

 Write flags
   LWAVE        =      F    write WAVECAR
   LDOWNSAMPLE  =      F    k-point downsampling of WAVECAR
   LCHARG       =      F    write CHGCAR
   LVTOT        =      F    write LOCPOT, total local potential
   LVHAR        =      F    write LOCPOT, Hartree potential only
   LELF         =      F    write electronic localiz. function (ELF)
   LORBIT       =     11    0 simple, 1 ext, 2 COOP (PROOUT), +10 PAW based schemes


 Dipole corrections
   LMONO  =      F    monopole corrections only (constant potential shift)
   LDIPOL =      F    correct potential (dipole corrections)
   IDIPOL =      0    1-x, 2-y, 3-z, 4-all directions 
   EPSILON=  1.0000000 bulk dielectric constant

 Exchange correlation treatment:
   GGA     =    --    GGA type
   LEXCH   =     8    internal setting for exchange type
   VOSKOWN=      0    Vosko Wilk Nusair interpolation
   LHFCALC =     F    Hartree Fock is set to
   LHFONE  =     F    Hartree Fock one center treatment
   AEXX    =    0.0000 exact exchange contribution

 Linear response parameters
   LEPSILON=     F    determine dielectric tensor
   LRPA    =     F    only Hartree local field effects (RPA)
   LNABLA  =     F    use nabla operator in PAW spheres
   LVEL    =     F    velocity operator in full k-point grid
   LINTERFAST=   F  fast interpolation
   KINTER  =     0    interpolate to denser k-point grid
   CSHIFT  =0.1000    complex shift for real part using Kramers Kronig
   OMEGAMAX=  -1.0    maximum frequency
   DEG_THRESHOLD= 0.2000000E-02 threshold for treating states as degnerate
   RTIME   =   -0.100 relaxation time in fs
  (WPLASMAI=    0.000 imaginary part of plasma frequency in eV, 0.658/RTIME)
   DFIELD  = 0.0000000 0.0000000 0.0000000 field for delta impulse in time

 Orbital magnetization related:
   ORBITALMAG=     F  switch on orbital magnetization
   LCHIMAG   =     F  perturbation theory with respect to B field
   DQ        =  0.001000  dq finite difference perturbation B field
   LLRAUG    =     F  two centre corrections for induced B field



--------------------------------------------------------------------------------------------------------


 Static calculation
 charge density and potential will be updated during run
 spin polarized calculation
 Variant of blocked Davidson
 Davidson routine will perform the subspace rotation
 perform sub-space diagonalisation
    after iterative eigenvector-optimisation
 modified Broyden-mixing scheme, WC =      100.0
 initial mixing is a Kerker type mixing with AMIX =  0.2500 and BMIX =      0.0001
 Hartree-type preconditioning will be used
 using additional bands           32
 reciprocal scheme for non local part
 use partial core corrections
 calculate Harris-corrections to forces   (improved forces if not selfconsistent)
 use gradient corrections 
 use of overlap-Matrix (Vanderbilt PP)
 Fermi weights with tetrahedron method with Bloechl corrections


--------------------------------------------------------------------------------------------------------


  energy-cutoff  :      440.00
  volume of cell :     3034.29
      direct lattice vectors                 reciprocal lattice vectors
    14.950898173 -0.205999712  0.000000000     0.067435527  0.039911217 -0.000000000
    -7.475449087 12.630806273  0.000000000     0.001099827  0.079822434 -0.000000000
     0.000000000  0.000000000 16.200000000    -0.000000000 -0.000000000  0.061728395

  length of vectors
    14.952317281 14.677179776 16.200000000     0.078361059  0.079830011  0.061728395



 k-points in units of 2pi/SCALE and weight: K-Points                                
   0.00000000  0.00000000  0.00000000       0.111
   0.02427679  0.01436804  0.00000000       0.222
   0.00039594  0.02873608  0.00000000       0.222
   0.02467273  0.04310411  0.00000000       0.222
  -0.02388085  0.01436804  0.00000000       0.222

 k-points in reciprocal lattice and weights: K-Points                                
   0.00000000  0.00000000  0.00000000       0.111
   0.33333333  0.00000000  0.00000000       0.222
   0.00000000  0.33333333  0.00000000       0.222
   0.33333333  0.33333333  0.00000000       0.222
  -0.33333333  0.33333333  0.00000000       0.222

 position of ions in fractional coordinates (direct lattice) 
   0.10701729  0.21285235  0.48554250
   0.28706455  0.39211964  0.48571911
   0.10343694  0.39182255  0.48554239
   0.44609676  0.05617445  0.49803379
   0.44311994  0.38701282  0.47797344
   0.10962747  0.05544912  0.48524253
   0.10622014  0.71435562  0.49566765
   0.28842058  0.89303349  0.49329763
   0.10295846  0.89466989  0.49825091
   0.45110769  0.55553369  0.49840817
   0.44433854  0.88955509  0.48324101
   0.10425652  0.55458520  0.50192937
   0.60745455  0.21537775  0.49297314
   0.78782220  0.39220071  0.47686125
   0.60385113  0.39440562  0.47751182
   0.94610184  0.05505747  0.49111446
   0.94185050  0.38581080  0.47499683
   0.61130168  0.05839434  0.49967619
   0.61053202  0.71579116  0.49307938
   0.78931430  0.89369005  0.50118488
   0.60482370  0.89622842  0.49421032
   0.94445473  0.55579532  0.48317684
   0.94311559  0.88770089  0.50983661
   0.61348831  0.55827524  0.48075479
   0.16681419  0.33328649  0.48545278
   0.16078490  0.16217742  0.48050549
   0.33990677  0.99833691  0.50492235
   0.49773866  0.33769915  0.47221618
   0.33742992  0.34044386  0.47378443
   0.50154519  0.16269829  0.49747637
   0.15862120  0.99903699  0.48195074
   0.99934421  0.99855547  0.49359993
   0.16713827  0.83241278  0.49607887
   0.15749239  0.66054662  0.51185124
   0.34280530  0.50235591  0.50001147
   0.49928349  0.83863259  0.48050289
   0.33801843  0.83758107  0.47888035
   0.50444403  0.66149717  0.50693322
   0.15898161  0.50157690  0.50328052
   0.99807481  0.49873468  0.49090535
   0.66638984  0.33237714  0.48161499
   0.66178605  0.16468765  0.50139458
   0.84029917  0.99890701  0.48881602
   0.00111074  0.33977723  0.46988809
   0.83743267  0.33689965  0.46696517
   0.00213220  0.16204192  0.49042133
   0.66019117  0.00137496  0.50566893
   0.50040535  0.00064672  0.49146020
   0.66816575  0.83394433  0.49645459
   0.66258932  0.66628334  0.47634579
   0.84040444  0.50025944  0.47999744
   0.99975250  0.83868412  0.51673796
   0.83752869  0.83843492  0.51821010
   0.00382662  0.66368295  0.47908004
   0.66131020  0.50280914  0.47683932
   0.50179497  0.50078763  0.48956730
   0.31436308  0.62627767  0.52838706
   0.29681413  0.59843733  0.74344468
   0.22762560  0.52754540  0.77612921

 position of ions in cartesian coordinates  (Angst):
   0.00883775  2.66645123  7.86578854
   1.36060250  4.89365200  7.86864966
  -1.38257435  4.92772672  7.86578676
   6.24961795  0.61763285  8.06814738
   3.73194643  4.79700140  7.74316968
   1.22452213  0.67778385  7.86092898
  -3.75204265  9.00100615  8.02981597
  -2.36367966 11.22031844  7.99142168
  -5.14873780 11.27919261  8.07166467
   2.59160135  6.92391037  8.07421230
  -0.00656353 11.14426442  7.82850429
  -2.58704476  6.98338136  8.13125574
   7.47194574  2.59525916  7.98616492
   8.84677303  4.79152008  7.72515231
   6.07975765  4.85726779  7.73569147
  13.73349303  0.50052351  7.95605424
  11.19740198  4.67908052  7.69494867
   8.70298519  0.61163963  8.09475425
   3.77714165  8.91525009  7.98788600
   5.12022329 11.12542732  8.11919505
   2.34294764 11.19549401  8.00620723
   9.96562692  6.82558559  7.82746485
   7.46446231 11.01809640  8.25935305
   4.99884306  6.92508801  7.78822756
   0.00255577  4.17531346  7.86433506
   1.19152952  2.01530997  7.78418892
  -2.38110519 12.53977940  8.17974206
   4.91718718  4.16287847  7.64990210
   2.49990958  4.23057001  7.67530779
   6.28230835  1.95169241  8.05911723
  -5.09672074 12.58596675  7.80760193
   7.47644295 12.40669603  7.99631894
  -3.72379215 10.47961418  8.03647764
  -2.58322993  8.31079306  8.29199014
   1.36991106  6.27454238  8.10018574
   1.19558135 10.48975358  7.78414681
  -1.20761556 10.50969254  7.75786172
   2.59690289  8.25132732  8.21231810
  -1.37259471  6.30257043  8.15314441
  11.19384915  6.09381798  7.95266675
   7.47845826  4.06091509  7.80216287
   8.66318171  1.94381012  8.12259223
   5.09594882 12.44389952  7.91881958
  -2.52338085  4.29143156  7.61218705
  10.00189447  4.08280329  7.56483570
  -1.17945789  2.04628090  7.94482556
   9.86017252 -0.11863236  8.19183670
   7.47667484 -0.09491475  7.96165517
   3.75556978 10.39574729  8.04256435
   4.92553820  8.27920261  7.71680187
   8.82513730  6.14555695  7.77595855
   8.67765744 10.38730786  8.37115493
   6.25412856 10.41757837  8.39500355
  -4.90411674  8.38206253  7.76109669
   6.12845733  6.21465518  7.72479696
   3.75867313  6.22198187  7.93099020
   0.01830364  7.84563320  8.55987030
  -0.03594991  7.49760236 12.04380389
  -0.54043154  6.61643290 12.57329325



--------------------------------------------------------------------------------------------------------


 k-point  1 :   0.0000 0.0000 0.0000  plane waves:   63621
 k-point  2 :   0.3333 0.0000 0.0000  plane waves:   63618
 k-point  3 :   0.0000 0.3333 0.0000  plane waves:   63623
 k-point  4 :   0.3333 0.3333 0.0000  plane waves:   63600
 k-point  5 :  -0.3333 0.3333 0.0000  plane waves:   63591

 maximum and minimum number of plane-waves per node :      5323     5278

 maximum number of plane-waves:     63623
 maximum index in each direction: 
   IXMAX=   25   IYMAX=   25   IZMAX=   27
   IXMIN=  -25   IYMIN=  -25   IZMIN=  -27


 parallel 3D FFT for wavefunctions:
    minimum data exchange during FFTs selected (reduces bandwidth)
 parallel 3D FFT for charge:
    minimum data exchange during FFTs selected (reduces bandwidth)


 total amount of memory used by VASP MPI-rank0   111121. kBytes
=======================================================================

   base      :      30000. kBytes
   nonl-proj :      24101. kBytes
   fftplans  :       4941. kBytes
   grid      :      15075. kBytes
   one-center:        155. kBytes
   wavefun   :      36849. kBytes

     INWAV:  cpu time    0.0000: real time    0.0000
 Broyden mixing: mesh for mixing (old mesh)
   NGX = 51   NGY = 51   NGZ = 55
  (NGX  =160   NGY  =160   NGZ  =168)
  gives a total of 143055 points

 initial charge density was supplied:
 charge density of overlapping atoms calculated
 number of electron     280.0000000 magnetization       2.0000000
 keeping initial charge density in first step


--------------------------------------------------------------------------------------------------------


 Maximum index for augmentation-charges          338 (set IRDMAX)


--------------------------------------------------------------------------------------------------------


 First call to EWALD:  gamma=   0.122
 Maximum number of real-space cells 3x 3x 3
 Maximum number of reciprocal cells 3x 3x 3

    FEWALD:  cpu time    0.0133: real time    0.0133


--------------------------------------- Iteration      1(   1)  ---------------------------------------


    POTLOK:  cpu time    0.1925: real time    0.2132
    SETDIJ:  cpu time    0.0115: real time    0.0115
     EDDAV:  cpu time   16.6241: real time   16.6262
 BZINTS: Fermi energy:  8.204139;280.000000 electrons
         Band energy:***********;  BLOECHL correction: -0.025391
       DOS:  cpu time    0.1350: real time    0.1350
    --------------------------------------------
      LOOP:  cpu time   16.9631: real time   16.9859

 eigenvalue-minimisations  :  4072
 total energy-change (2. order) : 0.2610847E+04  (-0.1003095E+05)
 number of electron     280.0000000 magnetization       2.0000000
 augmentation part      280.0000000 magnetization       2.0000000

 Free energy of the ion-electron system (eV)
  ---------------------------------------------------
  alpha Z        PSCENC =       122.80300996
  Ewald energy   TEWEN  =     29047.13960209
  -Hartree energ DENC   =    -40917.84796199
  -exchange      EXHF   =         0.00000000
  -V(xc)+E(xc)   XCENC  =      1058.38044813
  PAW double counting   =     11453.83848114   -11942.90478952
  entropy T*S    EENTRO =         0.00000000
  eigenvalues    EBANDS =     -1382.29756923
  atomic energy  EATOM  =     15171.73615219
  Solvation  Ediel_sol  =         0.00000000
  ---------------------------------------------------
  free energy    TOTEN  =      2610.84737276 eV

  energy without entropy =     2610.84737276  energy(sigma->0) =     2610.84737276


--------------------------------------------------------------------------------------------------------




--------------------------------------- Iteration      1(   2)  ---------------------------------------


     EDDAV:  cpu time   19.2497: real time   19.2519
 BZINTS: Fermi energy: -0.080895;280.000000 electrons
         Band energy:***********;  BLOECHL correction:  0.000000
       DOS:  cpu time    0.0153: real time    0.0153
    --------------------------------------------
      LOOP:  cpu time   19.2649: real time   19.2672

 eigenvalue-minimisations  :  4912
 total energy-change (2. order) :-0.2515973E+04  (-0.2403744E+04)
 number of electron     280.0000000 magnetization       2.0000000
 augmentation part      280.0000000 magnetization       2.0000000

 Free energy of the ion-electron system (eV)
  ---------------------------------------------------
  alpha Z        PSCENC =       122.80300996
  Ewald energy   TEWEN  =     29047.13960209
  -Hartree energ DENC   =    -40917.84796199
  -exchange      EXHF   =         0.00000000
  -V(xc)+E(xc)   XCENC  =      1058.38044813
  PAW double counting   =     11453.83848114   -11942.90478952
  entropy T*S    EENTRO =         0.00000000
  eigenvalues    EBANDS =     -3898.27014055
  atomic energy  EATOM  =     15171.73615219
  Solvation  Ediel_sol  =         0.00000000
  ---------------------------------------------------
  free energy    TOTEN  =        94.87480144 eV

  energy without entropy =       94.87480144  energy(sigma->0) =       94.87480144


--------------------------------------------------------------------------------------------------------




--------------------------------------- Iteration      1(   3)  ---------------------------------------


     EDDAV:  cpu time   16.7771: real time   16.7927
 BZINTS: Fermi energy: -3.636159;280.000000 electrons
         Band energy:***********;  BLOECHL correction:  0.000000
       DOS:  cpu time    0.0174: real time    0.0174
    --------------------------------------------
      LOOP:  cpu time   16.7945: real time   16.8101

 eigenvalue-minimisations  :  4108
 total energy-change (2. order) :-0.5872875E+03  (-0.5830238E+03)
 number of electron     280.0000000 magnetization       2.0000000
 augmentation part      280.0000000 magnetization       2.0000000

 Free energy of the ion-electron system (eV)
  ---------------------------------------------------
  alpha Z        PSCENC =       122.80300996
  Ewald energy   TEWEN  =     29047.13960209
  -Hartree energ DENC   =    -40917.84796199
  -exchange      EXHF   =         0.00000000
  -V(xc)+E(xc)   XCENC  =      1058.38044813
  PAW double counting   =     11453.83848114   -11942.90478952
  entropy T*S    EENTRO =         0.00000000
  eigenvalues    EBANDS =     -4485.55764688
  atomic energy  EATOM  =     15171.73615219
  Solvation  Ediel_sol  =         0.00000000
  ---------------------------------------------------
  free energy    TOTEN  =      -492.41270489 eV

  energy without entropy =     -492.41270489  energy(sigma->0) =     -492.41270489


--------------------------------------------------------------------------------------------------------




--------------------------------------- Iteration      1(   4)  ---------------------------------------


     EDDAV:  cpu time   17.7951: real time   17.7972
 BZINTS: Fermi energy: -4.109917;280.000000 electrons
         Band energy:***********;  BLOECHL correction: -0.003945
       DOS:  cpu time    0.0251: real time    0.0251
    --------------------------------------------
      LOOP:  cpu time   17.8201: real time   17.8223

 eigenvalue-minimisations  :  4392
 total energy-change (2. order) :-0.2701399E+02  (-0.2634578E+02)
 number of electron     280.0000000 magnetization       2.0000000
 augmentation part      280.0000000 magnetization       2.0000000

 Free energy of the ion-electron system (eV)
  ---------------------------------------------------
  alpha Z        PSCENC =       122.80300996
  Ewald energy   TEWEN  =     29047.13960209
  -Hartree energ DENC   =    -40917.84796199
  -exchange      EXHF   =         0.00000000
  -V(xc)+E(xc)   XCENC  =      1058.38044813
  PAW double counting   =     11453.83848114   -11942.90478952
  entropy T*S    EENTRO =         0.00000000
  eigenvalues    EBANDS =     -4512.57164137
  atomic energy  EATOM  =     15171.73615219
  Solvation  Ediel_sol  =         0.00000000
  ---------------------------------------------------
  free energy    TOTEN  =      -519.42669938 eV

  energy without entropy =     -519.42669938  energy(sigma->0) =     -519.42669938


--------------------------------------------------------------------------------------------------------




--------------------------------------- Iteration      1(   5)  ---------------------------------------


     EDDAV:  cpu time   19.5372: real time   19.5398
 BZINTS: Fermi energy: -4.156358;280.000000 electrons
         Band energy:***********;  BLOECHL correction: -0.003081
       DOS:  cpu time    0.0263: real time    0.0263
    CHARGE:  cpu time    0.5944: real time    0.5945
    MIXING:  cpu time    0.0042: real time    0.0043
    --------------------------------------------
      LOOP:  cpu time   20.1621: real time   20.1649

 eigenvalue-minimisations  :  5056
 total energy-change (2. order) :-0.1097248E+01  (-0.1083257E+01)
 number of electron     280.0000023 magnetization       0.0358562
 augmentation part       19.9582037 magnetization       0.0325350

 Broyden mixing:
  rms(total) = 0.40107E+01    rms(broyden)= 0.40072E+01
  rms(prec ) = 0.43987E+01
  weight for this iteration     100.00

 Free energy of the ion-electron system (eV)
  ---------------------------------------------------
  alpha Z        PSCENC =       122.80300996
  Ewald energy   TEWEN  =     29047.13960209
  -Hartree energ DENC   =    -40917.84796199
  -exchange      EXHF   =         0.00000000
  -V(xc)+E(xc)   XCENC  =      1058.38044813
  PAW double counting   =     11453.83848114   -11942.90478952
  entropy T*S    EENTRO =         0.00000000
  eigenvalues    EBANDS =     -4513.66888942
  atomic energy  EATOM  =     15171.73615219
  Solvation  Ediel_sol  =         0.00000000
  ---------------------------------------------------
  free energy    TOTEN  =      -520.52394743 eV

  energy without entropy =     -520.52394743  energy(sigma->0) =     -520.52394743


--------------------------------------------------------------------------------------------------------




--------------------------------------- Iteration      1(   6)  ---------------------------------------


    POTLOK:  cpu time    0.1885: real time    0.1892
    SETDIJ:  cpu time    0.0108: real time    0.0108
     EDDAV:  cpu time   17.6221: real time   17.6238
 BZINTS: Fermi energy: -3.651163;280.000000 electrons
         Band energy:***********;  BLOECHL correction:  0.000000
       DOS:  cpu time    0.0178: real time    0.0178
    CHARGE:  cpu time    0.5685: real time    0.5686
    MIXING:  cpu time    0.0046: real time    0.0079
    --------------------------------------------
      LOOP:  cpu time   18.4124: real time   18.4181

 eigenvalue-minimisations  :  4376
 total energy-change (2. order) : 0.2673112E+02  (-0.5666640E+01)
 number of electron     280.0000011 magnetization      -0.0165526
 augmentation part       18.8020160 magnetization      -0.0068266

 Broyden mixing:
  rms(total) = 0.24254E+01    rms(broyden)= 0.24248E+01
  rms(prec ) = 0.25688E+01
  weight for this iteration     100.00

 eigenvalues of (default mixing * dielectric matrix)
  average eigenvalue GAMMA=   1.3855
  1.3855

 Free energy of the ion-electron system (eV)
  ---------------------------------------------------
  alpha Z        PSCENC =       122.80300996
  Ewald energy   TEWEN  =     29047.13960209
  -Hartree energ DENC   =    -41215.53371994
  -exchange      EXHF   =         0.00000000
  -V(xc)+E(xc)   XCENC  =      1072.59276547
  PAW double counting   =     14701.77696290   -15192.78916120
  entropy T*S    EENTRO =         0.00000000
  eigenvalues    EBANDS =     -4201.51843983
  atomic energy  EATOM  =     15171.73615219
  Solvation  Ediel_sol  =         0.00000000
  ---------------------------------------------------
  free energy    TOTEN  =      -493.79282836 eV

  energy without entropy =     -493.79282836  energy(sigma->0) =     -493.79282836


--------------------------------------------------------------------------------------------------------




--------------------------------------- Iteration      1(   7)  ---------------------------------------


    POTLOK:  cpu time    0.1824: real time    0.1860
    SETDIJ:  cpu time    0.0110: real time    0.0110
     EDDAV:  cpu time   17.2010: real time   17.2023
 BZINTS: Fermi energy: -3.451113;280.000000 electrons
         Band energy:***********;  BLOECHL correction:  0.000000
       DOS:  cpu time    0.0163: real time    0.0163
    CHARGE:  cpu time    0.6097: real time    0.6099
    MIXING:  cpu time    0.0040: real time    0.0044
    --------------------------------------------
      LOOP:  cpu time   18.0245: real time   18.0299

 eigenvalue-minimisations  :  4240
 total energy-change (2. order) : 0.3995148E+01  (-0.3723817E+01)
 number of electron     280.0000009 magnetization      -0.0038848
 augmentation part       18.3965689 magnetization      -0.0021654

 Broyden mixing:
  rms(total) = 0.15737E+01    rms(broyden)= 0.15731E+01
  rms(prec ) = 0.16848E+01
  weight for this iteration     100.00

 eigenvalues of (default mixing * dielectric matrix)
  average eigenvalue GAMMA=   1.5081
  1.0141  2.0022

 Free energy of the ion-electron system (eV)
  ---------------------------------------------------
  alpha Z        PSCENC =       122.80300996
  Ewald energy   TEWEN  =     29047.13960209
  -Hartree energ DENC   =    -41472.86410101
  -exchange      EXHF   =         0.00000000
  -V(xc)+E(xc)   XCENC  =      1082.99682023
  PAW double counting   =     18940.85761707   -19434.80424312
  entropy T*S    EENTRO =         0.00000000
  eigenvalues    EBANDS =     -3947.66253812
  atomic energy  EATOM  =     15171.73615219
  Solvation  Ediel_sol  =         0.00000000
  ---------------------------------------------------
  free energy    TOTEN  =      -489.79768073 eV

  energy without entropy =     -489.79768073  energy(sigma->0) =     -489.79768073


--------------------------------------------------------------------------------------------------------




--------------------------------------- Iteration      1(   8)  ---------------------------------------


    POTLOK:  cpu time    0.1823: real time    0.1837
    SETDIJ:  cpu time    0.0110: real time    0.0110
     EDDAV:  cpu time   16.8579: real time   16.8592
 BZINTS: Fermi energy: -2.925981;280.000000 electrons
         Band energy:***********;  BLOECHL correction:  0.000000
       DOS:  cpu time    0.0171: real time    0.0171
    CHARGE:  cpu time    0.5654: real time    0.5655
    MIXING:  cpu time    0.0043: real time    0.0043
    --------------------------------------------
      LOOP:  cpu time   17.6380: real time   17.6407

 eigenvalue-minimisations  :  4176
 total energy-change (2. order) : 0.1444889E+01  (-0.1845609E+01)
 number of electron     280.0000010 magnetization       0.0107729
 augmentation part       18.2474877 magnetization       0.0121418

 Broyden mixing:
  rms(total) = 0.10939E+01    rms(broyden)= 0.10935E+01
  rms(prec ) = 0.11596E+01
  weight for this iteration     100.00

 eigenvalues of (default mixing * dielectric matrix)
  average eigenvalue GAMMA=   1.6963
  3.1915  1.2565  0.6408

 Free energy of the ion-electron system (eV)
  ---------------------------------------------------
  alpha Z        PSCENC =       122.80300996
  Ewald energy   TEWEN  =     29047.13960209
  -Hartree energ DENC   =    -41571.50379739
  -exchange      EXHF   =         0.00000000
  -V(xc)+E(xc)   XCENC  =      1086.81773486
  PAW double counting   =     21735.81044508   -22231.75891277
  entropy T*S    EENTRO =         0.00000000
  eigenvalues    EBANDS =     -3849.39702581
  atomic energy  EATOM  =     15171.73615219
  Solvation  Ediel_sol  =         0.00000000
  ---------------------------------------------------
  free energy    TOTEN  =      -488.35279181 eV

  energy without entropy =     -488.35279181  energy(sigma->0) =     -488.35279181


--------------------------------------------------------------------------------------------------------




--------------------------------------- Iteration      1(   9)  ---------------------------------------


    POTLOK:  cpu time    0.1883: real time    0.1890
    SETDIJ:  cpu time    0.0111: real time    0.0111
     EDDAV:  cpu time   17.0298: real time   17.0313
 BZINTS: Fermi energy: -2.354589;280.000000 electrons
         Band energy:***********;  BLOECHL correction:  0.000000
       DOS:  cpu time    0.0166: real time    0.0166
    CHARGE:  cpu time    0.5649: real time    0.5650
    MIXING:  cpu time    0.0047: real time    0.0047
    --------------------------------------------
      LOOP:  cpu time   17.8154: real time   17.8177

 eigenvalue-minimisations  :  4192
 total energy-change (2. order) : 0.5740301E+00  (-0.6130689E+00)
 number of electron     280.0000011 magnetization       0.0033134
 augmentation part       18.2771511 magnetization       0.0037051

 Broyden mixing:
  rms(total) = 0.47566E+00    rms(broyden)= 0.47541E+00
  rms(prec ) = 0.57270E+00
  weight for this iteration     100.00

 eigenvalues of (default mixing * dielectric matrix)
  average eigenvalue GAMMA=   1.6399
  3.6598  1.3241  0.8750  0.7005

 Free energy of the ion-electron system (eV)
  ---------------------------------------------------
  alpha Z        PSCENC =       122.80300996
  Ewald energy   TEWEN  =     29047.13960209
  -Hartree energ DENC   =    -41679.06972621
  -exchange      EXHF   =         0.00000000
  -V(xc)+E(xc)   XCENC  =      1090.64161844
  PAW double counting   =     26190.35495521   -26690.39155467
  entropy T*S    EENTRO =         0.00000000
  eigenvalues    EBANDS =     -3740.99281875
  atomic energy  EATOM  =     15171.73615219
  Solvation  Ediel_sol  =         0.00000000
  ---------------------------------------------------
  free energy    TOTEN  =      -487.77876174 eV

  energy without entropy =     -487.77876174  energy(sigma->0) =     -487.77876174


--------------------------------------------------------------------------------------------------------




--------------------------------------- Iteration      1(  10)  ---------------------------------------


    POTLOK:  cpu time    0.1882: real time    0.1888
    SETDIJ:  cpu time    0.0113: real time    0.0113
     EDDAV:  cpu time   19.2789: real time   19.2803
 BZINTS: Fermi energy: -2.415854;280.000000 electrons
         Band energy:***********;  BLOECHL correction:  0.000000
       DOS:  cpu time    0.0159: real time    0.0159
    CHARGE:  cpu time    0.5884: real time    0.5885
    MIXING:  cpu time    0.0046: real time    0.0046
    --------------------------------------------
      LOOP:  cpu time   20.0874: real time   20.0895

 eigenvalue-minimisations  :  4904
 total energy-change (2. order) : 0.1109862E+00  (-0.6320661E+00)
 number of electron     280.0000012 magnetization      -0.0007890
 augmentation part       18.1974892 magnetization      -0.0006541

 Broyden mixing:
  rms(total) = 0.30051E+00    rms(broyden)= 0.29962E+00
  rms(prec ) = 0.37714E+00
  weight for this iteration     100.00

 eigenvalues of (default mixing * dielectric matrix)
  average eigenvalue GAMMA=   1.4889
  3.7980  1.4331  1.0741  0.5697  0.5697

 Free energy of the ion-electron system (eV)
  ---------------------------------------------------
  alpha Z        PSCENC =       122.80300996
  Ewald energy   TEWEN  =     29047.13960209
  -Hartree energ DENC   =    -41682.88059614
  -exchange      EXHF   =         0.00000000
  -V(xc)+E(xc)   XCENC  =      1091.14565127
  PAW double counting   =     27386.52203585   -27886.25473369
  entropy T*S    EENTRO =         0.00000000
  eigenvalues    EBANDS =     -3737.87889711
  atomic energy  EATOM  =     15171.73615219
  Solvation  Ediel_sol  =         0.00000000
  ---------------------------------------------------
  free energy    TOTEN  =      -487.66777558 eV

  energy without entropy =     -487.66777558  energy(sigma->0) =     -487.66777558


--------------------------------------------------------------------------------------------------------




--------------------------------------- Iteration      1(  11)  ---------------------------------------


    POTLOK:  cpu time    0.1884: real time    0.1889
    SETDIJ:  cpu time    0.0115: real time    0.0115
     EDDAV:  cpu time   17.0018: real time   17.0044
 BZINTS: Fermi energy: -2.371510;280.000000 electrons
         Band energy:***********;  BLOECHL correction: -0.004723
       DOS:  cpu time    0.0240: real time    0.0240
    CHARGE:  cpu time    0.5877: real time    0.5878
    MIXING:  cpu time    0.0053: real time    0.0053
    --------------------------------------------
      LOOP:  cpu time   17.8187: real time   17.8219

 eigenvalue-minimisations  :  4208
 total energy-change (2. order) : 0.1619152E+00  (-0.1200811E+00)
 number of electron     280.0000012 magnetization      -0.0023266
 augmentation part       18.2533629 magnetization      -0.0011986

 Broyden mixing:
  rms(total) = 0.17602E+00    rms(broyden)= 0.17585E+00
  rms(prec ) = 0.21131E+00
  weight for this iteration     100.00

 eigenvalues of (default mixing * dielectric matrix)
  average eigenvalue GAMMA=   1.4064
  3.8334  1.5256  1.1795  0.6515  0.6515  0.5968

 Free energy of the ion-electron system (eV)
  ---------------------------------------------------
  alpha Z        PSCENC =       122.80300996
  Ewald energy   TEWEN  =     29047.13960209
  -Hartree energ DENC   =    -41670.37111061
  -exchange      EXHF   =         0.00000000
  -V(xc)+E(xc)   XCENC  =      1090.69837759
  PAW double counting   =     27906.98607604   -28406.92791870
  entropy T*S    EENTRO =         0.00000000
  eigenvalues    EBANDS =     -3749.57004896
  atomic energy  EATOM  =     15171.73615219
  Solvation  Ediel_sol  =         0.00000000
  ---------------------------------------------------
  free energy    TOTEN  =      -487.50586041 eV

  energy without entropy =     -487.50586041  energy(sigma->0) =     -487.50586041


--------------------------------------------------------------------------------------------------------




--------------------------------------- Iteration      1(  12)  ---------------------------------------


    POTLOK:  cpu time    0.1756: real time    0.1895
    SETDIJ:  cpu time    0.0110: real time    0.0110
     EDDAV:  cpu time   18.1566: real time   18.1580
 BZINTS: Fermi energy: -2.376469;280.000000 electrons
         Band energy:***********;  BLOECHL correction:  0.000000
       DOS:  cpu time    0.0161: real time    0.0161
    CHARGE:  cpu time    0.5870: real time    0.5871
    MIXING:  cpu time    0.0054: real time    0.0054
    --------------------------------------------
      LOOP:  cpu time   18.9519: real time   18.9672

 eigenvalue-minimisations  :  4480
 total energy-change (2. order) : 0.3635265E-01  (-0.6298835E-01)
 number of electron     280.0000012 magnetization      -0.0000296
 augmentation part       18.2391046 magnetization      -0.0001252

 Broyden mixing:
  rms(total) = 0.14123E+00    rms(broyden)= 0.14081E+00
  rms(prec ) = 0.18017E+00
  weight for this iteration     100.00

 eigenvalues of (default mixing * dielectric matrix)
  average eigenvalue GAMMA=   1.4281
  3.7867  2.1157  1.3275  0.9848  0.6554  0.6554  0.4710

 Free energy of the ion-electron system (eV)
  ---------------------------------------------------
  alpha Z        PSCENC =       122.80300996
  Ewald energy   TEWEN  =     29047.13960209
  -Hartree energ DENC   =    -41657.20115795
  -exchange      EXHF   =         0.00000000
  -V(xc)+E(xc)   XCENC  =      1090.28910204
  PAW double counting   =     28094.41612027   -28593.91786154
  entropy T*S    EENTRO =         0.00000000
  eigenvalues    EBANDS =     -3762.73447481
  atomic energy  EATOM  =     15171.73615219
  Solvation  Ediel_sol  =         0.00000000
  ---------------------------------------------------
  free energy    TOTEN  =      -487.46950775 eV

  energy without entropy =     -487.46950775  energy(sigma->0) =     -487.46950775


--------------------------------------------------------------------------------------------------------




--------------------------------------- Iteration      1(  13)  ---------------------------------------


    POTLOK:  cpu time    0.1838: real time    0.1843
    SETDIJ:  cpu time    0.0113: real time    0.0113
     EDDAV:  cpu time   17.4113: real time   17.4126
 BZINTS: Fermi energy: -2.510878;280.000000 electrons
         Band energy:***********;  BLOECHL correction:  0.000000
       DOS:  cpu time    0.0165: real time    0.0166
    CHARGE:  cpu time    0.5933: real time    0.5933
    MIXING:  cpu time    0.0057: real time    0.0057
    --------------------------------------------
      LOOP:  cpu time   18.2218: real time   18.2237

 eigenvalue-minimisations  :  4392
 total energy-change (2. order) :-0.9987316E-01  (-0.2032323E+00)
 number of electron     280.0000010 magnetization       0.0007525
 augmentation part       18.2718618 magnetization       0.0008329

 Broyden mixing:
  rms(total) = 0.21735E+00    rms(broyden)= 0.21661E+00
  rms(prec ) = 0.30932E+00
  weight for this iteration     100.00

 eigenvalues of (default mixing * dielectric matrix)
  average eigenvalue GAMMA=   1.3424
  3.8242  2.3411  1.2766  1.0745  0.6603  0.6603  0.5238  0.3788

 Free energy of the ion-electron system (eV)
  ---------------------------------------------------
  alpha Z        PSCENC =       122.80300996
  Ewald energy   TEWEN  =     29047.13960209
  -Hartree energ DENC   =    -41640.70978425
  -exchange      EXHF   =         0.00000000
  -V(xc)+E(xc)   XCENC  =      1089.71804787
  PAW double counting   =     28197.78910363   -28696.98200442
  entropy T*S    EENTRO =         0.00000000
  eigenvalues    EBANDS =     -3779.06350799
  atomic energy  EATOM  =     15171.73615219
  Solvation  Ediel_sol  =         0.00000000
  ---------------------------------------------------
  free energy    TOTEN  =      -487.56938091 eV

  energy without entropy =     -487.56938091  energy(sigma->0) =     -487.56938091


--------------------------------------------------------------------------------------------------------




--------------------------------------- Iteration      1(  14)  ---------------------------------------


    POTLOK:  cpu time    0.1866: real time    0.1870
    SETDIJ:  cpu time    0.0120: real time    0.0120
     EDDAV:  cpu time   17.2749: real time   17.2765
 BZINTS: Fermi energy: -2.435859;280.000000 electrons
         Band energy:***********;  BLOECHL correction:  0.000000
       DOS:  cpu time    0.0165: real time    0.0165
    CHARGE:  cpu time    0.5707: real time    0.5708
    MIXING:  cpu time    0.0063: real time    0.0063
    --------------------------------------------
      LOOP:  cpu time   18.0671: real time   18.0691

 eigenvalue-minimisations  :  4272
 total energy-change (2. order) : 0.1237948E+00  (-0.2833186E-01)
 number of electron     280.0000011 magnetization      -0.0001504
 augmentation part       18.2631904 magnetization      -0.0001027

 Broyden mixing:
  rms(total) = 0.11098E+00    rms(broyden)= 0.11093E+00
  rms(prec ) = 0.15425E+00
  weight for this iteration     100.00

 eigenvalues of (default mixing * dielectric matrix)
  average eigenvalue GAMMA=   1.3349
  3.7912  2.5892  1.3284  0.9504  0.9504  0.8916  0.5353  0.5353  0.4424

 Free energy of the ion-electron system (eV)
  ---------------------------------------------------
  alpha Z        PSCENC =       122.80300996
  Ewald energy   TEWEN  =     29047.13960209
  -Hartree energ DENC   =    -41637.60066620
  -exchange      EXHF   =         0.00000000
  -V(xc)+E(xc)   XCENC  =      1089.59729327
  PAW double counting   =     28265.54192361   -28764.63971953
  entropy T*S    EENTRO =         0.00000000
  eigenvalues    EBANDS =     -3782.02318145
  atomic energy  EATOM  =     15171.73615219
  Solvation  Ediel_sol  =         0.00000000
  ---------------------------------------------------
  free energy    TOTEN  =      -487.44558607 eV

  energy without entropy =     -487.44558607  energy(sigma->0) =     -487.44558607


--------------------------------------------------------------------------------------------------------




--------------------------------------- Iteration      1(  15)  ---------------------------------------


    POTLOK:  cpu time    0.1910: real time    0.1916
    SETDIJ:  cpu time    0.0111: real time    0.0111
     EDDAV:  cpu time   17.3423: real time   17.3438
 BZINTS: Fermi energy: -2.452540;280.000000 electrons
         Band energy:***********;  BLOECHL correction: -0.006805
       DOS:  cpu time    0.0244: real time    0.0244
    CHARGE:  cpu time    0.6184: real time    0.6184
    MIXING:  cpu time    0.0071: real time    0.0072
    --------------------------------------------
      LOOP:  cpu time   18.1943: real time   18.1965

 eigenvalue-minimisations  :  4296
 total energy-change (2. order) : 0.6797376E-03  (-0.2307239E-01)
 number of electron     280.0000011 magnetization      -0.0007556
 augmentation part       18.2738757 magnetization       0.0006407

 Broyden mixing:
  rms(total) = 0.65191E-01    rms(broyden)= 0.64179E-01
  rms(prec ) = 0.91156E-01
  weight for this iteration     100.00

 eigenvalues of (default mixing * dielectric matrix)
  average eigenvalue GAMMA=   1.2659
  3.8206  2.5650  1.3697  0.9896  0.9896  0.9422  0.5043  0.5043  0.5645  0.4094

 Free energy of the ion-electron system (eV)
  ---------------------------------------------------
  alpha Z        PSCENC =       122.80300996
  Ewald energy   TEWEN  =     29047.13960209
  -Hartree energ DENC   =    -41635.22144776
  -exchange      EXHF   =         0.00000000
  -V(xc)+E(xc)   XCENC  =      1089.51599113
  PAW double counting   =     28289.06463979   -28788.17294931
  entropy T*S    EENTRO =         0.00000000
  eigenvalues    EBANDS =     -3784.30990441
  atomic energy  EATOM  =     15171.73615219
  Solvation  Ediel_sol  =         0.00000000
  ---------------------------------------------------
  free energy    TOTEN  =      -487.44490633 eV

  energy without entropy =     -487.44490633  energy(sigma->0) =     -487.44490633


--------------------------------------------------------------------------------------------------------




--------------------------------------- Iteration      1(  16)  ---------------------------------------


    POTLOK:  cpu time    0.1829: real time    0.1869
    SETDIJ:  cpu time    0.0116: real time    0.0116
     EDDAV:  cpu time   16.4576: real time   16.4588
 BZINTS: Fermi energy: -2.435930;280.000000 electrons
         Band energy:***********;  BLOECHL correction: -0.005109
       DOS:  cpu time    0.0235: real time    0.0235
    CHARGE:  cpu time    0.5911: real time    0.5912
    MIXING:  cpu time    0.0070: real time    0.0070
    --------------------------------------------
      LOOP:  cpu time   17.2738: real time   17.2790

 eigenvalue-minimisations  :  4056
 total energy-change (2. order) :-0.4145775E-02  (-0.1626748E-01)
 number of electron     280.0000011 magnetization       0.0000585
 augmentation part       18.2657701 magnetization      -0.0006173

 Broyden mixing:
  rms(total) = 0.69440E-01    rms(broyden)= 0.69145E-01
  rms(prec ) = 0.97538E-01
  weight for this iteration     100.00

 eigenvalues of (default mixing * dielectric matrix)
  average eigenvalue GAMMA=   1.2353
  3.8172  2.4920  1.4360  1.1696  1.1696  0.9574  0.6063  0.6063  0.4612  0.4612
  0.4116

 Free energy of the ion-electron system (eV)
  ---------------------------------------------------
  alpha Z        PSCENC =       122.80300996
  Ewald energy   TEWEN  =     29047.13960209
  -Hartree energ DENC   =    -41635.61642170
  -exchange      EXHF   =         0.00000000
  -V(xc)+E(xc)   XCENC  =      1089.52701023
  PAW double counting   =     28305.62387694   -28804.72689518
  entropy T*S    EENTRO =         0.00000000
  eigenvalues    EBANDS =     -3783.93538663
  atomic energy  EATOM  =     15171.73615219
  Solvation  Ediel_sol  =         0.00000000
  ---------------------------------------------------
  free energy    TOTEN  =      -487.44905210 eV

  energy without entropy =     -487.44905210  energy(sigma->0) =     -487.44905210


--------------------------------------------------------------------------------------------------------




--------------------------------------- Iteration      1(  17)  ---------------------------------------


    POTLOK:  cpu time    0.1847: real time    0.1857
    SETDIJ:  cpu time    0.0109: real time    0.0109
     EDDAV:  cpu time   16.9927: real time   16.9939
 BZINTS: Fermi energy: -2.434184;280.000000 electrons
         Band energy:***********;  BLOECHL correction: -0.008078
       DOS:  cpu time    0.0217: real time    0.0217
    CHARGE:  cpu time    0.6060: real time    0.6061
    MIXING:  cpu time    0.0077: real time    0.0078
    --------------------------------------------
      LOOP:  cpu time   17.8238: real time   17.8261

 eigenvalue-minimisations  :  4168
 total energy-change (2. order) : 0.4050250E-02  (-0.5075728E-02)
 number of electron     280.0000011 magnetization      -0.0035888
 augmentation part       18.2687418 magnetization      -0.0002035

 Broyden mixing:
  rms(total) = 0.43867E-01    rms(broyden)= 0.43407E-01
  rms(prec ) = 0.60201E-01
  weight for this iteration     100.00

 eigenvalues of (default mixing * dielectric matrix)
  average eigenvalue GAMMA=   1.2271
  3.7966  2.5479  1.4499  1.2003  1.2003  0.9670  0.9670  0.7715  0.5301  0.5301
  0.4369  0.3278

 Free energy of the ion-electron system (eV)
  ---------------------------------------------------
  alpha Z        PSCENC =       122.80300996
  Ewald energy   TEWEN  =     29047.13960209
  -Hartree energ DENC   =    -41636.19668209
  -exchange      EXHF   =         0.00000000
  -V(xc)+E(xc)   XCENC  =      1089.55131435
  PAW double counting   =     28309.69461884   -28808.82406131
  entropy T*S    EENTRO =         0.00000000
  eigenvalues    EBANDS =     -3783.34895588
  atomic energy  EATOM  =     15171.73615219
  Solvation  Ediel_sol  =         0.00000000
  ---------------------------------------------------
  free energy    TOTEN  =      -487.44500185 eV

  energy without entropy =     -487.44500185  energy(sigma->0) =     -487.44500185


--------------------------------------------------------------------------------------------------------




--------------------------------------- Iteration      1(  18)  ---------------------------------------


    POTLOK:  cpu time    0.1978: real time    0.1981
    SETDIJ:  cpu time    0.0116: real time    0.0116
     EDDAV:  cpu time   17.7334: real time   17.7368
 BZINTS: Fermi energy: -2.429886;280.000000 electrons
         Band energy:***********;  BLOECHL correction: -0.007520
       DOS:  cpu time    0.0239: real time    0.0239
    CHARGE:  cpu time    0.6208: real time    0.6209
    MIXING:  cpu time    0.0081: real time    0.0081
    --------------------------------------------
      LOOP:  cpu time   18.5955: real time   18.5993

 eigenvalue-minimisations  :  4312
 total energy-change (2. order) :-0.9244707E-03  (-0.2435504E-02)
 number of electron     280.0000012 magnetization      -0.0029836
 augmentation part       18.2603819 magnetization      -0.0027681

 Broyden mixing:
  rms(total) = 0.32621E-01    rms(broyden)= 0.32432E-01
  rms(prec ) = 0.40291E-01
  weight for this iteration     100.00

 eigenvalues of (default mixing * dielectric matrix)
  average eigenvalue GAMMA=   1.1533
  3.7933  2.5564  1.4663  1.2184  1.2184  1.0183  1.0183  0.7521  0.5294  0.5294
  0.4390  0.3282  0.1255

 Free energy of the ion-electron system (eV)
  ---------------------------------------------------
  alpha Z        PSCENC =       122.80300996
  Ewald energy   TEWEN  =     29047.13960209
  -Hartree energ DENC   =    -41636.48945605
  -exchange      EXHF   =         0.00000000
  -V(xc)+E(xc)   XCENC  =      1089.56208468
  PAW double counting   =     28311.08791932   -28810.22440031
  entropy T*S    EENTRO =         0.00000000
  eigenvalues    EBANDS =     -3783.06083820
  atomic energy  EATOM  =     15171.73615219
  Solvation  Ediel_sol  =         0.00000000
  ---------------------------------------------------
  free energy    TOTEN  =      -487.44592632 eV

  energy without entropy =     -487.44592632  energy(sigma->0) =     -487.44592632


--------------------------------------------------------------------------------------------------------




--------------------------------------- Iteration      1(  19)  ---------------------------------------


    POTLOK:  cpu time    0.1838: real time    0.1842
    SETDIJ:  cpu time    0.0113: real time    0.0113
     EDDAV:  cpu time   14.4910: real time   14.4921
 BZINTS: Fermi energy: -2.430835;280.000000 electrons
         Band energy:***********;  BLOECHL correction: -0.007460
       DOS:  cpu time    0.0244: real time    0.0244
    CHARGE:  cpu time    0.5966: real time    0.5966
    MIXING:  cpu time    0.0089: real time    0.0089
    --------------------------------------------
      LOOP:  cpu time   15.3159: real time   15.3175

 eigenvalue-minimisations  :  3400
 total energy-change (2. order) :-0.2543585E-03  (-0.1196436E-03)
 number of electron     280.0000012 magnetization      -0.0085918
 augmentation part       18.2614269 magnetization      -0.0113823

 Broyden mixing:
  rms(total) = 0.34037E-01    rms(broyden)= 0.34019E-01
  rms(prec ) = 0.37877E-01
  weight for this iteration     100.00

 eigenvalues of (default mixing * dielectric matrix)
  average eigenvalue GAMMA=   1.1381
  3.8045  2.6437  1.4939  1.3619  1.3619  0.9889  0.9889  0.7123  0.5036  0.5036
  0.5671  0.4519  0.2970  0.2538

 Free energy of the ion-electron system (eV)
  ---------------------------------------------------
  alpha Z        PSCENC =       122.80300996
  Ewald energy   TEWEN  =     29047.13960209
  -Hartree energ DENC   =    -41636.46106829
  -exchange      EXHF   =         0.00000000
  -V(xc)+E(xc)   XCENC  =      1089.56153147
  PAW double counting   =     28311.00591880   -28810.14443090
  entropy T*S    EENTRO =         0.00000000
  eigenvalues    EBANDS =     -3783.08689601
  atomic energy  EATOM  =     15171.73615219
  Solvation  Ediel_sol  =         0.00000000
  ---------------------------------------------------
  free energy    TOTEN  =      -487.44618068 eV

  energy without entropy =     -487.44618068  energy(sigma->0) =     -487.44618068


--------------------------------------------------------------------------------------------------------




--------------------------------------- Iteration      1(  20)  ---------------------------------------


[...]
   -.227E+02 0.976E+02 0.432E+02   0.235E+02 -.996E+02 -.433E+02   -.518E+00 0.215E+01 0.116E+00   -.179E-01 -.665E-01 -.120E-01
   -.693E+02 -.223E+02 0.335E+02   0.714E+02 0.237E+02 -.334E+02   -.217E+01 -.131E+01 -.169E+00   -.124E-01 -.838E-02 0.658E-02
   0.398E+02 -.680E+02 0.257E+01   -.405E+02 0.658E+02 -.264E+01   0.495E+00 0.209E+01 0.372E-01   0.929E-01 0.956E-01 0.121E-01
   0.765E+02 -.792E+00 0.134E+02   -.742E+02 0.210E+01 -.134E+02   -.229E+01 -.147E+01 -.199E-02   0.914E-01 0.481E-02 0.728E-02
   -.540E+02 0.330E+02 -.829E+01   0.511E+02 -.314E+02 0.807E+01   0.279E+01 -.152E+01 0.217E+00   0.177E-01 0.368E-01 0.455E-02
   -.285E+02 0.102E+02 -.246E+01   0.278E+02 -.858E+01 0.205E+01   0.973E+00 -.171E+01 0.397E+00   -.174E+00 0.155E+00 0.328E-01
   -.287E+01 0.117E+02 0.641E+02   0.272E+01 -.142E+02 -.639E+02   0.106E+00 0.243E+01 -.234E+00   -.535E-02 -.290E-01 0.245E-01
   0.255E+02 0.911E+01 -.134E+02   -.248E+02 -.753E+01 0.130E+02   -.974E+00 -.176E+01 0.295E+00   0.201E+00 0.217E+00 0.404E-01
   0.158E+01 -.555E+02 -.332E+01   -.157E+01 0.530E+02 0.286E+01   0.561E-01 0.240E+01 0.475E+00   -.232E-01 -.137E+00 0.165E-01
   0.650E+02 0.357E+02 0.331E+02   -.625E+02 -.342E+02 -.325E+02   -.250E+01 -.148E+01 -.619E+00   -.720E-01 -.929E-01 0.117E-01
   -.712E+02 0.407E+02 0.286E+02   0.687E+02 -.390E+02 -.282E+02   0.261E+01 -.163E+01 -.450E+00   -.279E-02 -.768E-01 0.212E-01
   0.614E+02 -.254E+02 0.125E+02   -.635E+02 0.268E+02 -.122E+02   0.216E+01 -.130E+01 -.245E+00   0.250E-01 -.105E-01 0.471E-02
   0.172E+02 0.974E+02 0.589E+02   -.181E+02 -.995E+02 -.591E+02   0.639E+00 0.216E+01 0.219E+00   0.157E-01 -.814E-01 -.243E-01
   -.737E+02 -.460E+02 -.208E+02   0.759E+02 0.473E+02 0.211E+02   -.204E+01 -.143E+01 -.304E+00   -.697E-01 -.561E-01 -.543E-03
   -.405E+02 -.659E+02 0.107E+02   0.412E+02 0.638E+02 -.106E+02   -.548E+00 0.213E+01 -.760E-01   -.851E-01 0.641E-01 0.125E-01
   0.411E+02 0.266E+02 -.168E+02   -.383E+02 -.253E+02 0.164E+02   -.266E+01 -.131E+01 0.350E+00   -.167E-01 0.269E-01 0.306E-02
   -.869E+02 0.517E+01 0.101E+02   0.845E+02 -.364E+01 -.102E+02   0.254E+01 -.164E+01 0.607E-01   -.900E-01 -.744E-02 0.106E-01
   0.873E+02 -.347E+02 0.290E+02   -.896E+02 0.356E+02 -.291E+02   0.225E+01 -.105E+01 0.199E+00   -.681E-02 0.163E+00 -.138E-02
   -.521E+01 0.801E+02 -.520E+02   0.509E+01 -.827E+02 0.523E+02   0.112E+00 0.258E+01 -.379E+00   0.431E-02 0.488E-01 0.121E-03
   -.913E+02 -.314E+02 0.350E+02   0.936E+02 0.324E+02 -.351E+02   -.229E+01 -.997E+00 0.157E+00   0.350E-02 0.921E-01 -.448E-02
   0.770E+01 0.471E+02 0.425E+02   -.866E+01 -.471E+02 -.425E+02   0.909E+00 -.596E-01 -.223E-02   0.729E-01 -.139E+00 0.361E-01
   -.179E+03 -.545E+02 0.627E+02   0.210E+03 0.726E+02 -.666E+02   -.309E+02 -.180E+02 0.392E+01   -.457E-01 -.719E-01 0.152E-01
   0.171E+03 -.140E+03 -.792E+02   -.201E+03 0.158E+03 0.859E+02   0.300E+02 -.182E+02 -.668E+01   0.101E+00 -.374E-01 -.213E-02
   -.454E+00 0.202E+03 0.873E+02   0.572E+00 -.236E+03 -.915E+02   -.349E+00 0.345E+02 0.426E+01   0.204E-01 -.141E+00 -.592E-03
   -.480E+02 0.218E+03 0.107E+03   0.481E+02 -.251E+03 -.113E+03   -.182E+00 0.337E+02 0.659E+01   -.418E-01 -.905E-01 -.290E-02
   0.177E+03 -.938E+02 -.328E+02   -.207E+03 0.113E+03 0.339E+02   0.307E+02 -.185E+02 -.105E+01   0.949E-01 -.136E+00 0.848E-02
   -.157E+03 -.109E+03 0.914E+02   0.187E+03 0.126E+03 -.989E+02   -.302E+02 -.176E+02 0.745E+01   0.245E-02 -.170E-02 0.999E-02
   -.231E+01 0.107E+02 0.167E+02   0.228E+01 -.111E+02 -.176E+02   0.447E-01 0.217E+00 0.903E+00   0.669E-02 0.191E-01 0.422E-02
   0.472E+02 -.563E+02 0.209E+01   -.493E+02 0.596E+02 -.193E+01   0.201E+01 -.330E+01 -.174E+00   0.949E-01 0.606E-01 0.882E-02
   -.251E+02 -.113E+03 -.960E+02   0.510E+02 0.130E+03 0.104E+03   -.260E+02 -.175E+02 -.835E+01   0.250E+00 0.141E+00 0.355E-01
   0.202E+02 0.549E+02 0.647E+01   -.397E+02 -.452E+02 -.318E+01   0.196E+02 -.102E+02 -.337E+01   -.198E+00 0.288E+00 0.902E-01
   -.318E+02 0.890E+02 0.123E+03   0.322E+02 -.122E+03 -.129E+03   -.214E+00 0.330E+02 0.568E+01   -.101E+00 -.602E-01 0.406E-01
   0.315E+02 0.890E+02 0.135E+03   -.330E+02 -.122E+03 -.141E+03   0.127E+01 0.328E+02 0.637E+01   0.101E+00 -.474E-01 0.419E-01
   0.265E+02 -.113E+03 -.708E+02   -.525E+02 0.130E+03 0.781E+02   0.262E+02 -.178E+02 -.729E+01   -.250E+00 0.984E-01 0.392E-01
   -.170E+02 0.601E+02 -.112E+02   0.362E+02 -.510E+02 0.155E+02   -.194E+02 -.957E+01 -.447E+01   0.258E+00 0.345E+00 0.865E-01
   0.647E+02 0.357E+02 -.845E+01   -.685E+02 -.386E+02 0.109E+02   0.393E+01 0.281E+01 -.243E+01   0.104E+00 0.157E+00 0.517E-03
   0.141E+02 -.254E+02 0.308E+02   -.152E+02 0.289E+02 -.319E+02   0.111E+01 -.295E+01 0.989E+00   -.858E-01 -.280E+00 0.440E-01
   -.169E+03 -.898E+02 -.618E+02   0.200E+03 0.109E+03 0.651E+02   -.300E+02 -.188E+02 -.326E+01   -.123E+00 -.161E+00 0.426E-02
   0.155E+03 -.116E+03 0.588E+02   -.186E+03 0.134E+03 -.646E+02   0.304E+02 -.182E+02 0.577E+01   0.828E-03 -.129E-01 0.570E-02
   0.471E+02 0.218E+03 0.137E+03   -.480E+02 -.251E+03 -.145E+03   0.103E+01 0.332E+02 0.818E+01   0.744E-01 -.171E+00 -.311E-01
   0.337E+01 0.197E+03 0.126E+03   -.479E+01 -.230E+03 -.132E+03   0.168E+01 0.340E+02 0.664E+01   -.546E-01 -.229E+00 -.330E-01
   0.181E+03 -.600E+02 -.400E+01   -.212E+03 0.784E+02 0.521E+01   0.309E+02 -.183E+02 -.124E+01   0.682E-01 -.949E-01 0.721E-02
   -.171E+03 -.137E+03 -.767E+02   0.201E+03 0.155E+03 0.830E+02   -.300E+02 -.182E+02 -.630E+01   -.103E+00 -.501E-01 -.292E-03
   -.134E+01 -.411E+02 0.293E+02   0.139E+01 0.425E+02 -.303E+02   -.246E-01 -.121E+01 0.106E+01   -.106E-01 -.414E-01 0.725E-02
   -.184E+02 -.539E+02 0.145E+01   0.170E+02 0.569E+02 -.133E+01   0.135E+01 -.312E+01 -.130E+00   -.891E-01 0.520E-01 0.993E-02
   -.206E+03 -.779E+02 0.120E+03   0.236E+03 0.953E+02 -.128E+03   -.296E+02 -.175E+02 0.786E+01   -.311E-01 0.120E+00 -.603E-02
   0.183E+03 -.104E+03 0.320E+02   -.213E+03 0.121E+03 -.322E+02   0.309E+02 -.171E+02 0.117E+00   -.979E-01 0.926E-01 0.212E-01
   0.235E+02 0.180E+03 -.133E+03   -.235E+02 -.214E+03 0.142E+03   -.420E-01 0.341E+02 -.916E+01   0.766E-02 0.678E-01 0.401E-02
   -.241E+02 0.178E+03 -.140E+03   0.228E+02 -.212E+03 0.149E+03   0.141E+01 0.342E+02 -.896E+01   -.690E-02 0.591E-01 0.248E-02
   0.209E+03 -.868E+02 0.110E+03   -.238E+03 0.104E+03 -.118E+03   0.296E+02 -.178E+02 0.796E+01   0.313E-01 0.176E+00 -.158E-02
   -.182E+03 -.982E+02 0.522E+02   0.213E+03 0.115E+03 -.540E+02   -.310E+02 -.167E+02 0.175E+01   0.108E-01 0.413E-01 0.145E-01
   -.654E+02 0.354E+02 -.675E+01   0.691E+02 -.382E+02 0.907E+01   -.382E+01 0.257E+01 -.231E+01   -.937E-01 0.799E-01 -.952E-02
   -.108E+02 -.221E+03 -.322E+03   0.108E+02 0.240E+03 0.332E+03   -.110E+00 -.199E+02 -.996E+01   0.794E-01 0.374E+00 -.238E+00
   -.103E+03 -.176E+03 -.190E+03   0.116E+03 0.198E+03 0.178E+03   -.123E+02 -.214E+02 0.124E+02   0.809E-02 0.301E-01 -.636E-01
   0.952E+02 0.174E+03 -.468E+03   -.121E+03 -.219E+03 0.495E+03   0.260E+02 0.454E+02 -.275E+02   0.479E-01 0.877E-01 -.650E-01
 -----------------------------------------------------------------------------------------------
   -.261E+02 0.180E+01 0.150E+02   -.142E-13 -.426E-12 0.568E-13   0.260E+02 -.259E+01 -.154E+02   0.121E+00 0.800E+00 0.336E+00


 POSITION                                       TOTAL-FORCE (eV/Angst)
 -----------------------------------------------------------------------------------
      0.00884      2.66645      7.86579         0.025999      0.084691      0.018514
      1.36060      4.89365      7.86865         0.142541      0.137876      0.025949
     -1.38257      4.92773      7.86579        -0.171129      0.123397      0.022662
      6.24962      0.61763      8.06815        -0.055214     -0.176982      0.027148
      3.73195      4.79700      7.74317         0.271702      0.000450      0.011105
      1.22452      0.67778      7.86093        -0.060489      0.094445     -0.011260
     -3.75204      9.00101      8.02982        -0.077149      0.045069     -0.028381
     -2.36368     11.22032      7.99142         0.014077     -0.186758     -0.012762
     -5.14874     11.27919      8.07166        -0.042768      0.062230     -0.002347
      2.59160      6.92391      8.07421         0.162848      0.031765      0.014626
     -0.00656     11.14426      7.82850        -0.041263     -0.101280     -0.006504
     -2.58704      6.98338      8.13126        -0.161467      0.026152     -0.017519
      7.47195      2.59526      7.98616         0.047783     -0.247871      0.026233
      8.84677      4.79152      7.72515        -0.110783     -0.016685      0.028932
      6.07976      4.85727      7.73569         0.130385      0.038289      0.003084
     13.73349      0.50052      7.95605         0.038006      0.070938     -0.022555
     11.19740      4.67908      7.69495        -0.216245     -0.038986     -0.001806
      8.70299      0.61164      8.09475         0.038265     -0.238624      0.017308
      3.77714      8.91525      7.98789         0.068809      0.115361     -0.001030
      5.12022     11.12543      8.11920         0.053868      0.025470     -0.031268
      2.34295     11.19549      8.00621         0.038665     -0.133244     -0.022683
      9.96563      6.82559      7.82746        -0.116056     -0.009030      0.022953
      7.46446     11.01810      8.25935         0.001921      0.067509      0.001075
      4.99884      6.92509      7.78823         0.030138      0.073663     -0.012449
      0.00256      4.17531      7.86434         0.014852     -0.166996      0.002368
      1.19153      2.01531      7.78419         0.082692     -0.037094     -0.021625
     -2.38111     12.53978      8.17974         0.056105      0.174804      0.034134
      4.91719      4.16288      7.64990        -0.209667      0.054777      0.051753
      2.49991      4.23057      7.67531        -0.208583      0.014365     -0.015600
      6.28231      1.95169      8.05912         0.056083      0.153235     -0.011877
     -5.09672     12.58597      7.80760         0.045809     -0.050964     -0.018088
      7.47644     12.40670      7.99632         0.022047     -0.113338      0.014879
     -3.72379     10.47961      8.03648         0.036221      0.049045     -0.007205
     -2.58323      8.31079      8.29199         0.089423     -0.032415      0.004918
      1.36991      6.27454      8.10019        -0.067406     -0.203325      0.001705
      1.19558     10.48975      7.78415         0.067324      0.078754     -0.040077
     -1.20762     10.50969      7.75786        -0.057929      0.037467     -0.020505
      2.59690      8.25133      8.21232        -0.063632     -0.030072      0.036098
     -1.37259      6.30257      8.15314         0.055423     -0.181836     -0.024530
     11.19385      6.09382      7.95267         0.292581      0.041027      0.008297
      7.47846      4.06092      7.80216        -0.058886      0.311007     -0.046987
      8.66318      1.94381      8.12259        -0.027952      0.149394     -0.005083
      5.09595     12.44390      7.91882        -0.070501     -0.024190     -0.021160
     -2.52338      4.29143      7.61219         0.227182      0.070334     -0.037509
     10.00189      4.08280      7.56484         0.216919      0.006800      0.017176
     -1.17946      2.04628      7.94483        -0.100510     -0.059827     -0.015963
      9.86017     -0.11863      8.19184        -0.138145      0.155836      0.045306
      7.47667     -0.09491      7.96166         0.020385      0.071309      0.031643
      3.75557     10.39575      8.04256        -0.108737     -0.058054     -0.008279
      4.92554      8.27920      7.71680        -0.007568     -0.034865     -0.016283
      8.82514      6.14556      7.77596         0.002477     -0.039529     -0.021347
      8.67766     10.38731      8.37115        -0.057672     -0.000344     -0.009214
      6.25413     10.41758      8.39500         0.034933     -0.046708      0.004507
     -4.90412      8.38206      7.76110         0.072960      0.058876     -0.009395
      6.12846      6.21466      7.72480         0.020716     -0.098375      0.005602
      3.75867      6.22198      7.93099        -0.225677     -0.100492     -0.002317
      0.01830      7.84563      8.55987        -0.029740     -0.001322      0.114280
     -0.03595      7.49760     12.04380         0.055662      0.081527     -0.076024
     -0.54043      6.61643     12.57329        -0.049633     -0.076655      0.007376
 -----------------------------------------------------------------------------------
    total drift:                               -0.005507      0.008483     -0.001040


--------------------------------------------------------------------------------------------------------



  FREE ENERGIE OF THE ION-ELECTRON SYSTEM (eV)
  ---------------------------------------------------
  free  energy   TOTEN  =      -491.34872281 eV

  energy  without entropy=     -491.34872281  energy(sigma->0) =     -491.34872281



--------------------------------------------------------------------------------------------------------


    POTLOK:  cpu time    0.2768: real time    0.2768


--------------------------------------------------------------------------------------------------------


     LOOP+:  cpu time  465.0921: real time  465.2537
    4ORBIT:  cpu time    0.0000: real time    0.0000



 total charge     

# of ion       s       p       d       tot
------------------------------------------
    1        0.830   1.661   0.000   2.491
    2        0.815   1.635   0.000   2.450
    3        0.811   1.621   0.000   2.432
    4        0.850   1.696   0.000   2.546
    5        0.836   1.692   0.000   2.528
    6        0.848   1.694   0.000   2.543
    7        0.830   1.657   0.000   2.487
    8        0.825   1.626   0.000   2.451
    9        0.825   1.614   0.000   2.440
   10        0.854   1.727   0.000   2.581
   11        0.844   1.687   0.000   2.531
   12        0.852   1.719   0.000   2.571
   13        0.830   1.650   0.000   2.481
   14        0.815   1.641   0.000   2.456
   15        0.812   1.621   0.000   2.433
   16        0.852   1.703   0.000   2.555
   17        0.835   1.691   0.000   2.526
   18        0.847   1.688   0.000   2.535
   19        0.830   1.659   0.000   2.489
   20        0.828   1.634   0.000   2.462
   21        0.823   1.611   0.000   2.433
   22        0.849   1.705   0.000   2.554
   23        0.842   1.671   0.000   2.513
   24        0.845   1.696   0.000   2.542
   25        1.187   2.520   0.000   3.707
   26        1.260   2.636   0.000   3.896
   27        1.262   2.629   0.000   3.890
   28        1.254   2.612   0.000   3.866
   29        1.250   2.640   0.000   3.890
   30        1.263   2.634   0.000   3.896
   31        1.261   2.624   0.000   3.884
   32        1.228   2.710   0.000   3.938
   33        1.192   2.508   0.000   3.701
   34        1.252   2.636   0.000   3.888
   35        1.236   2.628   0.000   3.863
   36        1.250   2.610   0.000   3.860
   37        1.250   2.609   0.000   3.859
   38        1.255   2.645   0.000   3.899
   39        1.233   2.620   0.000   3.854
   40        1.225   2.732   0.000   3.958
   41        1.191   2.506   0.000   3.698
   42        1.260   2.629   0.000   3.889
   43        1.265   2.634   0.000   3.899
   44        1.249   2.627   0.000   3.877
   45        1.254   2.612   0.000   3.865
   46        1.264   2.640   0.000   3.904
   47        1.259   2.620   0.000   3.879
   48        1.227   2.715   0.000   3.942
   49        1.192   2.511   0.000   3.703
   50        1.259   2.626   0.000   3.885
   51        1.261   2.634   0.000   3.895
   52        1.253   2.607   0.000   3.860
   53        1.254   2.610   0.000   3.864
   54        1.262   2.630   0.000   3.893
   55        1.257   2.624   0.000   3.882
   56        1.225   2.732   0.000   3.957
   57        1.362   0.664  10.040  12.066
   58        1.036   1.436   0.000   2.472
   59        1.639   3.539   0.000   5.179
--------------------------------------------------
tot         63.858 129.587  10.040 203.486



 magnetization (x)

# of ion       s       p       d       tot
------------------------------------------
    1       -0.000   0.000   0.000   0.000
    2       -0.000  -0.001   0.000  -0.001
    3       -0.000  -0.004   0.000  -0.005
    4       -0.000  -0.000   0.000  -0.000
    5       -0.000  -0.000   0.000  -0.000
    6       -0.000   0.000   0.000   0.000
    7       -0.000  -0.001   0.000  -0.001
    8       -0.000  -0.000   0.000  -0.000
    9       -0.000   0.000   0.000   0.000
   10       -0.000  -0.000   0.000  -0.000
   11        0.000   0.000   0.000   0.000
   12       -0.000   0.000   0.000   0.000
   13       -0.000   0.000   0.000   0.000
   14       -0.000  -0.004   0.000  -0.004
   15       -0.000  -0.001   0.000  -0.001
   16        0.000   0.000   0.000   0.000
   17       -0.000  -0.004   0.000  -0.004
   18        0.000   0.000   0.000   0.000
   19        0.000   0.000   0.000   0.000
   20        0.000   0.000   0.000   0.000
   21        0.000   0.000   0.000   0.000
   22       -0.000  -0.002   0.000  -0.002
   23        0.000   0.000   0.000   0.000
   24       -0.000   0.000   0.000   0.000
   25        0.000   0.000   0.000   0.000
   26        0.000   0.000   0.000   0.000
   27        0.000   0.000   0.000   0.000
   28        0.000   0.000   0.000   0.000
   29        0.000   0.000   0.000   0.000
   30       -0.000   0.000   0.000   0.000
   31        0.000  -0.000   0.000  -0.000
   32        0.000   0.000   0.000   0.000
   33        0.000  -0.000   0.000  -0.000
   34        0.000  -0.000   0.000  -0.000
   35        0.000  -0.001   0.000  -0.001
   36        0.000   0.000   0.000   0.000
   37       -0.000  -0.000   0.000  -0.000
   38        0.000   0.000   0.000   0.000
   39        0.000  -0.001   0.000  -0.001
   40       -0.000  -0.004   0.000  -0.004
   41        0.000   0.000   0.000   0.000
   42       -0.000  -0.000   0.000  -0.000
   43        0.000  -0.000   0.000  -0.000
   44        0.000   0.000   0.000   0.000
   45        0.000   0.000   0.000   0.000
   46       -0.000   0.000   0.000   0.000
   47       -0.000   0.000   0.000   0.000
   48       -0.000   0.000   0.000   0.000
   49       -0.000  -0.000   0.000  -0.000
   50        0.000   0.000   0.000   0.000
   51       -0.000  -0.001   0.000  -0.001
   52       -0.000  -0.000   0.000  -0.000
   53        0.000   0.000   0.000   0.000
   54       -0.000   0.000   0.000   0.000
   55       -0.000  -0.000   0.000  -0.000
   56       -0.000  -0.001   0.000  -0.001
   57        0.000   0.001  -0.000   0.001
   58        0.000   0.000   0.000   0.000
   59       -0.000   0.000   0.000   0.000
--------------------------------------------------
tot         -0.000  -0.019  -0.000  -0.020

 BZINTS: Fermi energy: -2.431123;280.000000 electrons
         Band energy:***********;  BLOECHL correction: -0.008459

 total amount of memory used by VASP MPI-rank0   111121. kBytes
=======================================================================

   base      :      30000. kBytes
   nonl-proj :      24101. kBytes
   fftplans  :       4941. kBytes
   grid      :      15075. kBytes
   one-center:        155. kBytes
   wavefun   :      36849. kBytes

  
  
 General timing and accounting informations for this job:
 ========================================================
  
                  Total CPU time used (sec):      481.934
                            User time (sec):      480.518
                          System time (sec):        1.416
                         Elapsed time (sec):      482.332
  
                   Maximum memory used (kb):      186184.
                   Average memory used (kb):           0.
  
                          Minor page faults:       106232
                          Major page faults:            0
                 Voluntary context switches:          897
