       N       E                     dE             d eps       ncg     rms          ort
DAV:   1     0.253835486148E+04    0.25384E+04   -0.11605E+05   768   0.110E+03
DAV:   2    -0.240069075926E+03   -0.27784E+04   -0.26543E+04   768   0.280E+02
DAV:   3    -0.702760775594E+03   -0.46269E+03   -0.45952E+03   768   0.120E+02
DAV:   4    -0.719488541549E+03   -0.16728E+02   -0.16598E+02   768   0.282E+01
DAV:   5    -0.720032343039E+03   -0.54380E+00   -0.54213E+00   768   0.424E+00
SDA:   6    -0.549529286134E+03    0.17050E+03   -0.54213E+00   768   0.502E+03 0.000E+00
CGA:   7    -0.602703009133E+03   -0.53174E+02   -0.25752E+02   768   0.335E+03 0.471E+03
CGA:   8    -0.638006317270E+03   -0.35303E+02   -0.15379E+02   768   0.163E+03 0.298E+03
CGA:   9    -0.651200184974E+03   -0.13194E+02   -0.88398E+01   768   0.364E+02 0.378E+02
CGA:  10    -0.658475678731E+03   -0.72755E+01   -0.72492E+01   768   0.245E+02-0.605E+00
CGA:  11    -0.660350564196E+03   -0.18749E+01   -0.17900E+01   768   0.610E+01 0.115E+01
CGA:  12    -0.661164254648E+03   -0.81369E+00   -0.81229E+00   768   0.656E+01-0.214E-01
CGA:  13    -0.661779815773E+03   -0.61556E+00   -0.45492E+00   768   0.232E+01 0.202E+01
CGA:  14    -0.661942016949E+03   -0.16220E+00   -0.14632E+00   768   0.110E+01 0.207E+00
CGA:  15    -0.662070540379E+03   -0.12852E+00   -0.12649E+00   768   0.195E+01 0.542E-02
CGA:  16    -0.662173712627E+03   -0.10317E+00   -0.75460E-01   768   0.127E+01 0.720E+00
CGA:  17    -0.662243171708E+03   -0.69459E-01   -0.53191E-01   768   0.468E+00 0.537E+00
CGA:  18    -0.662282213265E+03   -0.39042E-01   -0.41334E-01   768   0.533E+00-0.178E-01
CGA:  19    -0.662317633647E+03   -0.35420E-01   -0.25991E-01   768   0.692E+00 0.177E+00
CGA:  20    -0.662347541399E+03   -0.29908E-01   -0.17780E-01   768   0.504E+00 0.612E+00
CGA:  21    -0.662386276653E+03   -0.38735E-01   -0.39894E-01   768   0.134E+00-0.965E-03
CGA:  22    -0.662426407240E+03   -0.40131E-01   -0.34441E-01   768   0.330E-01 0.366E-01
CGA:  23    -0.662449346643E+03   -0.22939E-01   -0.20674E-01   768   0.682E-01 0.652E-02
CGA:  24    -0.662460444001E+03   -0.11097E-01   -0.11092E-01   768   0.366E-01 0.268E-03
CGA:  25    -0.662470289606E+03   -0.98456E-02   -0.99611E-02   768   0.125E-01-0.111E-02
CGA:  26    -0.662475406636E+03   -0.51170E-02   -0.52617E-02   768   0.167E-01-0.508E-03
CGA:  27    -0.662477328625E+03   -0.19220E-02   -0.19568E-02   768   0.636E-02 0.515E-04
CGA:  28    -0.662480489134E+03   -0.31605E-02   -0.31943E-02   768   0.462E-02-0.121E-03
CGA:  29    -0.662482062346E+03   -0.15732E-02   -0.15430E-02   768   0.479E-02 0.154E-03
CGA:  30    -0.662482739189E+03   -0.67684E-03   -0.67476E-03   768   0.194E-02 0.154E-04
CGA:  31    -0.662483332438E+03   -0.59325E-03   -0.58602E-03   768   0.718E-03 0.562E-04
CGA:  32    -0.662483544976E+03   -0.21254E-03   -0.21111E-03   768   0.765E-03 0.173E-04
CGA:  33    -0.662483664934E+03   -0.11996E-03   -0.12046E-03   768   0.349E-03 0.887E-05
CGA:  34    -0.662483803781E+03   -0.13885E-03   -0.13696E-03   768   0.193E-03 0.101E-04
CGA:  35    -0.662483857971E+03   -0.54190E-04   -0.54287E-04   768   0.243E-03-0.154E-05
   1 F= -.66901911E+03 E0= -.66900135E+03  d E =-.669019E+03  mag=     1.6415
       N       E                     dE             d eps       ncg     rms          ort
SDA:   1    -0.661432655032E+03    0.10511E+01    0.00000E+00   768   0.346E+01 0.000E+00
CGA:   2    -0.661927337141E+03   -0.49468E+00   -0.49667E+00   768   0.154E+01 0.180E-02
CGA:   3    -0.662224913862E+03   -0.29758E+00   -0.29724E+00   768   0.984E+00-0.149E-01
CGA:   4    -0.662397595153E+03   -0.17268E+00   -0.17308E+00   768   0.339E+00 0.518E-02
CGA:   5    -0.662458224664E+03   -0.60630E-01   -0.60586E-01   768   0.112E+00-0.544E-03
CGA:   6    -0.662480008908E+03   -0.21784E-01   -0.21790E-01   768   0.483E-01 0.407E-03
CGA:   7    -0.662489631068E+03   -0.96222E-02   -0.96211E-02   768   0.250E-01-0.176E-03
CGA:   8    -0.662493777722E+03   -0.41467E-02   -0.41496E-02   768   0.104E-01 0.409E-04
CGA:   9    -0.662495658584E+03   -0.18809E-02   -0.18804E-02   768   0.322E-02-0.238E-05
CGA:  10    -0.662496296421E+03   -0.63784E-03   -0.63784E-03   768   0.111E-02 0.980E-05
CGA:  11    -0.662496497389E+03   -0.20097E-03   -0.20096E-03   768   0.536E-03 0.183E-06
CGA:  12    -0.662496588366E+03   -0.90978E-04   -0.90990E-04   768   0.189E-03 0.819E-06
   2 F= -.66903171E+03 E0= -.66901442E+03  d E =-.126014E-01  mag=     1.5658
       N       E                     dE             d eps       ncg     rms          ort
SDA:   1    -0.662374547120E+03    0.12195E+00    0.00000E+00   768   0.407E+00 0.000E+00
CGA:   2    -0.662434597412E+03   -0.60050E-01   -0.60008E-01   768   0.182E+00-0.281E-03
CGA:   3    -0.662469863837E+03   -0.35266E-01   -0.35268E-01   768   0.113E+00 0.373E-03
CGA:   4    -0.662489897306E+03   -0.20033E-01   -0.20023E-01   768   0.419E-01-0.272E-03
CGA:   5    -0.662497075131E+03   -0.71778E-02   -0.71793E-02   768   0.138E-01 0.111E-04
CGA:   6    -0.662499715954E+03   -0.26408E-02   -0.26407E-02   768   0.621E-02-0.181E-04
CGA:   7    -0.662500875378E+03   -0.11594E-02   -0.11595E-02   768   0.315E-02 0.511E-05
CGA:   8    -0.662501401741E+03   -0.52636E-03   -0.52608E-03   768   0.126E-02-0.805E-05
CGA:   9    -0.662501638047E+03   -0.23631E-03   -0.23629E-03   768   0.399E-03-0.423E-05
CGA:  10    -0.662501714841E+03   -0.76793E-04   -0.76799E-04   768   0.143E-03-0.326E-05
   3 F= -.66903689E+03 E0= -.66901944E+03  d E =-.177786E-01  mag=     1.5800
       N       E                     dE             d eps       ncg     rms          ort
SDA:   1    -0.662218834037E+03    0.28280E+00    0.00000E+00   768   0.106E+01 0.000E+00
CGA:   2    -0.662355854277E+03   -0.13702E+00   -0.13737E+00   768   0.398E+00 0.207E-03
CGA:   3    -0.662433884331E+03   -0.78030E-01   -0.78076E-01   768   0.284E+00-0.327E-02
CGA:   4    -0.662488218137E+03   -0.54334E-01   -0.54318E-01   768   0.119E+00 0.173E-02
CGA:   5    -0.662510273361E+03   -0.22055E-01   -0.22053E-01   768   0.404E-01-0.253E-03
CGA:   6    -0.662517419564E+03   -0.71462E-02   -0.71481E-02   768   0.148E-01 0.906E-04
CGA:   7    -0.662520139240E+03   -0.27197E-02   -0.27196E-02   768   0.731E-02-0.142E-04
CGA:   8    -0.662521339189E+03   -0.11999E-02   -0.12004E-02   768   0.290E-02 0.149E-04
CGA:   9    -0.662521872921E+03   -0.53373E-03   -0.53374E-03   768   0.886E-03 0.420E-05
CGA:  10    -0.662522045189E+03   -0.17227E-03   -0.17224E-03   768   0.332E-03 0.346E-05
CGA:  11    -0.662522102648E+03   -0.57459E-04   -0.57452E-04   768   0.161E-03-0.465E-06
   4 F= -.66905693E+03 E0= -.66903982E+03  d E =-.200467E-01  mag=     1.5357
       N       E                     dE             d eps       ncg     rms          ort
SDA:   1    -0.659833559851E+03    0.26885E+01    0.00000E+00   768   0.991E+01 0.000E+00
CGA:   2    -0.661054905006E+03   -0.12213E+01   -0.12324E+01   768   0.367E+01-0.184E-01
CGA:   3    -0.661751903653E+03   -0.69700E+00   -0.69818E+00   768   0.268E+01-0.103E+00
CGA:   4    -0.662258485105E+03   -0.50658E+00   -0.50553E+00   768   0.103E+01 0.548E-01
CGA:   5    -0.662459827789E+03   -0.20134E+00   -0.20143E+00   768   0.354E+00-0.551E-02
CGA:   6    -0.662523753547E+03   -0.63926E-01   -0.63936E-01   768   0.125E+00 0.233E-02
CGA:   7    -0.662548459533E+03   -0.24706E-01   -0.24720E-01   768   0.628E-01-0.669E-03
CGA:   8    -0.662558738129E+03   -0.10279E-01   -0.10284E-01   768   0.265E-01 0.158E-03
CGA:   9    -0.662563343840E+03   -0.46057E-02   -0.46044E-02   768   0.844E-02-0.499E-04
CGA:  10    -0.662565001031E+03   -0.16572E-02   -0.16570E-02   768   0.293E-02 0.144E-04
CGA:  11    -0.662565575077E+03   -0.57405E-03   -0.57415E-03   768   0.164E-02-0.615E-05
CGA:  12    -0.662565856720E+03   -0.28164E-03   -0.28160E-03   768   0.769E-03-0.154E-05
CGA:  13    -0.662566061711E+03   -0.20499E-03   -0.20532E-03   768   0.527E-03-0.413E-05
CGA:  14    -0.662566185289E+03   -0.12358E-03   -0.12364E-03   768   0.509E-03-0.648E-06
CGA:  15    -0.662566294499E+03   -0.10921E-03   -0.10922E-03   768   0.292E-03-0.736E-06
CGA:  16    -0.662566376045E+03   -0.81545E-04   -0.81450E-04   768   0.206E-03 0.143E-05
   5 F= -.66910062E+03 E0= -.66908605E+03  d E =-.637377E-01  mag=     1.4019
       N       E                     dE             d eps       ncg     rms          ort
SDA:   1    -0.651563676239E+03    0.11003E+02    0.00000E+00   768   0.427E+02 0.000E+00
CGA:   2    -0.656396480602E+03   -0.48328E+01   -0.49632E+01   768   0.158E+02-0.654E+00
CGA:   3    -0.659166593626E+03   -0.27701E+01   -0.27521E+01   768   0.110E+02-0.680E+00
CGA:   4    -0.661299004824E+03   -0.21324E+01   -0.21240E+01   768   0.387E+01 0.480E+00
CGA:   5    -0.662116116134E+03   -0.81711E+00   -0.81683E+00   768   0.138E+01 0.209E-01
CGA:   6    -0.662380561795E+03   -0.26445E+00   -0.26444E+00   768   0.503E+00 0.115E-02
CGA:   7    -0.662487285666E+03   -0.10672E+00   -0.10654E+00   768   0.216E+00 0.605E-02
CGA:   8    -0.662528662864E+03   -0.41377E-01   -0.41367E-01   768   0.109E+00-0.166E-02
CGA:   9    -0.662544937482E+03   -0.16275E-01   -0.16310E-01   768   0.368E-01 0.247E-03
CGA:  10    -0.662551883771E+03   -0.69463E-02   -0.69459E-02   768   0.117E-01-0.115E-03
CGA:  11    -0.662554698889E+03   -0.28151E-02   -0.28138E-02   768   0.504E-02 0.201E-04
CGA:  12    -0.662555731290E+03   -0.10324E-02   -0.10327E-02   768   0.389E-02-0.210E-04
CGA:  13    -0.662556419946E+03   -0.68866E-03   -0.68858E-03   768   0.188E-02-0.255E-05
CGA:  14    -0.662557015694E+03   -0.59575E-03   -0.59696E-03   768   0.126E-02-0.987E-05
CGA:  15    -0.662557321909E+03   -0.30622E-03   -0.30615E-03   768   0.126E-02 0.264E-05
CGA:  16    -0.662557543515E+03   -0.22161E-03   -0.22153E-03   768   0.487E-03-0.190E-05
CGA:  17    -0.662557687266E+03   -0.14375E-03   -0.14364E-03   768   0.279E-03 0.155E-05
CGA:  18    -0.662557741827E+03   -0.54561E-04   -0.54553E-04   768   0.213E-03-0.109E-05
   6 F= -.66909420E+03 E0= -.66908264E+03  d E =-.573179E-01  mag=     1.3478
       N       E                     dE             d eps       ncg     rms          ort
SDA:   1    -0.658802307937E+03    0.37554E+01    0.00000E+00   768   0.129E+02 0.000E+00
CGA:   2    -0.660574393566E+03   -0.17721E+01   -0.17700E+01   768   0.478E+01-0.555E-01
CGA:   3    -0.661543316999E+03   -0.96892E+00   -0.96878E+00   768   0.336E+01 0.101E-01
CGA:   4    -0.662178783034E+03   -0.63547E+00   -0.63410E+00   768   0.150E+01-0.587E-01
CGA:   5    -0.662434407366E+03   -0.25562E+00   -0.25618E+00   768   0.488E+00 0.455E-02
CGA:   6    -0.662522494611E+03   -0.88087E-01   -0.87911E-01   768   0.193E+00-0.418E-02
CGA:   7    -0.662555370889E+03   -0.32876E-01   -0.32916E-01   768   0.888E-01 0.468E-03
CGA:   8    -0.662570425592E+03   -0.15055E-01   -0.15028E-01   768   0.363E-01-0.372E-03
CGA:   9    -0.662576996084E+03   -0.65705E-02   -0.65724E-02   768   0.109E-01 0.531E-04
CGA:  10    -0.662579031593E+03   -0.20355E-02   -0.20351E-02   768   0.410E-02-0.342E-04
CGA:  11    -0.662579694418E+03   -0.66282E-03   -0.66290E-03   768   0.171E-02 0.638E-06
CGA:  12    -0.662580010888E+03   -0.31647E-03   -0.31646E-03   768   0.648E-03-0.150E-05
CGA:  13    -0.662580155498E+03   -0.14461E-03   -0.14454E-03   768   0.396E-03 0.280E-05
CGA:  14    -0.662580230202E+03   -0.74704E-04   -0.74709E-04   768   0.262E-03 0.652E-06
   7 F= -.66911491E+03 E0= -.66910264E+03  d E =-.780272E-01  mag=     1.3435
       N       E                     dE             d eps       ncg     rms          ort
SDA:   1    -0.661994960220E+03    0.58520E+00    0.00000E+00   768   0.207E+01 0.000E+00
CGA:   2    -0.662271368709E+03   -0.27641E+00   -0.27730E+00   768   0.917E+00-0.788E-03
CGA:   3    -0.662440456348E+03   -0.16909E+00   -0.16896E+00   768   0.581E+00-0.849E-02
CGA:   4    -0.662546766058E+03   -0.10631E+00   -0.10637E+00   768   0.205E+00 0.393E-02
CGA:   5    -0.662583787868E+03   -0.37022E-01   -0.37011E-01   768   0.688E-01-0.268E-03
CGA:   6    -0.662596438587E+03   -0.12651E-01   -0.12655E-01   768   0.308E-01 0.293E-03
CGA:   7    -0.662601924968E+03   -0.54864E-02   -0.54849E-02   768   0.159E-01-0.363E-04
CGA:   8    -0.662604665148E+03   -0.27402E-02   -0.27414E-02   768   0.621E-02 0.410E-04
CGA:   9    -0.662605850223E+03   -0.11851E-02   -0.11851E-02   768   0.195E-02-0.466E-05
CGA:  10    -0.662606198862E+03   -0.34864E-03   -0.34870E-03   768   0.774E-03 0.468E-05
CGA:  11    -0.662606322347E+03   -0.12348E-03   -0.12348E-03   768   0.287E-03-0.402E-07
CGA:  12    -0.662606377024E+03   -0.54677E-04   -0.54675E-04   768   0.102E-03 0.812E-06
   8 F= -.66914185E+03 E0= -.66912916E+03  d E =-.269326E-01  mag=     1.3500
       N       E                     dE             d eps       ncg     rms          ort
SDA:   1    -0.658632991631E+03    0.39733E+01    0.00000E+00   768   0.141E+02 0.000E+00
CGA:   2    -0.660399598632E+03   -0.17666E+01   -0.17830E+01   768   0.620E+01-0.566E-01
CGA:   3    -0.661514310520E+03   -0.11147E+01   -0.11134E+01   768   0.395E+01-0.146E+00
CGA:   4    -0.662239197305E+03   -0.72489E+00   -0.72458E+00   768   0.128E+01 0.790E-01
CGA:   5    -0.662484031270E+03   -0.24483E+00   -0.24485E+00   768   0.443E+00-0.324E-02
CGA:   6    -0.662567428011E+03   -0.83397E-01   -0.83372E-01   768   0.194E+00 0.491E-02
CGA:   7    -0.662602919597E+03   -0.35492E-01   -0.35481E-01   768   0.109E+00-0.953E-03
CGA:   8    -0.662620634512E+03   -0.17715E-01   -0.17732E-01   768   0.428E-01 0.400E-03
CGA:   9    -0.662628782378E+03   -0.81479E-02   -0.81492E-02   768   0.131E-01-0.145E-03
CGA:  10    -0.662631241180E+03   -0.24588E-02   -0.24586E-02   768   0.522E-02 0.281E-04
CGA:  11    -0.662632072912E+03   -0.83173E-03   -0.83146E-03   768   0.231E-02-0.511E-05
CGA:  12    -0.662632493270E+03   -0.42036E-03   -0.42036E-03   768   0.820E-03 0.100E-05
CGA:  13    -0.662632688749E+03   -0.19548E-03   -0.19564E-03   768   0.556E-03-0.313E-05
CGA:  14    -0.662632782411E+03   -0.93663E-04   -0.93650E-04   768   0.343E-03 0.741E-08
   9 F= -.66917102E+03 E0= -.66915609E+03  d E =-.561069E-01  mag=     1.3929
       N       E                     dE             d eps       ncg     rms          ort
SDA:   1    -0.661973769706E+03    0.65892E+00    0.00000E+00   768   0.207E+01 0.000E+00
CGA:   2    -0.662300290391E+03   -0.32652E+00   -0.32634E+00   768   0.143E+01-0.357E-02
CGA:   3    -0.662525023477E+03   -0.22473E+00   -0.22476E+00   768   0.589E+00-0.627E-03
CGA:   4    -0.662630649893E+03   -0.10563E+00   -0.10565E+00   768   0.134E+00 0.196E-02
CGA:   5    -0.662653671356E+03   -0.23021E-01   -0.23021E-01   768   0.425E-01 0.783E-04
CGA:   6    -0.662662051981E+03   -0.83806E-02   -0.83788E-02   768   0.192E-01 0.129E-03
CGA:   7    -0.662665439375E+03   -0.33874E-02   -0.33873E-02   768   0.107E-01 0.582E-05
CGA:   8    -0.662667285392E+03   -0.18460E-02   -0.18464E-02   768   0.503E-02 0.195E-04
CGA:   9    -0.662668270827E+03   -0.98543E-03   -0.98554E-03   768   0.180E-02-0.665E-05
CGA:  10    -0.662668649077E+03   -0.37825E-03   -0.37808E-03   768   0.855E-03 0.605E-05
CGA:  11    -0.662668782968E+03   -0.13389E-03   -0.13392E-03   768   0.374E-03 0.102E-05
CGA:  12    -0.662668851638E+03   -0.68670E-04   -0.68673E-04   768   0.127E-03 0.172E-05
  10 F= -.66920905E+03 E0= -.66919315E+03  d E =-.380265E-01  mag=     1.4248
       N       E                     dE             d eps       ncg     rms          ort
SDA:   1    -0.661464553727E+03    0.12042E+01    0.00000E+00   768   0.370E+01 0.000E+00
CGA:   2    -0.662041065622E+03   -0.57651E+00   -0.57710E+00   768   0.254E+01 0.117E-02
CGA:   3    -0.662443741021E+03   -0.40268E+00   -0.40265E+00   768   0.106E+01-0.238E-02
CGA:   4    -0.662632891312E+03   -0.18915E+00   -0.18919E+00   768   0.235E+00 0.491E-02
CGA:   5    -0.662673628122E+03   -0.40737E-01   -0.40736E-01   768   0.755E-01 0.125E-03
CGA:   6    -0.662688572298E+03   -0.14944E-01   -0.14939E-01   768   0.345E-01 0.287E-03
CGA:   7    -0.662694724661E+03   -0.61524E-02   -0.61521E-02   768   0.193E-01-0.740E-06
CGA:   8    -0.662698021566E+03   -0.32969E-02   -0.32980E-02   768   0.911E-02 0.486E-04
CGA:   9    -0.662699786012E+03   -0.17644E-02   -0.17647E-02   768   0.318E-02-0.141E-04
CGA:  10    -0.662700459020E+03   -0.67301E-03   -0.67269E-03   768   0.148E-02 0.950E-05
CGA:  11    -0.662700688565E+03   -0.22955E-03   -0.22956E-03   768   0.646E-03 0.103E-05
CGA:  12    -0.662700804416E+03   -0.11585E-03   -0.11586E-03   768   0.207E-03 0.215E-05
CGA:  13    -0.662700849892E+03   -0.45476E-04   -0.45505E-04   768   0.116E-03-0.862E-06
  11 F= -.66924372E+03 E0= -.66922616E+03  d E =-.727022E-01  mag=     1.4819
       N       E                     dE             d eps       ncg     rms          ort
SDA:   1    -0.657788139810E+03    0.49127E+01    0.00000E+00   768   0.149E+02 0.000E+00
CGA:   2    -0.660058387691E+03   -0.22702E+01   -0.22790E+01   768   0.100E+02 0.786E-01
CGA:   3    -0.661686138476E+03   -0.16278E+01   -0.16277E+01   768   0.417E+01-0.135E-01
CGA:   4    -0.662431406376E+03   -0.74527E+00   -0.74539E+00   768   0.899E+00 0.382E-01
CGA:   5    -0.662592431530E+03   -0.16103E+00   -0.16102E+00   768   0.301E+00 0.557E-03
CGA:   6    -0.662654558231E+03   -0.62127E-01   -0.62072E-01   768   0.132E+00 0.178E-02
CGA:   7    -0.662680848868E+03   -0.26291E-01   -0.26300E-01   768   0.736E-01-0.312E-03
CGA:   8    -0.662693553085E+03   -0.12704E-01   -0.12712E-01   768   0.384E-01 0.429E-03
CGA:   9    -0.662700202033E+03   -0.66489E-02   -0.66474E-02   768   0.131E-01-0.727E-04
CGA:  10    -0.662703052752E+03   -0.28507E-02   -0.28487E-02   768   0.498E-02 0.415E-04
CGA:  11    -0.662703959195E+03   -0.90644E-03   -0.90644E-03   768   0.252E-02-0.190E-05
CGA:  12    -0.662704348133E+03   -0.38894E-03   -0.38904E-03   768   0.858E-03 0.288E-05
CGA:  13    -0.662704539959E+03   -0.19183E-03   -0.19190E-03   768   0.366E-03-0.194E-05
CGA:  14    -0.662704613159E+03   -0.73200E-04   -0.73189E-04   768   0.276E-03 0.783E-06
  12 F= -.66925290E+03 E0= -.66923175E+03  d E =-.818761E-01  mag=     1.6391
       N       E                     dE             d eps       ncg     rms          ort
SDA:   1    -0.661771294647E+03    0.93325E+00    0.00000E+00   768   0.284E+01 0.000E+00
CGA:   2    -0.662218867267E+03   -0.44757E+00   -0.44665E+00   768   0.186E+01-0.108E-01
CGA:   3    -0.662510521750E+03   -0.29165E+00   -0.29176E+00   768   0.820E+00 0.272E-02
CGA:   4    -0.662663432282E+03   -0.15291E+00   -0.15293E+00   768   0.180E+00-0.365E-02
CGA:   5    -0.662693562373E+03   -0.30130E-01   -0.30136E-01   768   0.598E-01 0.651E-04
CGA:   6    -0.662704450519E+03   -0.10888E-01   -0.10888E-01   768   0.287E-01-0.217E-03
CGA:   7    -0.662709172920E+03   -0.47224E-02   -0.47230E-02   768   0.139E-01 0.220E-05
CGA:   8    -0.662711823144E+03   -0.26502E-02   -0.26507E-02   768   0.654E-02-0.352E-04
CGA:   9    -0.662713112919E+03   -0.12898E-02   -0.12895E-02   768   0.253E-02 0.132E-04
CGA:  10    -0.662713582678E+03   -0.46976E-03   -0.46978E-03   768   0.123E-02-0.628E-05
CGA:  11    -0.662713775008E+03   -0.19233E-03   -0.19230E-03   768   0.423E-03-0.157E-05
CGA:  12    -0.662713859915E+03   -0.84907E-04   -0.84953E-04   768   0.154E-03-0.226E-05
  13 F= -.66925979E+03 E0= -.66924021E+03  d E =-.887673E-01  mag=     1.5641
       N       E                     dE             d eps       ncg     rms          ort
SDA:   1    -0.661542986899E+03    0.11708E+01    0.00000E+00   768   0.317E+01 0.000E+00
CGA:   2    -0.662155638723E+03   -0.61265E+00   -0.61226E+00   768   0.251E+01 0.161E-01
CGA:   3    -0.662534917498E+03   -0.37928E+00   -0.37888E+00   768   0.995E+00-0.625E-02
CGA:   4    -0.662700986302E+03   -0.16607E+00   -0.16612E+00   768   0.195E+00 0.192E-02
CGA:   5    -0.662736641888E+03   -0.35656E-01   -0.35657E-01   768   0.728E-01-0.218E-03
CGA:   6    -0.662750265714E+03   -0.13624E-01   -0.13621E-01   768   0.325E-01 0.226E-03
CGA:   7    -0.662755793351E+03   -0.55276E-02   -0.55271E-02   768   0.177E-01-0.231E-04
CGA:   8    -0.662759052433E+03   -0.32591E-02   -0.32588E-02   768   0.811E-02 0.351E-04
CGA:   9    -0.662760675410E+03   -0.16230E-02   -0.16235E-02   768   0.311E-02-0.222E-04
CGA:  10    -0.662761302401E+03   -0.62699E-03   -0.62688E-03   768   0.150E-02 0.351E-05
CGA:  11    -0.662761531052E+03   -0.22865E-03   -0.22864E-03   768   0.555E-03-0.230E-06
CGA:  12    -0.662761641224E+03   -0.11017E-03   -0.11014E-03   768   0.196E-03 0.190E-05
CGA:  13    -0.662761681867E+03   -0.40643E-04   -0.40643E-04   768   0.116E-03-0.185E-07
  14 F= -.66931005E+03 E0= -.66928994E+03  d E =-.502589E-01  mag=     1.6024
       N       E                     dE             d eps       ncg     rms          ort
SDA:   1    -0.662087884976E+03    0.67376E+00    0.00000E+00   768   0.177E+01 0.000E+00
CGA:   2    -0.662432949989E+03   -0.34507E+00   -0.34484E+00   768   0.139E+01 0.882E-02
CGA:   3    -0.662645021458E+03   -0.21207E+00   -0.21179E+00   768   0.551E+00-0.388E-02
CGA:   4    -0.662737391688E+03   -0.92370E-01   -0.92389E-01   768   0.107E+00 0.645E-03
CGA:   5    -0.662756926767E+03   -0.19535E-01   -0.19536E-01   768   0.402E-01-0.927E-04
CGA:   6    -0.662764393939E+03   -0.74672E-02   -0.74664E-02   768   0.175E-01 0.100E-03
CGA:   7    -0.662767468062E+03   -0.30741E-02   -0.30740E-02   768   0.965E-02-0.126E-04
CGA:   8    -0.662769260281E+03   -0.17922E-02   -0.17921E-02   768   0.456E-02 0.107E-04
CGA:   9    -0.662770156010E+03   -0.89573E-03   -0.89596E-03   768   0.176E-02-0.130E-04
CGA:  10    -0.662770517546E+03   -0.36154E-03   -0.36149E-03   768   0.826E-03 0.149E-05
CGA:  11    -0.662770647445E+03   -0.12990E-03   -0.12990E-03   768   0.333E-03-0.195E-07
CGA:  12    -0.662770713596E+03   -0.66151E-04   -0.66126E-04   768   0.127E-03 0.146E-05
  15 F= -.66932084E+03 E0= -.66930046E+03  d E =-.610568E-01  mag=     1.6182
       N       E                     dE             d eps       ncg     rms          ort
SDA:   1    -0.661097345985E+03    0.16733E+01    0.00000E+00   768   0.450E+01 0.000E+00
CGA:   2    -0.661978929205E+03   -0.88158E+00   -0.88104E+00   768   0.286E+01 0.191E-01
CGA:   3    -0.662483547053E+03   -0.50462E+00   -0.50386E+00   768   0.149E+01-0.442E-01
CGA:   4    -0.662698090071E+03   -0.21454E+00   -0.21494E+00   768   0.352E+00 0.411E-03
CGA:   5    -0.662760250510E+03   -0.62160E-01   -0.62140E-01   768   0.133E+00-0.189E-02
CGA:   6    -0.662785451758E+03   -0.25201E-01   -0.25194E-01   768   0.643E-01 0.509E-03
CGA:   7    -0.662796550587E+03   -0.11099E-01   -0.11093E-01   768   0.343E-01-0.261E-03
CGA:   8    -0.662802603344E+03   -0.60528E-02   -0.60535E-02   768   0.136E-01 0.721E-04
CGA:   9    -0.662805292482E+03   -0.26891E-02   -0.26903E-02   768   0.524E-02-0.511E-04
CGA:  10    -0.662806240040E+03   -0.94756E-03   -0.94757E-03   768   0.244E-02 0.757E-05
CGA:  11    -0.662806618981E+03   -0.37894E-03   -0.37892E-03   768   0.816E-03 0.721E-06
CGA:  12    -0.662806784760E+03   -0.16578E-03   -0.16570E-03   768   0.330E-03 0.356E-05
CGA:  13    -0.662806845980E+03   -0.61220E-04   -0.61219E-04   768   0.201E-03 0.499E-06
  16 F= -.66935818E+03 E0= -.66933804E+03  d E =-.373394E-01  mag=     1.5710
       N       E                     dE             d eps       ncg     rms          ort
SDA:   1    -0.662587450623E+03    0.21933E+00    0.00000E+00   768   0.579E+00 0.000E+00
CGA:   2    -0.662702835169E+03   -0.11538E+00   -0.11535E+00   768   0.368E+00 0.910E-03
CGA:   3    -0.662767157238E+03   -0.64322E-01   -0.64290E-01   768   0.192E+00-0.193E-02
CGA:   4    -0.662794954916E+03   -0.27798E-01   -0.27815E-01   768   0.473E-01-0.363E-05
CGA:   5    -0.662802998389E+03   -0.80435E-02   -0.80414E-02   768   0.182E-01-0.856E-04
CGA:   6    -0.662806316320E+03   -0.33179E-02   -0.33178E-02   768   0.885E-02 0.316E-04
CGA:   7    -0.662807857155E+03   -0.15408E-02   -0.15406E-02   768   0.459E-02-0.156E-04
CGA:   8    -0.662808699006E+03   -0.84185E-03   -0.84184E-03   768   0.194E-02-0.124E-05
CGA:   9    -0.662809069655E+03   -0.37065E-03   -0.37074E-03   768   0.802E-03-0.726E-05
CGA:  10    -0.662809207707E+03   -0.13805E-03   -0.13806E-03   768   0.362E-03 0.848E-06
CGA:  11    -0.662809269188E+03   -0.61480E-04   -0.61488E-04   768   0.133E-03 0.800E-06
  17 F= -.66936102E+03 E0= -.66934111E+03  d E =-.401713E-01  mag=     1.5421
       N       E                     dE             d eps       ncg     rms          ort
SDA:   1    -0.661241705749E+03    0.15675E+01    0.00000E+00   768   0.433E+01 0.000E+00
CGA:   2    -0.662013596648E+03   -0.77189E+00   -0.77199E+00   768   0.245E+01 0.569E-02
CGA:   3    -0.662489881667E+03   -0.47629E+00   -0.47727E+00   768   0.159E+01-0.488E-01
CGA:   4    -0.662722991432E+03   -0.23311E+00   -0.23361E+00   768   0.430E+00 0.195E-02
CGA:   5    -0.662794780363E+03   -0.71789E-01   -0.71714E-01   768   0.160E+00-0.280E-02
CGA:   6    -0.662822783682E+03   -0.28003E-01   -0.28007E-01   768   0.810E-01 0.589E-03
CGA:   7    -0.662836576293E+03   -0.13793E-01   -0.13785E-01   768   0.421E-01-0.380E-03
CGA:   8    -0.662844078574E+03   -0.75023E-02   -0.75022E-02   768   0.168E-01 0.996E-04
CGA:   9    -0.662847223712E+03   -0.31451E-02   -0.31459E-02   768   0.648E-02-0.570E-04
CGA:  10    -0.662848260079E+03   -0.10364E-02   -0.10366E-02   768   0.271E-02 0.518E-05
CGA:  11    -0.662848701832E+03   -0.44175E-03   -0.44171E-03   768   0.892E-03-0.138E-05
CGA:  12    -0.662848877160E+03   -0.17533E-03   -0.17527E-03   768   0.431E-03 0.296E-05
CGA:  13    -0.662848952947E+03   -0.75787E-04   -0.75788E-04   768   0.249E-03 0.453E-06
  18 F= -.66940162E+03 E0= -.66937991E+03  d E =-.406090E-01  mag=     1.5703
       N       E                     dE             d eps       ncg     rms          ort
SDA:   1    -0.661610756436E+03    0.12381E+01    0.00000E+00   768   0.335E+01 0.000E+00
CGA:   2    -0.662212082625E+03   -0.60133E+00   -0.60133E+00   768   0.190E+01 0.451E-02
CGA:   3    -0.662579282399E+03   -0.36720E+00   -0.36788E+00   768   0.124E+01-0.333E-01
CGA:   4    -0.662759892314E+03   -0.18061E+00   -0.18097E+00   768   0.341E+00 0.168E-02
CGA:   5    -0.662815396764E+03   -0.55504E-01   -0.55436E-01   768   0.131E+00-0.198E-02
CGA:   6    -0.662837124441E+03   -0.21728E-01   -0.21737E-01   768   0.654E-01 0.411E-03
CGA:   7    -0.662848361741E+03   -0.11237E-01   -0.11234E-01   768   0.331E-01-0.300E-03
CGA:   8    -0.662854385293E+03   -0.60236E-02   -0.60227E-02   768   0.141E-01 0.763E-04
CGA:   9    -0.662856888538E+03   -0.25032E-02   -0.25033E-02   768   0.585E-02-0.436E-04
CGA:  10    -0.662857790614E+03   -0.90208E-03   -0.90230E-03   768   0.224E-02 0.369E-05
CGA:  11    -0.662858177443E+03   -0.38683E-03   -0.38682E-03   768   0.800E-03-0.165E-05
CGA:  12    -0.662858323683E+03   -0.14624E-03   -0.14622E-03   768   0.417E-03 0.261E-05
CGA:  13    -0.662858397524E+03   -0.73841E-04   -0.73841E-04   768   0.228E-03 0.431E-06
  19 F= -.66941174E+03 E0= -.66938875E+03  d E =-.507286E-01  mag=     1.5778
       N       E                     dE             d eps       ncg     rms          ort
SDA:   1    -0.661161427096E+03    0.16969E+01    0.00000E+00   768   0.455E+01 0.000E+00
CGA:   2    -0.662041510465E+03   -0.88008E+00   -0.87982E+00   768   0.267E+01 0.431E-02
CGA:   3    -0.662546054642E+03   -0.50454E+00   -0.50499E+00   768   0.151E+01-0.302E-01
CGA:   4    -0.662765867544E+03   -0.21981E+00   -0.22024E+00   768   0.423E+00 0.193E-02
CGA:   5    -0.662833718973E+03   -0.67851E-01   -0.67761E-01   768   0.172E+00-0.235E-02
CGA:   6    -0.662861260293E+03   -0.27541E-01   -0.27560E-01   768   0.929E-01 0.430E-03
CGA:   7    -0.662876535129E+03   -0.15275E-01   -0.15262E-01   768   0.430E-01-0.482E-03
CGA:   8    -0.662884787076E+03   -0.82519E-02   -0.82490E-02   768   0.186E-01 0.102E-03
CGA:   9    -0.662888059009E+03   -0.32719E-02   -0.32718E-02   768   0.884E-02-0.570E-04
CGA:  10    -0.662889327971E+03   -0.12690E-02   -0.12696E-02   768   0.322E-02 0.814E-05
CGA:  11    -0.662889917397E+03   -0.58943E-03   -0.58944E-03   768   0.114E-02-0.396E-06
CGA:  12    -0.662890114951E+03   -0.19755E-03   -0.19756E-03   768   0.637E-03 0.374E-05
CGA:  13    -0.662890218763E+03   -0.10381E-03   -0.10382E-03   768   0.301E-03 0.329E-06
CGA:  14    -0.662890287678E+03   -0.68914E-04   -0.68841E-04   768   0.214E-03 0.149E-05
  20 F= -.66944384E+03 E0= -.66942022E+03  d E =-.320921E-01  mag=     1.5416
       N       E                     dE             d eps       ncg     rms          ort
SDA:   1    -0.658304526287E+03    0.45857E+01    0.00000E+00   768   0.122E+02 0.000E+00
CGA:   2    -0.660641696541E+03   -0.23372E+01   -0.23357E+01   768   0.716E+01 0.290E-01
CGA:   3    -0.661974618407E+03   -0.13329E+01   -0.13347E+01   768   0.430E+01-0.169E+00
CGA:   4    -0.662566348796E+03   -0.59173E+00   -0.59439E+00   768   0.122E+01 0.607E-02
CGA:   5    -0.662751246580E+03   -0.18490E+00   -0.18426E+00   768   0.521E+00-0.101E-01
CGA:   6    -0.662829887979E+03   -0.78641E-01   -0.78743E-01   768   0.249E+00 0.121E-02
CGA:   7    -0.662874498679E+03   -0.44611E-01   -0.44631E-01   768   0.121E+00-0.256E-02
CGA:   8    -0.662895914925E+03   -0.21416E-01   -0.21414E-01   768   0.610E-01 0.399E-03
CGA:   9    -0.662905421935E+03   -0.95070E-02   -0.94991E-02   768   0.268E-01-0.181E-03
CGA:  10    -0.662909702556E+03   -0.42806E-02   -0.42821E-02   768   0.962E-02 0.496E-04
CGA:  11    -0.662911371425E+03   -0.16689E-02   -0.16689E-02   768   0.439E-02-0.850E-05
CGA:  12    -0.662912025777E+03   -0.65435E-03   -0.65450E-03   768   0.190E-02 0.693E-05
CGA:  13    -0.662912388461E+03   -0.36268E-03   -0.36264E-03   768   0.103E-02 0.153E-05
CGA:  14    -0.662912584826E+03   -0.19636E-03   -0.19635E-03   768   0.785E-03 0.194E-05
CGA:  15    -0.662912740476E+03   -0.15565E-03   -0.15561E-03   768   0.547E-03 0.717E-06
CGA:  16    -0.662912871770E+03   -0.13129E-03   -0.13130E-03   768   0.506E-03 0.676E-06
CGA:  17    -0.662912967239E+03   -0.95468E-04   -0.95461E-04   768   0.339E-03-0.315E-07
  21 F= -.66946647E+03 E0= -.66944442E+03  d E =-.547226E-01  mag=     1.3776
       N       E                     dE             d eps       ncg     rms          ort
SDA:   1    -0.662138319130E+03    0.77455E+00    0.00000E+00   768   0.211E+01 0.000E+00
CGA:   2    -0.662596502597E+03   -0.45818E+00   -0.45808E+00   768   0.124E+01 0.231E-02
CGA:   3    -0.662819785477E+03   -0.22328E+00   -0.22327E+00   768   0.629E+00-0.197E-02
CGA:   4    -0.662911217500E+03   -0.91432E-01   -0.91578E-01   768   0.163E+00 0.104E-02
CGA:   5    -0.662936043167E+03   -0.24826E-01   -0.24806E-01   768   0.682E-01-0.210E-03
CGA:   6    -0.662946546925E+03   -0.10504E-01   -0.10511E-01   768   0.378E-01 0.115E-03
CGA:   7    -0.662952479944E+03   -0.59330E-02   -0.59294E-02   768   0.160E-01-0.634E-04
CGA:   8    -0.662955847794E+03   -0.33679E-02   -0.33663E-02   768   0.764E-02 0.319E-04
CGA:   9    -0.662957198166E+03   -0.13504E-02   -0.13503E-02   768   0.431E-02-0.833E-05
CGA:  10    -0.662957803654E+03   -0.60549E-03   -0.60587E-03   768   0.159E-02 0.644E-05
CGA:  11    -0.662958115986E+03   -0.31233E-03   -0.31228E-03   768   0.602E-03 0.245E-05
CGA:  12    -0.662958222340E+03   -0.10635E-03   -0.10636E-03   768   0.397E-03 0.227E-05
CGA:  13    -0.662958286648E+03   -0.64308E-04   -0.64306E-04   768   0.190E-03-0.462E-06
  22 F= -.66951204E+03 E0= -.66949352E+03  d E =-.455692E-01  mag=     1.2565
       N       E                     dE             d eps       ncg     rms          ort
SDA:   1    -0.661748146665E+03    0.12101E+01    0.00000E+00   768   0.317E+01 0.000E+00
CGA:   2    -0.662436830015E+03   -0.68868E+00   -0.68844E+00   768   0.187E+01 0.513E-02
CGA:   3    -0.662769979936E+03   -0.33315E+00   -0.33310E+00   768   0.959E+00-0.462E-02
CGA:   4    -0.662908746235E+03   -0.13877E+00   -0.13908E+00   768   0.244E+00 0.207E-02
CGA:   5    -0.662946143623E+03   -0.37397E-01   -0.37363E-01   768   0.103E+00-0.392E-03
CGA:   6    -0.662962036503E+03   -0.15893E-01   -0.15905E-01   768   0.539E-01 0.201E-03
CGA:   7    -0.662970969040E+03   -0.89325E-02   -0.89291E-02   768   0.238E-01-0.118E-03
CGA:   8    -0.662975883995E+03   -0.49150E-02   -0.49122E-02   768   0.113E-01 0.631E-04
CGA:   9    -0.662977873045E+03   -0.19891E-02   -0.19890E-02   768   0.613E-02-0.132E-04
CGA:  10    -0.662978761646E+03   -0.88860E-03   -0.88915E-03   768   0.218E-02 0.913E-05
CGA:  11    -0.662979186083E+03   -0.42444E-03   -0.42440E-03   768   0.824E-03 0.206E-05
CGA:  12    -0.662979326630E+03   -0.14055E-03   -0.14056E-03   768   0.483E-03 0.251E-05
CGA:  13    -0.662979405736E+03   -0.79106E-04   -0.79101E-04   768   0.215E-03-0.711E-06
  23 F= -.66953327E+03 E0= -.66951860E+03  d E =-.668047E-01  mag=     1.1611
       N       E                     dE             d eps       ncg     rms          ort
SDA:   1    -0.662395663123E+03    0.58366E+00    0.00000E+00   768   0.162E+01 0.000E+00
CGA:   2    -0.662718636105E+03   -0.32297E+00   -0.32289E+00   768   0.938E+00 0.252E-02
CGA:   3    -0.662886124109E+03   -0.16749E+00   -0.16747E+00   768   0.550E+00-0.433E-02
CGA:   4    -0.662967116931E+03   -0.80993E-01   -0.81136E-01   768   0.153E+00 0.118E-02
CGA:   5    -0.662989679101E+03   -0.22562E-01   -0.22546E-01   768   0.610E-01-0.147E-03
CGA:   6    -0.662999298599E+03   -0.96195E-02   -0.96255E-02   768   0.288E-01 0.140E-03
CGA:   7    -0.663004634416E+03   -0.53358E-02   -0.53366E-02   768   0.142E-01-0.483E-04
CGA:   8    -0.663007340202E+03   -0.27058E-02   -0.27050E-02   768   0.715E-02 0.339E-04
CGA:   9    -0.663008525428E+03   -0.11852E-02   -0.11851E-02   768   0.330E-02-0.660E-05
CGA:  10    -0.663009059441E+03   -0.53401E-03   -0.53412E-03   768   0.115E-02 0.456E-05
CGA:  11    -0.663009274333E+03   -0.21489E-03   -0.21490E-03   768   0.512E-03-0.503E-06
CGA:  12    -0.663009356330E+03   -0.81997E-04   -0.82013E-04   768   0.246E-03 0.114E-05
  24 F= -.66956348E+03 E0= -.66955102E+03  d E =-.302074E-01  mag=     1.1146
       N       E                     dE             d eps       ncg     rms          ort
SDA:   1    -0.662757920947E+03    0.25135E+00    0.00000E+00   768   0.676E+00 0.000E+00
CGA:   2    -0.662893068427E+03   -0.13515E+00   -0.13512E+00   768   0.396E+00 0.727E-03
CGA:   3    -0.662962543952E+03   -0.69476E-01   -0.69469E-01   768   0.231E+00-0.119E-02
CGA:   4    -0.662996881161E+03   -0.34337E-01   -0.34369E-01   768   0.629E-01 0.324E-03
CGA:   5    -0.663006414255E+03   -0.95331E-02   -0.95296E-02   768   0.242E-01-0.415E-04
CGA:   6    -0.663010340533E+03   -0.39263E-02   -0.39273E-02   768   0.119E-01 0.453E-04
CGA:   7    -0.663012521727E+03   -0.21812E-02   -0.21813E-02   768   0.585E-02-0.846E-05
CGA:   8    -0.663013639019E+03   -0.11173E-02   -0.11171E-02   768   0.287E-02 0.106E-04
CGA:   9    -0.663014135870E+03   -0.49685E-03   -0.49684E-03   768   0.131E-02-0.223E-05
CGA:  10    -0.663014345663E+03   -0.20979E-03   -0.20983E-03   768   0.483E-03 0.215E-05
CGA:  11    -0.663014435804E+03   -0.90141E-04   -0.90143E-04   768   0.207E-03-0.193E-06
  25 F= -.66956868E+03 E0= -.66955727E+03  d E =-.354089E-01  mag=     1.0934
       N       E                     dE             d eps       ncg     rms          ort
SDA:   1    -0.662437467995E+03    0.57688E+00    0.00000E+00   768   0.156E+01 0.000E+00
CGA:   2    -0.662774619833E+03   -0.33715E+00   -0.33703E+00   768   0.911E+00 0.198E-02
CGA:   3    -0.662931090395E+03   -0.15647E+00   -0.15645E+00   768   0.472E+00-0.204E-02
CGA:   4    -0.663002216162E+03   -0.71126E-01   -0.71188E-01   768   0.121E+00 0.702E-03
CGA:   5    -0.663022655875E+03   -0.20440E-01   -0.20437E-01   768   0.481E-01-0.210E-03
CGA:   6    -0.663030996504E+03   -0.83406E-02   -0.83409E-02   768   0.250E-01 0.948E-04
CGA:   7    -0.663035079975E+03   -0.40835E-02   -0.40826E-02   768   0.125E-01-0.330E-04
CGA:   8    -0.663037414425E+03   -0.23344E-02   -0.23340E-02   768   0.523E-02 0.216E-04
CGA:   9    -0.663038472399E+03   -0.10580E-02   -0.10582E-02   768   0.219E-02-0.500E-05
CGA:  10    -0.663038827653E+03   -0.35525E-03   -0.35534E-03   768   0.101E-02 0.481E-05
CGA:  11    -0.663038989130E+03   -0.16148E-03   -0.16149E-03   768   0.321E-03 0.790E-06
CGA:  12    -0.663039054820E+03   -0.65690E-04   -0.65645E-04   768   0.147E-03 0.155E-05
  26 F= -.66959305E+03 E0= -.66958252E+03  d E =-.243702E-01  mag=     1.0775
       N       E                     dE             d eps       ncg     rms          ort
SDA:   1    -0.662866556761E+03    0.17243E+00    0.00000E+00   768   0.455E+00 0.000E+00
CGA:   2    -0.662965396413E+03   -0.98840E-01   -0.98819E-01   768   0.268E+00 0.335E-03
CGA:   3    -0.663010883705E+03   -0.45487E-01   -0.45481E-01   768   0.140E+00-0.371E-03
CGA:   4    -0.663031918997E+03   -0.21035E-01   -0.21046E-01   768   0.357E-01 0.111E-03
CGA:   5    -0.663038027441E+03   -0.61084E-02   -0.61081E-02   768   0.137E-01-0.274E-04
CGA:   6    -0.663040442770E+03   -0.24153E-02   -0.24153E-02   768   0.727E-02 0.168E-04
CGA:   7    -0.663041646461E+03   -0.12037E-02   -0.12036E-02   768   0.358E-02-0.497E-05
CGA:   8    -0.663042323534E+03   -0.67707E-03   -0.67698E-03   768   0.154E-02 0.469E-05
CGA:   9    -0.663042631129E+03   -0.30759E-03   -0.30761E-03   768   0.635E-03-0.335E-06
CGA:  10    -0.663042736114E+03   -0.10499E-03   -0.10501E-03   768   0.292E-03 0.227E-05
CGA:  11    -0.663042783149E+03   -0.47035E-04   -0.47043E-04   768   0.967E-04 0.530E-06
  27 F= -.66959661E+03 E0= -.66958643E+03  d E =-.279246E-01  mag=     1.0715
       N       E                     dE             d eps       ncg     rms          ort
SDA:   1    -0.662933283574E+03    0.10945E+00    0.00000E+00   768   0.332E+00 0.000E+00
CGA:   2    -0.662997703199E+03   -0.64420E-01   -0.64418E-01   768   0.190E+00 0.863E-05
CGA:   3    -0.663029663794E+03   -0.31961E-01   -0.31960E-01   768   0.938E-01-0.430E-04
CGA:   4    -0.663044704349E+03   -0.15041E-01   -0.15039E-01   768   0.290E-01-0.417E-04
CGA:   5    -0.663049988772E+03   -0.52844E-02   -0.52843E-02   768   0.105E-01 0.605E-05
CGA:   6    -0.663052004933E+03   -0.20162E-02   -0.20165E-02   768   0.466E-02-0.131E-04
CGA:   7    -0.663052878717E+03   -0.87378E-03   -0.87373E-03   768   0.277E-02 0.325E-05
CGA:   8    -0.663053311506E+03   -0.43279E-03   -0.43270E-03   768   0.127E-02-0.205E-05
CGA:   9    -0.663053548191E+03   -0.23668E-03   -0.23667E-03   768   0.401E-03 0.142E-05
CGA:  10    -0.663053630550E+03   -0.82359E-04   -0.82372E-04   768   0.150E-03-0.441E-06
  28 F= -.66960726E+03 E0= -.66959712E+03  d E =-.106569E-01  mag=     1.0697
       N       E                     dE             d eps       ncg     rms          ort
SDA:   1    -0.662945935341E+03    0.10761E+00    0.00000E+00   768   0.307E+00 0.000E+00
CGA:   2    -0.663005495593E+03   -0.59560E-01   -0.59559E-01   768   0.176E+00-0.527E-05
CGA:   3    -0.663035079131E+03   -0.29584E-01   -0.29584E-01   768   0.866E-01-0.202E-04
CGA:   4    -0.663048981163E+03   -0.13902E-01   -0.13901E-01   768   0.268E-01-0.397E-04
CGA:   5    -0.663053812370E+03   -0.48312E-02   -0.48311E-02   768   0.985E-02 0.754E-05
CGA:   6    -0.663055703565E+03   -0.18912E-02   -0.18915E-02   768   0.442E-02-0.123E-04
CGA:   7    -0.663056516975E+03   -0.81341E-03   -0.81338E-03   768   0.262E-02 0.294E-05
CGA:   8    -0.663056932763E+03   -0.41579E-03   -0.41571E-03   768   0.117E-02-0.202E-05
CGA:   9    -0.663057154926E+03   -0.22216E-03   -0.22214E-03   768   0.377E-03 0.130E-05
CGA:  10    -0.663057231484E+03   -0.76558E-04   -0.76570E-04   768   0.146E-03-0.439E-06
  29 F= -.66961067E+03 E0= -.66960056E+03  d E =-.140610E-01  mag=     1.0685
       N       E                     dE             d eps       ncg     rms          ort
SDA:   1    -0.662887934719E+03    0.16922E+00    0.00000E+00   768   0.524E+00 0.000E+00
CGA:   2    -0.662980120772E+03   -0.92186E-01   -0.92187E-01   768   0.267E+00 0.552E-04
CGA:   3    -0.663027585893E+03   -0.47465E-01   -0.47465E-01   768   0.146E+00-0.119E-03
CGA:   4    -0.663051511107E+03   -0.23925E-01   -0.23922E-01   768   0.467E-01-0.128E-03
CGA:   5    -0.663060042039E+03   -0.85309E-02   -0.85308E-02   768   0.173E-01 0.575E-05
CGA:   6    -0.663063377508E+03   -0.33355E-02   -0.33361E-02   768   0.731E-02-0.244E-04
CGA:   7    -0.663064800785E+03   -0.14233E-02   -0.14230E-02   768   0.415E-02 0.100E-04
CGA:   8    -0.663065447050E+03   -0.64627E-03   -0.64606E-03   768   0.194E-02-0.375E-05
CGA:   9    -0.663065791255E+03   -0.34421E-03   -0.34421E-03   768   0.596E-03 0.953E-06
CGA:  10    -0.663065914268E+03   -0.12301E-03   -0.12307E-03   768   0.210E-03-0.208E-05
CGA:  11    -0.663065950453E+03   -0.36185E-04   -0.36186E-04   768   0.113E-03 0.823E-07
  30 F= -.66961946E+03 E0= -.66960948E+03  d E =-.879113E-02  mag=     1.0620
       N       E                     dE             d eps       ncg     rms          ort
SDA:   1    -0.662958706125E+03    0.10721E+00    0.00000E+00   768   0.322E+00 0.000E+00
CGA:   2    -0.663015299120E+03   -0.56593E-01   -0.56594E-01   768   0.165E+00 0.478E-04
CGA:   3    -0.663044462195E+03   -0.29163E-01   -0.29163E-01   768   0.899E-01-0.117E-03
CGA:   4    -0.663059179701E+03   -0.14718E-01   -0.14716E-01   768   0.288E-01-0.506E-04
CGA:   5    -0.663064476899E+03   -0.52972E-02   -0.52972E-02   768   0.103E-01-0.605E-05
CGA:   6    -0.663066528214E+03   -0.20513E-02   -0.20516E-02   768   0.422E-02-0.851E-05
CGA:   7    -0.663067440010E+03   -0.91180E-03   -0.91156E-03   768   0.212E-02 0.467E-05
CGA:   8    -0.663067812542E+03   -0.37253E-03   -0.37251E-03   768   0.118E-02-0.230E-05
CGA:   9    -0.663067987044E+03   -0.17450E-03   -0.17453E-03   768   0.382E-03 0.267E-06
CGA:  10    -0.663068063435E+03   -0.76391E-04   -0.76427E-04   768   0.116E-03-0.158E-05
  31 F= -.66962163E+03 E0= -.66961174E+03  d E =-.109595E-01  mag=     1.0568
       N       E                     dE             d eps       ncg     rms          ort
SDA:   1    -0.663006644250E+03    0.61343E-01    0.00000E+00   768   0.191E+00 0.000E+00
CGA:   2    -0.663043874428E+03   -0.37230E-01   -0.37231E-01   768   0.108E+00-0.497E-04
CGA:   3    -0.663061647995E+03   -0.17774E-01   -0.17776E-01   768   0.501E-01 0.561E-04
CGA:   4    -0.663069545425E+03   -0.78974E-02   -0.78959E-02   768   0.158E-01-0.207E-04
CGA:   5    -0.663072340425E+03   -0.27950E-02   -0.27951E-02   768   0.608E-02 0.908E-05
CGA:   6    -0.663073433771E+03   -0.10933E-02   -0.10933E-02   768   0.291E-02-0.761E-05
CGA:   7    -0.663073920971E+03   -0.48720E-03   -0.48721E-03   768   0.152E-02-0.105E-05
CGA:   8    -0.663074201714E+03   -0.28074E-03   -0.28077E-03   768   0.644E-03-0.341E-05
CGA:   9    -0.663074330170E+03   -0.12846E-03   -0.12845E-03   768   0.245E-03 0.280E-06
CGA:  10    -0.663074373236E+03   -0.43066E-04   -0.43064E-04   768   0.114E-03-0.316E-06
  32 F= -.66962795E+03 E0= -.66961815E+03  d E =-.632693E-02  mag=     1.0551
       N       E                     dE             d eps       ncg     rms          ort
SDA:   1    -0.662474311766E+03    0.60002E+00    0.00000E+00   768   0.172E+01 0.000E+00
CGA:   2    -0.662809705778E+03   -0.33539E+00   -0.33539E+00   768   0.969E+00-0.407E-03
CGA:   3    -0.662969831901E+03   -0.16013E+00   -0.16015E+00   768   0.443E+00 0.550E-03
CGA:   4    -0.663040301943E+03   -0.70470E-01   -0.70443E-01   768   0.140E+00-0.614E-03
CGA:   5    -0.663065395766E+03   -0.25094E-01   -0.25093E-01   768   0.526E-01 0.151E-03
CGA:   6    -0.663075144303E+03   -0.97485E-02   -0.97504E-02   768   0.244E-01-0.156E-03
CGA:   7    -0.663079351117E+03   -0.42068E-02   -0.42072E-02   768   0.134E-01 0.277E-04
CGA:   8    -0.663081679823E+03   -0.23287E-02   -0.23284E-02   768   0.572E-02-0.327E-04
CGA:   9    -0.663082808198E+03   -0.11284E-02   -0.11282E-02   768   0.196E-02 0.678E-05
CGA:  10    -0.663083182789E+03   -0.37459E-03   -0.37463E-03   768   0.873E-03-0.245E-05
CGA:  11    -0.663083311112E+03   -0.12832E-03   -0.12838E-03   768   0.328E-03 0.163E-05
CGA:  12    -0.663083374069E+03   -0.62958E-04   -0.62958E-04   768   0.116E-03 0.325E-08
  33 F= -.66963700E+03 E0= -.66962740E+03  d E =-.153728E-01  mag=     1.0514
       N       E                     dE             d eps       ncg     rms          ort
SDA:   1    -0.663052740761E+03    0.30570E-01    0.00000E+00   768   0.871E-01 0.000E+00
CGA:   2    -0.663078939743E+03   -0.26199E-01   -0.26199E-01   768   0.365E-01 0.194E-05
CGA:   3    -0.663085100175E+03   -0.61604E-02   -0.61607E-02   768   0.161E-01 0.126E-05
CGA:   4    -0.663087286093E+03   -0.21859E-02   -0.21857E-02   768   0.431E-02 0.471E-05
CGA:   5    -0.663088015539E+03   -0.72945E-03   -0.72952E-03   768   0.131E-02 0.439E-05
CGA:   6    -0.663088229581E+03   -0.21404E-03   -0.21402E-03   768   0.581E-03-0.690E-06
CGA:   7    -0.663088326140E+03   -0.96559E-04   -0.96532E-04   768   0.261E-03-0.179E-05
  34 F= -.66964204E+03 E0= -.66963245E+03  d E =-.504251E-02  mag=     1.0519
       N       E                     dE             d eps       ncg     rms          ort
SDA:   1    -0.662777465361E+03    0.31076E+00    0.00000E+00   768   0.781E+00 0.000E+00
CGA:   2    -0.663012893688E+03   -0.23543E+00   -0.23538E+00   768   0.318E+00 0.304E-03
CGA:   3    -0.663069034736E+03   -0.56141E-01   -0.56140E-01   768   0.131E+00-0.748E-04
CGA:   4    -0.663087205639E+03   -0.18171E-01   -0.18174E-01   768   0.379E-01 0.116E-04
CGA:   5    -0.663093697591E+03   -0.64920E-02   -0.64920E-02   768   0.105E-01 0.594E-05
CGA:   6    -0.663095723925E+03   -0.20263E-02   -0.20264E-02   768   0.377E-02-0.272E-05
CGA:   7    -0.663096556494E+03   -0.83257E-03   -0.83282E-03   768   0.171E-02-0.636E-05
CGA:   8    -0.663096949636E+03   -0.39314E-03   -0.39312E-03   768   0.952E-03 0.147E-06
CGA:   9    -0.663097116765E+03   -0.16713E-03   -0.16714E-03   768   0.606E-03 0.104E-05
CGA:  10    -0.663097217013E+03   -0.10025E-03   -0.10031E-03   768   0.202E-03 0.266E-05
CGA:  11    -0.663097265253E+03   -0.48240E-04   -0.48231E-04   768   0.734E-04 0.193E-06
  35 F= -.66965124E+03 E0= -.66964164E+03  d E =-.142413E-01  mag=     1.0547
       N       E                     dE             d eps       ncg     rms          ort
SDA:   1    -0.663024219875E+03    0.72997E-01    0.00000E+00   768   0.181E+00 0.000E+00
CGA:   2    -0.663078739235E+03   -0.54519E-01   -0.54517E-01   768   0.749E-01 0.144E-04
CGA:   3    -0.663091596595E+03   -0.12857E-01   -0.12858E-01   768   0.320E-01 0.724E-05
CGA:   4    -0.663095996163E+03   -0.43996E-02   -0.43985E-02   768   0.872E-02 0.676E-05
CGA:   5    -0.663097484464E+03   -0.14883E-02   -0.14885E-02   768   0.255E-02 0.670E-05
CGA:   6    -0.663097921914E+03   -0.43745E-03   -0.43741E-03   768   0.112E-02-0.139E-05
CGA:   7    -0.663098105898E+03   -0.18398E-03   -0.18393E-03   768   0.537E-03-0.230E-05
CGA:   8    -0.663098208701E+03   -0.10280E-03   -0.10281E-03   768   0.257E-03-0.186E-05
CGA:   9    -0.663098264519E+03   -0.55819E-04   -0.55791E-04   768   0.131E-03 0.943E-06
  36 F= -.66965236E+03 E0= -.66964277E+03  d E =-.153592E-01  mag=     1.0560
       N       E                     dE             d eps       ncg     rms          ort
SDA:   1    -0.663059539227E+03    0.38669E-01    0.00000E+00   768   0.104E+00 0.000E+00
CGA:   2    -0.663091581629E+03   -0.32042E-01   -0.32043E-01   768   0.417E-01-0.131E-04
CGA:   3    -0.663098714765E+03   -0.71331E-02   -0.71325E-02   768   0.195E-01-0.981E-05
CGA:   4    -0.663101136711E+03   -0.24219E-02   -0.24222E-02   768   0.496E-02-0.237E-05
CGA:   5    -0.663102005379E+03   -0.86867E-03   -0.86876E-03   768   0.148E-02 0.638E-05
CGA:   6    -0.663102260023E+03   -0.25464E-03   -0.25465E-03   768   0.601E-03 0.408E-06
CGA:   7    -0.663102369663E+03   -0.10964E-03   -0.10963E-03   768   0.289E-03-0.108E-05
CGA:   8    -0.663102421859E+03   -0.52196E-04   -0.52196E-04   768   0.157E-03 0.104E-06
  37 F= -.66965667E+03 E0= -.66964711E+03  d E =-.431689E-02  mag=     1.0553
       N       E                     dE             d eps       ncg     rms          ort
SDA:   1    -0.662722096942E+03    0.38027E+00    0.00000E+00   768   0.932E+00 0.000E+00
CGA:   2    -0.663011519223E+03   -0.28942E+00   -0.28947E+00   768   0.364E+00-0.557E-03
CGA:   3    -0.663077043004E+03   -0.65524E-01   -0.65516E-01   768   0.158E+00-0.199E-03
CGA:   4    -0.663096807663E+03   -0.19765E-01   -0.19786E-01   768   0.450E-01-0.244E-04
CGA:   5    -0.663104506691E+03   -0.76990E-02   -0.76986E-02   768   0.124E-01 0.304E-05
CGA:   6    -0.663106653902E+03   -0.21472E-02   -0.21473E-02   768   0.545E-02 0.398E-05
CGA:   7    -0.663107599500E+03   -0.94560E-03   -0.94553E-03   768   0.239E-02-0.291E-05
CGA:   8    -0.663108064062E+03   -0.46456E-03   -0.46456E-03   768   0.132E-02 0.123E-05
CGA:   9    -0.663108322393E+03   -0.25833E-03   -0.25832E-03   768   0.646E-03 0.122E-05
CGA:  10    -0.663108452860E+03   -0.13047E-03   -0.13043E-03   768   0.325E-03 0.314E-05
CGA:  11    -0.663108510113E+03   -0.57252E-04   -0.57257E-04   768   0.139E-03 0.293E-06
  38 F= -.66966324E+03 E0= -.66965374E+03  d E =-.108826E-01  mag=     1.0527
       N       E                     dE             d eps       ncg     rms          ort
SDA:   1    -0.663021828732E+03    0.86624E-01    0.00000E+00   768   0.227E+00 0.000E+00
CGA:   2    -0.663087310404E+03   -0.65482E-01   -0.65464E-01   768   0.108E+00 0.148E-03
CGA:   3    -0.663104673404E+03   -0.17363E-01   -0.17360E-01   768   0.443E-01-0.332E-04
CGA:   4    -0.663110899555E+03   -0.62262E-02   -0.62281E-02   768   0.119E-01 0.407E-05
CGA:   5    -0.663112960310E+03   -0.20608E-02   -0.20607E-02   768   0.348E-02 0.760E-06
CGA:   6    -0.663113619781E+03   -0.65947E-03   -0.65947E-03   768   0.142E-02-0.174E-05
CGA:   7    -0.663113890461E+03   -0.27068E-03   -0.27068E-03   768   0.780E-03-0.199E-05
CGA:   8    -0.663114020478E+03   -0.13002E-03   -0.13002E-03   768   0.411E-03 0.180E-06
CGA:   9    -0.663114100116E+03   -0.79639E-04   -0.79638E-04   768   0.167E-03 0.173E-06
  39 F= -.66966890E+03 E0= -.66965947E+03  d E =-.565990E-02  mag=     1.0524
       N       E                     dE             d eps       ncg     rms          ort
SDA:   1    -0.663024758562E+03    0.89262E-01    0.00000E+00   768   0.224E+00 0.000E+00
CGA:   2    -0.663089312584E+03   -0.64554E-01   -0.64537E-01   768   0.107E+00 0.147E-03
CGA:   3    -0.663106505969E+03   -0.17193E-01   -0.17191E-01   768   0.438E-01-0.313E-04
CGA:   4    -0.663112770484E+03   -0.62645E-02   -0.62662E-02   768   0.113E-01 0.466E-05
CGA:   5    -0.663114759867E+03   -0.19894E-02   -0.19893E-02   768   0.363E-02 0.752E-06
CGA:   6    -0.663115422202E+03   -0.66233E-03   -0.66233E-03   768   0.142E-02-0.149E-05
CGA:   7    -0.663115702198E+03   -0.28000E-03   -0.28002E-03   768   0.779E-03-0.207E-05
CGA:   8    -0.663115831454E+03   -0.12926E-03   -0.12926E-03   768   0.417E-03 0.162E-06
CGA:   9    -0.663115911446E+03   -0.79992E-04   -0.79992E-04   768   0.169E-03 0.185E-06
  40 F= -.66967078E+03 E0= -.66966144E+03  d E =-.753761E-02  mag=     1.0520
       N       E                     dE             d eps       ncg     rms          ort
SDA:   1    -0.663032871062E+03    0.82960E-01    0.00000E+00   768   0.228E+00 0.000E+00
CGA:   2    -0.663086725516E+03   -0.53854E-01   -0.53848E-01   768   0.132E+00 0.888E-04
CGA:   3    -0.663107036563E+03   -0.20311E-01   -0.20299E-01   768   0.551E-01-0.115E-03
CGA:   4    -0.663115415939E+03   -0.83794E-02   -0.83814E-02   768   0.153E-01-0.230E-05
CGA:   5    -0.663118138633E+03   -0.27227E-02   -0.27225E-02   768   0.537E-02-0.809E-05
CGA:   6    -0.663119131567E+03   -0.99293E-03   -0.99294E-03   768   0.239E-02 0.696E-06
CGA:   7    -0.663119582184E+03   -0.45062E-03   -0.45062E-03   768   0.136E-02-0.864E-06
CGA:   8    -0.663119808630E+03   -0.22645E-03   -0.22649E-03   768   0.623E-03 0.153E-05
CGA:   9    -0.663119934223E+03   -0.12559E-03   -0.12560E-03   768   0.232E-03-0.424E-06
CGA:  10    -0.663119981041E+03   -0.46819E-04   -0.46810E-04   768   0.101E-03 0.567E-06
  41 F= -.66967496E+03 E0= -.66966568E+03  d E =-.417819E-02  mag=     1.0503
       N       E                     dE             d eps       ncg     rms          ort
SDA:   1    -0.662340828353E+03    0.77911E+00    0.00000E+00   768   0.206E+01 0.000E+00
CGA:   2    -0.662823609252E+03   -0.48278E+00   -0.48252E+00   768   0.120E+01 0.325E-02
CGA:   3    -0.663007493885E+03   -0.18388E+00   -0.18353E+00   768   0.503E+00-0.368E-02
CGA:   4    -0.663083581779E+03   -0.76088E-01   -0.76149E-01   768   0.139E+00 0.610E-04
CGA:   5    -0.663108558389E+03   -0.24977E-01   -0.24973E-01   768   0.475E-01-0.308E-03
CGA:   6    -0.663117296958E+03   -0.87386E-02   -0.87387E-02   768   0.210E-01 0.353E-04
CGA:   7    -0.663121267520E+03   -0.39706E-02   -0.39708E-02   768   0.118E-01-0.391E-04
CGA:   8    -0.663123256132E+03   -0.19886E-02   -0.19890E-02   768   0.543E-02 0.118E-04
CGA:   9    -0.663124354442E+03   -0.10983E-02   -0.10985E-02   768   0.203E-02-0.630E-05
CGA:  10    -0.663124761534E+03   -0.40709E-03   -0.40704E-03   768   0.885E-03 0.267E-05
CGA:  11    -0.663124902239E+03   -0.14070E-03   -0.14068E-03   768   0.375E-03-0.715E-06
CGA:  12    -0.663124970028E+03   -0.67790E-04   -0.67794E-04   768   0.126E-03 0.122E-05
  42 F= -.66968026E+03 E0= -.66967114E+03  d E =-.948284E-02  mag=     1.0450
       N       E                     dE             d eps       ncg     rms          ort
SDA:   1    -0.662989442776E+03    0.13546E+00    0.00000E+00   768   0.384E+00 0.000E+00
CGA:   2    -0.663070358958E+03   -0.80916E-01   -0.80910E-01   768   0.219E+00 0.111E-03
CGA:   3    -0.663105312302E+03   -0.34953E-01   -0.34943E-01   768   0.986E-01-0.181E-03
CGA:   4    -0.663120716369E+03   -0.15404E-01   -0.15406E-01   768   0.284E-01-0.117E-05
CGA:   5    -0.663125948725E+03   -0.52324E-02   -0.52323E-02   768   0.983E-02-0.136E-04
CGA:   6    -0.663127936217E+03   -0.19875E-02   -0.19876E-02   768   0.423E-02-0.575E-05
CGA:   7    -0.663128911577E+03   -0.97536E-03   -0.97552E-03   768   0.189E-02-0.268E-05
CGA:   8    -0.663129343618E+03   -0.43204E-03   -0.43195E-03   768   0.816E-03 0.175E-05
CGA:   9    -0.663129489686E+03   -0.14607E-03   -0.14606E-03   768   0.419E-03-0.266E-06
CGA:  10    -0.663129548603E+03   -0.58916E-04   -0.58965E-04   768   0.134E-03 0.920E-06
  43 F= -.66968487E+03 E0= -.66967575E+03  d E =-.460915E-02  mag=     1.0453
       N       E                     dE             d eps       ncg     rms          ort
SDA:   1    -0.662269769564E+03    0.85972E+00    0.00000E+00   768   0.237E+01 0.000E+00
CGA:   2    -0.662769158999E+03   -0.49939E+00   -0.49929E+00   768   0.135E+01 0.184E-02
CGA:   3    -0.662985359680E+03   -0.21620E+00   -0.21604E+00   768   0.608E+00-0.280E-02
CGA:   4    -0.663080108884E+03   -0.94749E-01   -0.94776E-01   768   0.176E+00-0.143E-03
CGA:   5    -0.663112273568E+03   -0.32165E-01   -0.32164E-01   768   0.613E-01-0.215E-03
CGA:   6    -0.663124698683E+03   -0.12425E-01   -0.12426E-01   768   0.259E-01-0.675E-04
CGA:   7    -0.663130681449E+03   -0.59828E-02   -0.59835E-02   768   0.113E-01-0.130E-04
CGA:   8    -0.663133347416E+03   -0.26660E-02   -0.26664E-02   768   0.428E-02-0.554E-05
CGA:   9    -0.663134312206E+03   -0.96479E-03   -0.96462E-03   768   0.143E-02 0.386E-05
CGA:  10    -0.663134585365E+03   -0.27316E-03   -0.27316E-03   768   0.762E-03-0.689E-06
CGA:  11    -0.663134687202E+03   -0.10184E-03   -0.10192E-03   768   0.245E-03 0.145E-05
CGA:  12    -0.663134743951E+03   -0.56748E-04   -0.56733E-04   768   0.836E-04 0.365E-06
  44 F= -.66969015E+03 E0= -.66968102E+03  d E =-.988816E-02  mag=     1.0468
       N       E                     dE             d eps       ncg     rms          ort
SDA:   1    -0.663018703418E+03    0.11598E+00    0.00000E+00   768   0.323E+00 0.000E+00
CGA:   2    -0.663089303418E+03   -0.70600E-01   -0.70605E-01   768   0.189E+00-0.137E-03
CGA:   3    -0.663118947075E+03   -0.29644E-01   -0.29660E-01   768   0.838E-01 0.113E-03
CGA:   4    -0.663131909971E+03   -0.12963E-01   -0.12959E-01   768   0.246E-01-0.537E-05
CGA:   5    -0.663136267655E+03   -0.43577E-02   -0.43583E-02   768   0.866E-02 0.166E-04
CGA:   6    -0.663137850144E+03   -0.15825E-02   -0.15823E-02   768   0.413E-02-0.940E-05
CGA:   7    -0.663138610145E+03   -0.76000E-03   -0.76001E-03   768   0.228E-02-0.949E-06
CGA:   8    -0.663139003786E+03   -0.39364E-03   -0.39355E-03   768   0.986E-03-0.290E-05
CGA:   9    -0.663139204736E+03   -0.20095E-03   -0.20093E-03   768   0.369E-03 0.126E-05
CGA:  10    -0.663139274653E+03   -0.69918E-04   -0.69917E-04   768   0.162E-03 0.593E-08
  45 F= -.66969478E+03 E0= -.66968565E+03  d E =-.462951E-02  mag=     1.0454
       N       E                     dE             d eps       ncg     rms          ort
SDA:   1    -0.662994304603E+03    0.14490E+00    0.00000E+00   768   0.393E+00 0.000E+00
CGA:   2    -0.663080240305E+03   -0.85936E-01   -0.85944E-01   768   0.229E+00-0.189E-03
CGA:   3    -0.663116324615E+03   -0.36084E-01   -0.36102E-01   768   0.102E+00 0.174E-03
CGA:   4    -0.663132061617E+03   -0.15737E-01   -0.15732E-01   768   0.299E-01-0.169E-04
CGA:   5    -0.663137290478E+03   -0.52289E-02   -0.52295E-02   768   0.106E-01 0.228E-04
CGA:   6    -0.663139252199E+03   -0.19617E-02   -0.19617E-02   768   0.515E-02-0.131E-04
CGA:   7    -0.663140181744E+03   -0.92954E-03   -0.92956E-03   768   0.279E-02-0.478E-06
CGA:   8    -0.663140666524E+03   -0.48478E-03   -0.48470E-03   768   0.119E-02-0.368E-05
CGA:   9    -0.663140908768E+03   -0.24224E-03   -0.24221E-03   768   0.449E-03 0.154E-05
CGA:  10    -0.663140993264E+03   -0.84496E-04   -0.84496E-04   768   0.197E-03-0.242E-07
  46 F= -.66969660E+03 E0= -.66968749E+03  d E =-.644988E-02  mag=     1.0440
       N       E                     dE             d eps       ncg     rms          ort
SDA:   1    -0.662985424381E+03    0.15548E+00    0.00000E+00   768   0.420E+00 0.000E+00
CGA:   2    -0.663084646115E+03   -0.99222E-01   -0.99240E-01   768   0.245E+00-0.221E-03
CGA:   3    -0.663120932261E+03   -0.36286E-01   -0.36325E-01   768   0.103E+00 0.298E-03
CGA:   4    -0.663136654858E+03   -0.15723E-01   -0.15717E-01   768   0.294E-01-0.653E-05
CGA:   5    -0.663141559747E+03   -0.49049E-02   -0.49057E-02   768   0.987E-02 0.220E-04
CGA:   6    -0.663143343556E+03   -0.17838E-02   -0.17837E-02   768   0.467E-02-0.136E-04
CGA:   7    -0.663144191586E+03   -0.84803E-03   -0.84803E-03   768   0.239E-02-0.473E-05
CGA:   8    -0.663144626668E+03   -0.43508E-03   -0.43507E-03   768   0.107E-02-0.556E-05
CGA:   9    -0.663144840465E+03   -0.21380E-03   -0.21377E-03   768   0.455E-03 0.143E-05
CGA:  10    -0.663144922565E+03   -0.82099E-04   -0.82101E-04   768   0.199E-03 0.523E-06
  47 F= -.66970059E+03 E0= -.66969151E+03  d E =-.398708E-02  mag=     1.0443
       N       E                     dE             d eps       ncg     rms          ort
SDA:   1    -0.663023514708E+03    0.12133E+00    0.00000E+00   768   0.322E+00 0.000E+00
CGA:   2    -0.663099692787E+03   -0.76178E-01   -0.76192E-01   768   0.188E+00-0.159E-03
CGA:   3    -0.663127522207E+03   -0.27829E-01   -0.27854E-01   768   0.793E-01 0.209E-03
CGA:   4    -0.663139616381E+03   -0.12094E-01   -0.12091E-01   768   0.226E-01-0.152E-05
CGA:   5    -0.663143376062E+03   -0.37597E-02   -0.37602E-02   768   0.764E-02 0.155E-04
CGA:   6    -0.663144753847E+03   -0.13778E-02   -0.13778E-02   768   0.363E-02-0.105E-04
CGA:   7    -0.663145411737E+03   -0.65789E-03   -0.65789E-03   768   0.185E-02-0.458E-05
CGA:   8    -0.663145749496E+03   -0.33776E-03   -0.33777E-03   768   0.832E-03-0.461E-05
CGA:   9    -0.663145914575E+03   -0.16508E-03   -0.16505E-03   768   0.355E-03 0.117E-05
CGA:  10    -0.663145978243E+03   -0.63668E-04   -0.63669E-04   768   0.155E-03 0.481E-06
  48 F= -.66970169E+03 E0= -.66969266E+03  d E =-.508715E-02  mag=     1.0446
       N       E                     dE             d eps       ncg     rms          ort
SDA:   1    -0.663069924642E+03    0.75990E-01    0.00000E+00   768   0.205E+00 0.000E+00
CGA:   2    -0.663119984742E+03   -0.50060E-01   -0.50070E-01   768   0.113E+00-0.115E-03
CGA:   3    -0.663137694865E+03   -0.17710E-01   -0.17716E-01   768   0.485E-01 0.694E-04
CGA:   4    -0.663144943759E+03   -0.72489E-02   -0.72473E-02   768   0.140E-01-0.374E-06
CGA:   5    -0.663147273598E+03   -0.23298E-02   -0.23301E-02   768   0.462E-02 0.786E-05
CGA:   6    -0.663148095944E+03   -0.82235E-03   -0.82233E-03   768   0.223E-02-0.438E-05
CGA:   7    -0.663148496323E+03   -0.40038E-03   -0.40038E-03   768   0.113E-02-0.255E-05
CGA:   8    -0.663148699242E+03   -0.20292E-03   -0.20292E-03   768   0.502E-03-0.265E-05
CGA:   9    -0.663148803407E+03   -0.10416E-03   -0.10415E-03   768   0.218E-03 0.633E-06
CGA:  10    -0.663148842554E+03   -0.39147E-04   -0.39147E-04   768   0.100E-03 0.620E-07
  49 F= -.66970467E+03 E0= -.66969568E+03  d E =-.298352E-02  mag=     1.0435
       N       E                     dE             d eps       ncg     rms          ort
SDA:   1    -0.662934918509E+03    0.21388E+00    0.00000E+00   768   0.561E+00 0.000E+00
CGA:   2    -0.663071852210E+03   -0.13693E+00   -0.13697E+00   768   0.308E+00-0.460E-03
CGA:   3    -0.663120179104E+03   -0.48327E-01   -0.48350E-01   768   0.131E+00 0.306E-03
CGA:   4    -0.663139816029E+03   -0.19637E-01   -0.19630E-01   768   0.380E-01-0.250E-04
CGA:   5    -0.663146218467E+03   -0.64024E-02   -0.64032E-02   768   0.124E-01 0.294E-04
CGA:   6    -0.663148427428E+03   -0.22090E-02   -0.22089E-02   768   0.605E-02-0.145E-04
CGA:   7    -0.663149499903E+03   -0.10725E-02   -0.10725E-02   768   0.305E-02-0.280E-05
CGA:   8    -0.663150044526E+03   -0.54462E-03   -0.54461E-03   768   0.135E-02-0.545E-05
CGA:   9    -0.663150326742E+03   -0.28222E-03   -0.28216E-03   768   0.573E-03 0.157E-05
CGA:  10    -0.663150430607E+03   -0.10387E-03   -0.10386E-03   768   0.267E-03-0.208E-08
CGA:  11    -0.663150473789E+03   -0.43182E-04   -0.43200E-04   768   0.998E-04 0.935E-06
  50 F= -.66970649E+03 E0= -.66969756E+03  d E =-.480527E-02  mag=     1.0417
       N       E                     dE             d eps       ncg     rms          ort
SDA:   1    -0.663049428461E+03    0.10100E+00    0.00000E+00   768   0.273E+00 0.000E+00
CGA:   2    -0.663116566256E+03   -0.67138E-01   -0.67136E-01   768   0.145E+00 0.583E-05
CGA:   3    -0.663139424686E+03   -0.22858E-01   -0.22859E-01   768   0.620E-01-0.146E-04
CGA:   4    -0.663148771525E+03   -0.93468E-02   -0.93467E-02   768   0.175E-01-0.214E-05
CGA:   5    -0.663151762318E+03   -0.29908E-02   -0.29908E-02   768   0.523E-02 0.202E-06
CGA:   6    -0.663152827399E+03   -0.10651E-02   -0.10653E-02   768   0.237E-02-0.659E-05
CGA:   7    -0.663153316955E+03   -0.48956E-03   -0.48960E-03   768   0.119E-02-0.242E-05
CGA:   8    -0.663153521667E+03   -0.20471E-03   -0.20469E-03   768   0.690E-03-0.192E-05
CGA:   9    -0.663153635669E+03   -0.11400E-03   -0.11402E-03   768   0.246E-03 0.704E-06
CGA:  10    -0.663153688741E+03   -0.53072E-04   -0.53066E-04   768   0.841E-04 0.203E-06
  51 F= -.66970981E+03 E0= -.66970095E+03  d E =-.332307E-02  mag=     1.0410
       N       E                     dE             d eps       ncg     rms          ort
SDA:   1    -0.662219527782E+03    0.93411E+00    0.00000E+00   768   0.246E+01 0.000E+00
CGA:   2    -0.662824100754E+03   -0.60457E+00   -0.60454E+00   768   0.131E+01 0.220E-03
CGA:   3    -0.663030107600E+03   -0.20601E+00   -0.20607E+00   768   0.555E+00 0.452E-03
CGA:   4    -0.663113935058E+03   -0.83827E-01   -0.83809E-01   768   0.157E+00-0.155E-03
CGA:   5    -0.663140892469E+03   -0.26957E-01   -0.26960E-01   768   0.483E-01 0.502E-04
CGA:   6    -0.663150366393E+03   -0.94739E-02   -0.94759E-02   768   0.227E-01-0.103E-03
CGA:   7    -0.663154657706E+03   -0.42913E-02   -0.42912E-02   768   0.122E-01 0.104E-04
CGA:   8    -0.663156617586E+03   -0.19599E-02   -0.19591E-02   768   0.595E-02-0.160E-04
CGA:   9    -0.663157768155E+03   -0.11506E-02   -0.11505E-02   768   0.212E-02 0.708E-05
CGA:  10    -0.663158223884E+03   -0.45573E-03   -0.45578E-03   768   0.850E-03-0.934E-06
CGA:  11    -0.663158365167E+03   -0.14128E-03   -0.14132E-03   768   0.425E-03 0.171E-05
CGA:  12    -0.663158433908E+03   -0.68741E-04   -0.68733E-04   768   0.137E-03-0.363E-06
  52 F= -.66971487E+03 E0= -.66970619E+03  d E =-.837408E-02  mag=     1.0390
       N       E                     dE             d eps       ncg     rms          ort
SDA:   1    -0.663000398106E+03    0.15797E+00    0.00000E+00   768   0.433E+00 0.000E+00
CGA:   2    -0.663101434969E+03   -0.10104E+00   -0.10102E+00   768   0.236E+00 0.184E-03
CGA:   3    -0.663138278147E+03   -0.36843E-01   -0.36823E-01   768   0.103E+00-0.263E-03
CGA:   4    -0.663154173733E+03   -0.15896E-01   -0.15900E-01   768   0.290E-01 0.398E-05
CGA:   5    -0.663159232349E+03   -0.50586E-02   -0.50582E-02   768   0.924E-02-0.220E-04
CGA:   6    -0.663161008608E+03   -0.17763E-02   -0.17762E-02   768   0.450E-02 0.110E-05
CGA:   7    -0.663161843269E+03   -0.83466E-03   -0.83467E-03   768   0.246E-02-0.515E-05
CGA:   8    -0.663162242401E+03   -0.39913E-03   -0.39917E-03   768   0.114E-02 0.712E-06
CGA:   9    -0.663162470488E+03   -0.22809E-03   -0.22812E-03   768   0.414E-03-0.139E-05
CGA:  10    -0.663162555782E+03   -0.85293E-04   -0.85271E-04   768   0.180E-03 0.950E-06
  53 F= -.66971930E+03 E0= -.66971063E+03  d E =-.443209E-02  mag=     1.0375
       N       E                     dE             d eps       ncg     rms          ort
SDA:   1    -0.662825665548E+03    0.33680E+00    0.00000E+00   768   0.909E+00 0.000E+00
CGA:   2    -0.663036226721E+03   -0.21056E+00   -0.21050E+00   768   0.498E+00 0.742E-03
CGA:   3    -0.663113527727E+03   -0.77301E-01   -0.77228E-01   768   0.218E+00-0.984E-03
CGA:   4    -0.663147054593E+03   -0.33527E-01   -0.33541E-01   768   0.617E-01 0.293E-04
CGA:   5    -0.663157590326E+03   -0.10536E-01   -0.10534E-01   768   0.204E-01-0.836E-04
CGA:   6    -0.663161405169E+03   -0.38148E-02   -0.38147E-02   768   0.991E-02 0.804E-05
CGA:   7    -0.663163186426E+03   -0.17813E-02   -0.17812E-02   768   0.532E-02-0.140E-04
CGA:   8    -0.663164079453E+03   -0.89303E-03   -0.89310E-03   768   0.233E-02 0.244E-05
CGA:   9    -0.663164559998E+03   -0.48054E-03   -0.48064E-03   768   0.903E-03-0.301E-05
CGA:  10    -0.663164734019E+03   -0.17402E-03   -0.17400E-03   768   0.415E-03 0.155E-05
CGA:  11    -0.663164798161E+03   -0.64142E-04   -0.64134E-04   768   0.164E-03-0.236E-06
  54 F= -.66972198E+03 E0= -.66971331E+03  d E =-.711407E-02  mag=     1.0352
       N       E                     dE             d eps       ncg     rms          ort
SDA:   1    -0.662943844699E+03    0.22089E+00    0.00000E+00   768   0.602E+00 0.000E+00
CGA:   2    -0.663088117546E+03   -0.14427E+00   -0.14424E+00   768   0.318E+00 0.312E-03
CGA:   3    -0.663136492944E+03   -0.48375E-01   -0.48331E-01   768   0.141E+00-0.534E-03
CGA:   4    -0.663157795931E+03   -0.21303E-01   -0.21310E-01   768   0.388E-01-0.728E-05
CGA:   5    -0.663164302606E+03   -0.65067E-02   -0.65055E-02   768   0.123E-01-0.348E-04
CGA:   6    -0.663166497996E+03   -0.21954E-02   -0.21954E-02   768   0.597E-02 0.427E-05
CGA:   7    -0.663167545980E+03   -0.10480E-02   -0.10479E-02   768   0.294E-02-0.508E-05
CGA:   8    -0.663168071418E+03   -0.52544E-03   -0.52544E-03   768   0.133E-02 0.108E-05
CGA:   9    -0.663168348149E+03   -0.27673E-03   -0.27679E-03   768   0.587E-03-0.183E-05
CGA:  10    -0.663168454811E+03   -0.10666E-03   -0.10666E-03   768   0.280E-03 0.124E-05
CGA:  11    -0.663168501013E+03   -0.46202E-04   -0.46201E-04   768   0.104E-03-0.590E-07
  55 F= -.66972619E+03 E0= -.66971751E+03  d E =-.421245E-02  mag=     1.0343
       N       E                     dE             d eps       ncg     rms          ort
SDA:   1    -0.662958249196E+03    0.21021E+00    0.00000E+00   768   0.565E+00 0.000E+00
CGA:   2    -0.663093886457E+03   -0.13564E+00   -0.13561E+00   768   0.299E+00 0.280E-03
CGA:   3    -0.663139332397E+03   -0.45446E-01   -0.45406E-01   768   0.132E+00-0.489E-03
CGA:   4    -0.663159306032E+03   -0.19974E-01   -0.19980E-01   768   0.365E-01-0.663E-05
CGA:   5    -0.663165400946E+03   -0.60949E-02   -0.60939E-02   768   0.116E-01-0.313E-04
CGA:   6    -0.663167464989E+03   -0.20640E-02   -0.20641E-02   768   0.564E-02 0.371E-05
CGA:   7    -0.663168455062E+03   -0.99007E-03   -0.99003E-03   768   0.277E-02-0.475E-05
CGA:   8    -0.663168950667E+03   -0.49561E-03   -0.49561E-03   768   0.126E-02 0.107E-05
CGA:   9    -0.663169211026E+03   -0.26036E-03   -0.26041E-03   768   0.558E-03-0.166E-05
CGA:  10    -0.663169311541E+03   -0.10052E-03   -0.10052E-03   768   0.265E-03 0.119E-05
CGA:  11    -0.663169355370E+03   -0.43829E-04   -0.43828E-04   768   0.977E-04-0.640E-07
  56 F= -.66972753E+03 E0= -.66971883E+03  d E =-.555147E-02  mag=     1.0334
       N       E                     dE             d eps       ncg     rms          ort
SDA:   1    -0.662966844568E+03    0.20247E+00    0.00000E+00   768   0.544E+00 0.000E+00
CGA:   2    -0.663107699088E+03   -0.14085E+00   -0.14080E+00   768   0.254E+00 0.518E-03
CGA:   3    -0.663148109736E+03   -0.40411E-01   -0.40393E-01   768   0.114E+00-0.305E-03
CGA:   4    -0.663164371440E+03   -0.16262E-01   -0.16268E-01   768   0.296E-01-0.103E-04
CGA:   5    -0.663169175815E+03   -0.48044E-02   -0.48036E-02   768   0.900E-02-0.146E-04
CGA:   6    -0.663170739135E+03   -0.15633E-02   -0.15633E-02   768   0.413E-02-0.519E-06
CGA:   7    -0.663171442463E+03   -0.70333E-03   -0.70326E-03   768   0.190E-02-0.498E-05
CGA:   8    -0.663171789363E+03   -0.34690E-03   -0.34690E-03   768   0.866E-03-0.133E-05
CGA:   9    -0.663171968467E+03   -0.17910E-03   -0.17915E-03   768   0.420E-03-0.158E-05
CGA:  10    -0.663172044949E+03   -0.76482E-04   -0.76482E-04   768   0.203E-03 0.122E-05
  57 F= -.66973066E+03 E0= -.66972203E+03  d E =-.313071E-02  mag=     1.0336
       N       E                     dE             d eps       ncg     rms          ort
SDA:   1    -0.663030148029E+03    0.14182E+00    0.00000E+00   768   0.378E+00 0.000E+00
CGA:   2    -0.663127576631E+03   -0.97429E-01   -0.97395E-01   768   0.179E+00 0.329E-03
CGA:   3    -0.663155556146E+03   -0.27980E-01   -0.27967E-01   768   0.807E-01-0.191E-03
CGA:   4    -0.663167165307E+03   -0.11609E-01   -0.11611E-01   768   0.209E-01-0.173E-04
CGA:   5    -0.663170497929E+03   -0.33326E-02   -0.33322E-02   768   0.662E-02-0.655E-05
CGA:   6    -0.663171635275E+03   -0.11373E-02   -0.11373E-02   768   0.290E-02-0.749E-06
CGA:   7    -0.663172146581E+03   -0.51131E-03   -0.51129E-03   768   0.136E-02-0.405E-05
CGA:   8    -0.663172392022E+03   -0.24544E-03   -0.24544E-03   768   0.627E-03-0.127E-05
CGA:   9    -0.663172518414E+03   -0.12639E-03   -0.12642E-03   768   0.308E-03-0.122E-05
CGA:  10    -0.663172574508E+03   -0.56094E-04   -0.56092E-04   768   0.143E-03 0.101E-05
  58 F= -.66973155E+03 E0= -.66972298E+03  d E =-.401864E-02  mag=     1.0336
       N       E                     dE             d eps       ncg     rms          ort
SDA:   1    -0.663038740584E+03    0.13378E+00    0.00000E+00   768   0.365E+00 0.000E+00
CGA:   2    -0.663134244142E+03   -0.95504E-01   -0.95502E-01   768   0.160E+00-0.721E-05
CGA:   3    -0.663160087875E+03   -0.25844E-01   -0.25837E-01   768   0.749E-01-0.136E-03
CGA:   4    -0.663170378232E+03   -0.10290E-01   -0.10291E-01   768   0.194E-01-0.228E-04
CGA:   5    -0.663173458376E+03   -0.30801E-02   -0.30799E-02   768   0.573E-02 0.270E-06
CGA:   6    -0.663174437988E+03   -0.97961E-03   -0.97963E-03   768   0.242E-02 0.133E-05
CGA:   7    -0.663174869886E+03   -0.43190E-03   -0.43190E-03   768   0.109E-02-0.300E-05
CGA:   8    -0.663175061718E+03   -0.19183E-03   -0.19183E-03   768   0.523E-03-0.148E-05
CGA:   9    -0.663175166952E+03   -0.10523E-03   -0.10526E-03   768   0.259E-03-0.131E-05
CGA:  10    -0.663175216687E+03   -0.49735E-04   -0.49725E-04   768   0.127E-03 0.798E-06
  59 F= -.66973466E+03 E0= -.66972616E+03  d E =-.311044E-02  mag=     1.0323
       N       E                     dE             d eps       ncg     rms          ort
SDA:   1    -0.662746398326E+03    0.42877E+00    0.00000E+00   768   0.115E+01 0.000E+00
CGA:   2    -0.663047632127E+03   -0.30123E+00   -0.30123E+00   768   0.502E+00-0.125E-03
CGA:   3    -0.663129376675E+03   -0.81745E-01   -0.81713E-01   768   0.233E+00-0.685E-03
CGA:   4    -0.663161329956E+03   -0.31953E-01   -0.31962E-01   768   0.609E-01-0.536E-04
CGA:   5    -0.663171055138E+03   -0.97252E-02   -0.97233E-02   768   0.179E-01-0.314E-04
CGA:   6    -0.663174080138E+03   -0.30250E-02   -0.30251E-02   768   0.764E-02 0.479E-05
CGA:   7    -0.663175432423E+03   -0.13523E-02   -0.13523E-02   768   0.336E-02-0.653E-05
CGA:   8    -0.663176031678E+03   -0.59925E-03   -0.59925E-03   768   0.162E-02-0.177E-05
CGA:   9    -0.663176356673E+03   -0.32499E-03   -0.32505E-03   768   0.808E-03-0.253E-05
CGA:  10    -0.663176510210E+03   -0.15354E-03   -0.15352E-03   768   0.393E-03 0.156E-05
CGA:  11    -0.663176579070E+03   -0.68861E-04   -0.68861E-04   768   0.163E-03-0.250E-07
  60 F= -.66973683E+03 E0= -.66972845E+03  d E =-.527716E-02  mag=     1.0298
       N       E                     dE             d eps       ncg     rms          ort
SDA:   1    -0.663038856454E+03    0.13765E+00    0.00000E+00   768   0.379E+00 0.000E+00
CGA:   2    -0.663137250930E+03   -0.98394E-01   -0.98387E-01   768   0.160E+00 0.715E-04
CGA:   3    -0.663164592913E+03   -0.27342E-01   -0.27341E-01   768   0.680E-01-0.534E-04
CGA:   4    -0.663174542037E+03   -0.99491E-02   -0.99500E-02   768   0.183E-01-0.178E-05
CGA:   5    -0.663177505334E+03   -0.29633E-02   -0.29632E-02   768   0.491E-02-0.117E-06
CGA:   6    -0.663178477922E+03   -0.97259E-03   -0.97261E-03   768   0.195E-02-0.172E-05
CGA:   7    -0.663178880353E+03   -0.40243E-03   -0.40256E-03   768   0.858E-03-0.514E-05
CGA:   8    -0.663179039542E+03   -0.15919E-03   -0.15919E-03   768   0.539E-03-0.162E-05
CGA:   9    -0.663179126141E+03   -0.86599E-04   -0.86571E-04   768   0.232E-03-0.111E-05
  61 F= -.66973984E+03 E0= -.66973145E+03  d E =-.301729E-02  mag=     1.0297
       N       E                     dE             d eps       ncg     rms          ort
SDA:   1    -0.662041745792E+03    0.11373E+01    0.00000E+00   768   0.309E+01 0.000E+00
CGA:   2    -0.662839778608E+03   -0.79803E+00   -0.79784E+00   768   0.131E+01 0.194E-02
CGA:   3    -0.663062191851E+03   -0.22241E+00   -0.22237E+00   768   0.555E+00-0.112E-02
CGA:   4    -0.663143457782E+03   -0.81266E-01   -0.81319E-01   768   0.148E+00 0.148E-03
CGA:   5    -0.663167740080E+03   -0.24282E-01   -0.24275E-01   768   0.417E-01-0.151E-03
CGA:   6    -0.663175493313E+03   -0.77532E-02   -0.77531E-02   768   0.179E-01 0.152E-04
CGA:   7    -0.663178682194E+03   -0.31889E-02   -0.31886E-02   768   0.889E-02-0.257E-04
CGA:   8    -0.663180107529E+03   -0.14253E-02   -0.14254E-02   768   0.418E-02-0.174E-05
CGA:   9    -0.663180976909E+03   -0.86938E-03   -0.86959E-03   768   0.176E-02-0.663E-05
CGA:  10    -0.663181363192E+03   -0.38628E-03   -0.38616E-03   768   0.844E-03 0.301E-05
CGA:  11    -0.663181496882E+03   -0.13369E-03   -0.13367E-03   768   0.403E-03-0.599E-06
CGA:  12    -0.663181569284E+03   -0.72402E-04   -0.72406E-04   768   0.133E-03 0.953E-06
  62 F= -.66974361E+03 E0= -.66973517E+03  d E =-.678436E-02  mag=     1.0294
       N       E                     dE             d eps       ncg     rms          ort
SDA:   1    -0.662855483305E+03    0.32601E+00    0.00000E+00   768   0.912E+00 0.000E+00
CGA:   2    -0.663074477845E+03   -0.21899E+00   -0.21900E+00   768   0.440E+00-0.821E-04
CGA:   3    -0.663143195226E+03   -0.68717E-01   -0.68734E-01   768   0.182E+00 0.128E-03
CGA:   4    -0.663171219626E+03   -0.28024E-01   -0.28019E-01   768   0.524E-01-0.395E-04
CGA:   5    -0.663179928257E+03   -0.87086E-02   -0.87096E-02   768   0.151E-01 0.168E-04
CGA:   6    -0.663182712727E+03   -0.27845E-02   -0.27845E-02   768   0.728E-02-0.193E-04
CGA:   7    -0.663183970673E+03   -0.12579E-02   -0.12580E-02   768   0.375E-02-0.257E-05
CGA:   8    -0.663184593225E+03   -0.62255E-03   -0.62239E-03   768   0.165E-02-0.642E-05
CGA:   9    -0.663184950018E+03   -0.35679E-03   -0.35674E-03   768   0.681E-03 0.105E-05
CGA:  10    -0.663185089266E+03   -0.13925E-03   -0.13926E-03   768   0.340E-03-0.653E-06
CGA:  11    -0.663185140097E+03   -0.50831E-04   -0.50857E-04   768   0.138E-03 0.711E-06
  63 F= -.66974779E+03 E0= -.66973933E+03  d E =-.418356E-02  mag=     1.0279
       N       E                     dE             d eps       ncg     rms          ort
SDA:   1    -0.662609672922E+03    0.57542E+00    0.00000E+00   768   0.160E+01 0.000E+00
CGA:   2    -0.662992611433E+03   -0.38294E+00   -0.38296E+00   768   0.772E+00-0.267E-03
CGA:   3    -0.663112729184E+03   -0.12012E+00   -0.12016E+00   768   0.319E+00 0.426E-03
CGA:   4    -0.663161800744E+03   -0.49072E-01   -0.49057E-01   768   0.929E-01-0.104E-03
CGA:   5    -0.663177062808E+03   -0.15262E-01   -0.15265E-01   768   0.270E-01 0.452E-04
CGA:   6    -0.663181994862E+03   -0.49321E-02   -0.49320E-02   768   0.131E-01-0.420E-04
CGA:   7    -0.663184220653E+03   -0.22258E-02   -0.22259E-02   768   0.664E-02-0.537E-06
CGA:   8    -0.663185342054E+03   -0.11214E-02   -0.11212E-02   768   0.286E-02-0.113E-04
CGA:   9    -0.663185966568E+03   -0.62451E-03   -0.62437E-03   768   0.122E-02 0.268E-05
CGA:  10    -0.663186207816E+03   -0.24125E-03   -0.24127E-03   768   0.618E-03-0.120E-05
CGA:  11    -0.663186300354E+03   -0.92539E-04   -0.92575E-04   768   0.238E-03 0.101E-05
  64 F= -.66974975E+03 E0= -.66974126E+03  d E =-.613539E-02  mag=     1.0260
       N       E                     dE             d eps       ncg     rms          ort
SDA:   1    -0.662739894260E+03    0.44631E+00    0.00000E+00   768   0.126E+01 0.000E+00
CGA:   2    -0.663032967295E+03   -0.29307E+00   -0.29309E+00   768   0.634E+00-0.259E-03
CGA:   3    -0.663128878533E+03   -0.95911E-01   -0.95986E-01   768   0.262E+00 0.688E-03
CGA:   4    -0.663169296557E+03   -0.40418E-01   -0.40402E-01   768   0.781E-01-0.978E-04
CGA:   5    -0.663181979264E+03   -0.12683E-01   -0.12686E-01   768   0.240E-01 0.586E-04
CGA:   6    -0.663186105982E+03   -0.41267E-02   -0.41261E-02   768   0.120E-01-0.349E-04
CGA:   7    -0.663188147554E+03   -0.20416E-02   -0.20417E-02   768   0.573E-02 0.961E-07
CGA:   8    -0.663189201332E+03   -0.10538E-02   -0.10538E-02   768   0.246E-02-0.106E-04
CGA:   9    -0.663189728379E+03   -0.52705E-03   -0.52690E-03   768   0.116E-02 0.325E-05
CGA:  10    -0.663189927767E+03   -0.19939E-03   -0.19937E-03   768   0.556E-03-0.842E-06
CGA:  11    -0.663190018709E+03   -0.90942E-04   -0.90965E-04   768   0.190E-03 0.114E-05
  65 F= -.66975389E+03 E0= -.66974546E+03  d E =-.414527E-02  mag=     1.0250
       N       E                     dE             d eps       ncg     rms          ort
SDA:   1    -0.662594745361E+03    0.59518E+00    0.00000E+00   768   0.167E+01 0.000E+00
CGA:   2    -0.662983109886E+03   -0.38836E+00   -0.38840E+00   768   0.839E+00-0.383E-03
CGA:   3    -0.663110251328E+03   -0.12714E+00   -0.12725E+00   768   0.345E+00 0.109E-02
CGA:   4    -0.663163734692E+03   -0.53483E-01   -0.53460E-01   768   0.104E+00-0.165E-03
[...]
CGA:   9    -0.663201730873E+03   -0.10027E-02   -0.10026E-02   768   0.265E-02 0.807E-05
CGA:  10    -0.663202220430E+03   -0.48956E-03   -0.48956E-03   768   0.123E-02-0.851E-06
CGA:  11    -0.663202445721E+03   -0.22529E-03   -0.22528E-03   768   0.560E-03 0.214E-05
CGA:  12    -0.663202545043E+03   -0.99322E-04   -0.99319E-04   768   0.231E-03-0.105E-05
  70 F= -.66976858E+03 E0= -.66976034E+03  d E =-.778542E-02  mag=     1.0292
       N       E                     dE             d eps       ncg     rms          ort
SDA:   1    -0.663030918015E+03    0.17153E+00    0.00000E+00   768   0.464E+00 0.000E+00
CGA:   2    -0.663154088805E+03   -0.12317E+00   -0.12318E+00   768   0.200E+00-0.442E-04
CGA:   3    -0.663184140782E+03   -0.30052E-01   -0.30071E-01   768   0.923E-01 0.188E-03
CGA:   4    -0.663196895163E+03   -0.12754E-01   -0.12752E-01   768   0.240E-01 0.265E-04
CGA:   5    -0.663200641763E+03   -0.37466E-02   -0.37469E-02   768   0.651E-02 0.504E-05
CGA:   6    -0.663201716752E+03   -0.10750E-02   -0.10749E-02   768   0.292E-02-0.681E-05
CGA:   7    -0.663202218464E+03   -0.50171E-03   -0.50169E-03   768   0.117E-02-0.323E-05
CGA:   8    -0.663202424842E+03   -0.20638E-03   -0.20638E-03   768   0.585E-03-0.150E-05
CGA:   9    -0.663202541560E+03   -0.11672E-03   -0.11669E-03   768   0.299E-03 0.125E-05
CGA:  10    -0.663202597549E+03   -0.55989E-04   -0.55990E-04   768   0.150E-03-0.113E-06
  71 F= -.66976887E+03 E0= -.66976065E+03  d E =-.807096E-02  mag=     1.0305
       N       E                     dE             d eps       ncg     rms          ort
SDA:   1    -0.662747687013E+03    0.45485E+00    0.00000E+00   768   0.122E+01 0.000E+00
CGA:   2    -0.663091066901E+03   -0.34338E+00   -0.34344E+00   768   0.441E+00-0.458E-03
CGA:   3    -0.663168015329E+03   -0.76948E-01   -0.76960E-01   768   0.213E+00 0.583E-03
CGA:   4    -0.663194124199E+03   -0.26109E-01   -0.26116E-01   768   0.549E-01 0.831E-04
CGA:   5    -0.663202724794E+03   -0.86006E-02   -0.86001E-02   768   0.130E-01 0.600E-07
CGA:   6    -0.663205073071E+03   -0.23483E-02   -0.23483E-02   768   0.568E-02-0.104E-04
CGA:   7    -0.663205991654E+03   -0.91858E-03   -0.91851E-03   768   0.210E-02-0.339E-05
CGA:   8    -0.663206338877E+03   -0.34722E-03   -0.34721E-03   768   0.104E-02-0.873E-06
CGA:   9    -0.663206552061E+03   -0.21318E-03   -0.21313E-03   768   0.483E-03 0.220E-05
CGA:  10    -0.663206650228E+03   -0.98167E-04   -0.98167E-04   768   0.288E-03-0.136E-07
  72 F= -.66977353E+03 E0= -.66976533E+03  d E =-.466366E-02  mag=     1.0301
       N       E                     dE             d eps       ncg     rms          ort
SDA:   1    -0.659067290290E+03    0.41393E+01    0.00000E+00   768   0.111E+02 0.000E+00
CGA:   2    -0.662162554605E+03   -0.30953E+01   -0.30973E+01   768   0.407E+01-0.137E-01
CGA:   3    -0.662859741904E+03   -0.69719E+00   -0.69772E+00   768   0.188E+01 0.191E-01
CGA:   4    -0.663094193765E+03   -0.23445E+00   -0.23467E+00   768   0.514E+00 0.251E-02
CGA:   5    -0.663174715387E+03   -0.80522E-01   -0.80509E-01   768   0.119E+00 0.718E-04
CGA:   6    -0.663196210850E+03   -0.21495E-01   -0.21496E-01   768   0.535E-01-0.122E-03
CGA:   7    -0.663204851201E+03   -0.86404E-02   -0.86402E-02   768   0.191E-01 0.621E-06
CGA:   8    -0.663208043145E+03   -0.31919E-02   -0.31920E-02   768   0.958E-02 0.135E-05
CGA:   9    -0.663209975391E+03   -0.19322E-02   -0.19319E-02   768   0.440E-02 0.149E-04
CGA:  10    -0.663210860237E+03   -0.88485E-03   -0.88479E-03   768   0.257E-02 0.165E-05
CGA:  11    -0.663211305131E+03   -0.44489E-03   -0.44492E-03   768   0.117E-02 0.339E-05
CGA:  12    -0.663211531333E+03   -0.22620E-03   -0.22622E-03   768   0.476E-03-0.142E-05
CGA:  13    -0.663211617298E+03   -0.85966E-04   -0.85966E-04   768   0.238E-03 0.899E-06
  73 F= -.66978022E+03 E0= -.66977205E+03  d E =-.113562E-01  mag=     1.0288
       N       E                     dE             d eps       ncg     rms          ort
SDA:   1    -0.662678531797E+03    0.53300E+00    0.00000E+00   768   0.144E+01 0.000E+00
CGA:   2    -0.663078324063E+03   -0.39979E+00   -0.39982E+00   768   0.537E+00-0.106E-03
CGA:   3    -0.663169933657E+03   -0.91610E-01   -0.91641E-01   768   0.249E+00 0.950E-03
CGA:   4    -0.663201969778E+03   -0.32036E-01   -0.32019E-01   768   0.654E-01 0.927E-04
CGA:   5    -0.663212005493E+03   -0.10036E-01   -0.10036E-01   768   0.170E-01 0.832E-05
CGA:   6    -0.663214773897E+03   -0.27684E-02   -0.27681E-02   768   0.724E-02-0.114E-04
CGA:   7    -0.663216000328E+03   -0.12264E-02   -0.12264E-02   768   0.257E-02-0.326E-05
CGA:   8    -0.663216448689E+03   -0.44836E-03   -0.44836E-03   768   0.132E-02-0.993E-06
CGA:   9    -0.663216706254E+03   -0.25756E-03   -0.25753E-03   768   0.664E-03 0.247E-05
CGA:  10    -0.663216835122E+03   -0.12887E-03   -0.12887E-03   768   0.347E-03-0.157E-06
CGA:  11    -0.663216899699E+03   -0.64577E-04   -0.64573E-04   768   0.170E-03 0.716E-06
  74 F= -.66978598E+03 E0= -.66977779E+03  d E =-.575699E-02  mag=     1.0285
       N       E                     dE             d eps       ncg     rms          ort
SDA:   1    -0.661340953750E+03    0.18759E+01    0.00000E+00   768   0.504E+01 0.000E+00
CGA:   2    -0.662735098083E+03   -0.13941E+01   -0.13944E+01   768   0.190E+01-0.119E-02
CGA:   3    -0.663053931712E+03   -0.31883E+00   -0.31909E+00   768   0.876E+00 0.647E-02
CGA:   4    -0.663167077801E+03   -0.11315E+00   -0.11309E+00   768   0.235E+00 0.654E-03
CGA:   5    -0.663202895804E+03   -0.35818E-01   -0.35819E-01   768   0.592E-01 0.868E-04
CGA:   6    -0.663212949023E+03   -0.10053E-01   -0.10052E-01   768   0.254E-01-0.479E-04
CGA:   7    -0.663217198494E+03   -0.42495E-02   -0.42494E-02   768   0.921E-02-0.215E-05
CGA:   8    -0.663218778556E+03   -0.15801E-02   -0.15800E-02   768   0.462E-02-0.232E-05
CGA:   9    -0.663219686379E+03   -0.90782E-03   -0.90770E-03   768   0.226E-02 0.707E-05
CGA:  10    -0.663220131276E+03   -0.44490E-03   -0.44490E-03   768   0.119E-02-0.230E-07
CGA:  11    -0.663220347185E+03   -0.21591E-03   -0.21591E-03   768   0.574E-03 0.177E-05
CGA:  12    -0.663220452970E+03   -0.10579E-03   -0.10579E-03   768   0.234E-03-0.119E-05
CGA:  13    -0.663220495713E+03   -0.42743E-04   -0.42741E-04   768   0.110E-03 0.712E-06
  75 F= -.66979044E+03 E0= -.66978223E+03  d E =-.102169E-01  mag=     1.0283
       N       E                     dE             d eps       ncg     rms          ort
SDA:   1    -0.662268262084E+03    0.95219E+00    0.00000E+00   768   0.259E+01 0.000E+00
CGA:   2    -0.662964624450E+03   -0.69636E+00   -0.69665E+00   768   0.105E+01-0.248E-02
CGA:   3    -0.663132906949E+03   -0.16828E+00   -0.16843E+00   768   0.473E+00 0.250E-02
CGA:   4    -0.663196974453E+03   -0.64068E-01   -0.64022E-01   768   0.126E+00 0.183E-03
CGA:   5    -0.663216145323E+03   -0.19171E-01   -0.19173E-01   768   0.346E-01 0.577E-04
CGA:   6    -0.663221707280E+03   -0.55620E-02   -0.55611E-02   768   0.144E-01-0.238E-04
CGA:   7    -0.663224209223E+03   -0.25019E-02   -0.25019E-02   768   0.546E-02-0.168E-05
CGA:   8    -0.663225168962E+03   -0.95974E-03   -0.95973E-03   768   0.269E-02-0.276E-05
CGA:   9    -0.663225695854E+03   -0.52689E-03   -0.52681E-03   768   0.140E-02 0.473E-05
CGA:  10    -0.663225959483E+03   -0.26363E-03   -0.26363E-03   768   0.680E-03-0.110E-06
CGA:  11    -0.663226087286E+03   -0.12780E-03   -0.12779E-03   768   0.324E-03 0.127E-05
CGA:  12    -0.663226145373E+03   -0.58087E-04   -0.58086E-04   768   0.138E-03-0.933E-06
  76 F= -.66979663E+03 E0= -.66978844E+03  d E =-.619338E-02  mag=     1.0280
       N       E                     dE             d eps       ncg     rms          ort
SDA:   1    -0.662116416089E+03    0.11097E+01    0.00000E+00   768   0.301E+01 0.000E+00
CGA:   2    -0.662923125373E+03   -0.80671E+00   -0.80710E+00   768   0.123E+01-0.339E-02
CGA:   3    -0.663117174623E+03   -0.19405E+00   -0.19426E+00   768   0.564E+00 0.303E-02
CGA:   4    -0.663193200584E+03   -0.76026E-01   -0.75988E-01   768   0.148E+00 0.295E-03
CGA:   5    -0.663215982747E+03   -0.22782E-01   -0.22785E-01   768   0.400E-01 0.742E-04
CGA:   6    -0.663222534665E+03   -0.65519E-02   -0.65511E-02   768   0.167E-01-0.316E-04
CGA:   7    -0.663225429384E+03   -0.28947E-02   -0.28947E-02   768   0.646E-02-0.153E-05
CGA:   8    -0.663226541719E+03   -0.11123E-02   -0.11123E-02   768   0.316E-02-0.310E-05
CGA:   9    -0.663227165138E+03   -0.62342E-03   -0.62331E-03   768   0.160E-02 0.555E-05
CGA:  10    -0.663227473221E+03   -0.30808E-03   -0.30809E-03   768   0.805E-03-0.145E-06
CGA:  11    -0.663227620269E+03   -0.14705E-03   -0.14704E-03   768   0.382E-03 0.142E-05
CGA:  12    -0.663227689980E+03   -0.69711E-04   -0.69713E-04   768   0.159E-03-0.103E-05
  77 F= -.66979875E+03 E0= -.66979056E+03  d E =-.830577E-02  mag=     1.0277
       N       E                     dE             d eps       ncg     rms          ort
SDA:   1    -0.662277884399E+03    0.94974E+00    0.00000E+00   768   0.260E+01 0.000E+00
CGA:   2    -0.662962297613E+03   -0.68441E+00   -0.68437E+00   768   0.112E+01 0.777E-03
CGA:   3    -0.663130207707E+03   -0.16791E+00   -0.16816E+00   768   0.507E+00 0.234E-02
CGA:   4    -0.663200544488E+03   -0.70337E-01   -0.70318E-01   768   0.132E+00 0.208E-03
CGA:   5    -0.663220748333E+03   -0.20204E-01   -0.20207E-01   768   0.360E-01 0.604E-04
CGA:   6    -0.663226697422E+03   -0.59491E-02   -0.59483E-02   768   0.147E-01-0.343E-04
CGA:   7    -0.663229248859E+03   -0.25514E-02   -0.25514E-02   768   0.599E-02-0.392E-05
CGA:   8    -0.663230272971E+03   -0.10241E-02   -0.10241E-02   768   0.288E-02-0.549E-05
CGA:   9    -0.663230845279E+03   -0.57231E-03   -0.57221E-03   768   0.145E-02 0.432E-05
CGA:  10    -0.663231128591E+03   -0.28331E-03   -0.28332E-03   768   0.738E-03-0.387E-06
CGA:  11    -0.663231258252E+03   -0.12966E-03   -0.12967E-03   768   0.335E-03 0.139E-05
CGA:  12    -0.663231320705E+03   -0.62453E-04   -0.62459E-04   768   0.138E-03-0.968E-06
  78 F= -.66980283E+03 E0= -.66979467E+03  d E =-.408735E-02  mag=     1.0297
       N       E                     dE             d eps       ncg     rms          ort
SDA:   1    -0.663198250513E+03    0.33008E-01    0.00000E+00   768   0.902E-01 0.000E+00
CGA:   2    -0.663221911985E+03   -0.23661E-01   -0.23662E-01   768   0.405E-01 0.205E-06
CGA:   3    -0.663227713338E+03   -0.58014E-02   -0.58028E-02   768   0.184E-01 0.699E-05
CGA:   4    -0.663230284647E+03   -0.25713E-02   -0.25716E-02   768   0.460E-02 0.892E-05
CGA:   5    -0.663231013262E+03   -0.72861E-03   -0.72862E-03   768   0.118E-02-0.321E-06
CGA:   6    -0.663231213525E+03   -0.20026E-03   -0.20024E-03   768   0.524E-03-0.203E-05
CGA:   7    -0.663231301381E+03   -0.87856E-04   -0.87841E-04   768   0.217E-03-0.147E-05
  79 F= -.66980290E+03 E0= -.66979475E+03  d E =-.415226E-02  mag=     1.0303
       N       E                     dE             d eps       ncg     rms          ort
SDA:   1    -0.662859287651E+03    0.37193E+00    0.00000E+00   768   0.101E+01 0.000E+00
CGA:   2    -0.663141466704E+03   -0.28218E+00   -0.28220E+00   768   0.343E+00-0.188E-03
CGA:   3    -0.663207434998E+03   -0.65968E-01   -0.65962E-01   768   0.141E+00 0.351E-03
CGA:   4    -0.663225290590E+03   -0.17856E-01   -0.17855E-01   768   0.433E-01 0.330E-04
CGA:   5    -0.663231415330E+03   -0.61247E-02   -0.61236E-02   768   0.101E-01-0.816E-06
CGA:   6    -0.663233235191E+03   -0.18199E-02   -0.18199E-02   768   0.404E-02-0.428E-05
CGA:   7    -0.663233899234E+03   -0.66404E-03   -0.66399E-03   768   0.142E-02-0.350E-05
CGA:   8    -0.663234144196E+03   -0.24496E-03   -0.24496E-03   768   0.758E-03-0.132E-05
CGA:   9    -0.663234285308E+03   -0.14111E-03   -0.14110E-03   768   0.349E-03 0.170E-05
CGA:  10    -0.663234361224E+03   -0.75916E-04   -0.75903E-04   768   0.195E-03 0.322E-06
  80 F= -.66980646E+03 E0= -.66979832E+03  d E =-.356511E-02  mag=     1.0309
       N       E                     dE             d eps       ncg     rms          ort
SDA:   1    -0.662843712873E+03    0.39057E+00    0.00000E+00   768   0.105E+01 0.000E+00
CGA:   2    -0.663137754306E+03   -0.29404E+00   -0.29407E+00   768   0.368E+00-0.240E-03
CGA:   3    -0.663204724938E+03   -0.66971E-01   -0.66972E-01   768   0.171E+00 0.274E-03
CGA:   4    -0.663225414198E+03   -0.20689E-01   -0.20703E-01   768   0.451E-01 0.328E-04
CGA:   5    -0.663232260927E+03   -0.68467E-02   -0.68461E-02   768   0.106E-01-0.730E-06
CGA:   6    -0.663234196315E+03   -0.19354E-02   -0.19354E-02   768   0.416E-02-0.444E-05
CGA:   7    -0.663234885370E+03   -0.68906E-03   -0.68900E-03   768   0.158E-02-0.365E-05
CGA:   8    -0.663235138268E+03   -0.25290E-03   -0.25287E-03   768   0.765E-03-0.142E-05
CGA:   9    -0.663235293423E+03   -0.15516E-03   -0.15511E-03   768   0.349E-03 0.182E-05
CGA:  10    -0.663235369299E+03   -0.75875E-04   -0.75865E-04   768   0.216E-03 0.266E-06
  81 F= -.66980798E+03 E0= -.66979985E+03  d E =-.507860E-02  mag=     1.0316
       N       E                     dE             d eps       ncg     rms          ort
SDA:   1    -0.663091197418E+03    0.14410E+00    0.00000E+00   768   0.390E+00 0.000E+00
CGA:   2    -0.663202279238E+03   -0.11108E+00   -0.11108E+00   768   0.128E+00 0.188E-05
CGA:   3    -0.663228936573E+03   -0.26657E-01   -0.26656E-01   768   0.425E-01 0.357E-04
CGA:   4    -0.663235431944E+03   -0.64954E-02   -0.64944E-02   768   0.116E-01-0.319E-05
CGA:   5    -0.663237145985E+03   -0.17140E-02   -0.17143E-02   768   0.349E-02 0.302E-05
CGA:   6    -0.663237731170E+03   -0.58518E-03   -0.58518E-03   768   0.154E-02-0.285E-06
CGA:   7    -0.663237954612E+03   -0.22344E-03   -0.22341E-03   768   0.530E-03-0.749E-06
CGA:   8    -0.663238059216E+03   -0.10460E-03   -0.10461E-03   768   0.247E-03-0.413E-06
CGA:   9    -0.663238112780E+03   -0.53564E-04   -0.53527E-04   768   0.139E-03 0.106E-05
  82 F= -.66981106E+03 E0= -.66980292E+03  d E =-.308446E-02  mag=     1.0315
       N       E                     dE             d eps       ncg     rms          ort
SDA:   1    -0.663095237234E+03    0.14282E+00    0.00000E+00   768   0.381E+00 0.000E+00
CGA:   2    -0.663203681623E+03   -0.10844E+00   -0.10844E+00   768   0.126E+00 0.940E-05
CGA:   3    -0.663229645751E+03   -0.25964E-01   -0.25964E-01   768   0.443E-01-0.503E-05
CGA:   4    -0.663235948356E+03   -0.63026E-02   -0.63042E-02   768   0.133E-01 0.222E-05
CGA:   5    -0.663237804257E+03   -0.18559E-02   -0.18560E-02   768   0.393E-02 0.355E-05
CGA:   6    -0.663238430026E+03   -0.62577E-03   -0.62575E-03   768   0.161E-02-0.264E-06
CGA:   7    -0.663238696390E+03   -0.26636E-03   -0.26634E-03   768   0.504E-03-0.135E-05
CGA:   8    -0.663238799141E+03   -0.10275E-03   -0.10274E-03   768   0.280E-03 0.461E-06
CGA:   9    -0.663238849484E+03   -0.50343E-04   -0.50344E-04   768   0.157E-03 0.167E-06
  83 F= -.66981213E+03 E0= -.66980397E+03  d E =-.414763E-02  mag=     1.0314
       N       E                     dE             d eps       ncg     rms          ort
SDA:   1    -0.663114406501E+03    0.12439E+00    0.00000E+00   768   0.328E+00 0.000E+00
CGA:   2    -0.663210686983E+03   -0.96280E-01   -0.96250E-01   768   0.104E+00 0.244E-03
CGA:   3    -0.663233436700E+03   -0.22750E-01   -0.22750E-01   768   0.298E-01-0.146E-04
CGA:   4    -0.663238406205E+03   -0.49695E-02   -0.49692E-02   768   0.921E-02-0.156E-05
CGA:   5    -0.663239606793E+03   -0.12006E-02   -0.12006E-02   768   0.300E-02-0.230E-05
CGA:   6    -0.663240126431E+03   -0.51964E-03   -0.51963E-03   768   0.116E-02-0.829E-06
CGA:   7    -0.663240298758E+03   -0.17233E-03   -0.17233E-03   768   0.415E-03 0.641E-07
CGA:   8    -0.663240387911E+03   -0.89152E-04   -0.89147E-04   768   0.209E-03 0.170E-06
  84 F= -.66981392E+03 E0= -.66980579E+03  d E =-.179749E-02  mag=     1.0315
       N       E                     dE             d eps       ncg     rms          ort
SDA:   1    -0.663226789387E+03    0.13509E-01    0.00000E+00   768   0.358E-01 0.000E+00
CGA:   2    -0.663237149221E+03   -0.10360E-01   -0.10359E-01   768   0.123E-01 0.990E-05
CGA:   3    -0.663239473604E+03   -0.23244E-02   -0.23244E-02   768   0.568E-02-0.366E-05
CGA:   4    -0.663240130701E+03   -0.65710E-03   -0.65730E-03   768   0.149E-02 0.242E-05
CGA:   5    -0.663240384161E+03   -0.25346E-03   -0.25346E-03   768   0.392E-03-0.211E-06
CGA:   6    -0.663240453009E+03   -0.68848E-04   -0.68844E-04   768   0.187E-03-0.344E-06
  85 F= -.66981407E+03 E0= -.66980594E+03  d E =-.194660E-02  mag=     1.0315
       N       E                     dE             d eps       ncg     rms          ort
SDA:   1    -0.663178969549E+03    0.61415E-01    0.00000E+00   768   0.163E+00 0.000E+00
CGA:   2    -0.663226793043E+03   -0.47823E-01   -0.47830E-01   768   0.528E-01-0.524E-04
CGA:   3    -0.663237932377E+03   -0.11139E-01   -0.11139E-01   768   0.157E-01 0.124E-04
CGA:   4    -0.663240557824E+03   -0.26254E-02   -0.26255E-02   768   0.486E-02 0.123E-05
CGA:   5    -0.663241193886E+03   -0.63606E-03   -0.63615E-03   768   0.153E-02 0.277E-05
CGA:   6    -0.663241460553E+03   -0.26667E-03   -0.26667E-03   768   0.627E-03 0.680E-06
CGA:   7    -0.663241553716E+03   -0.93164E-04   -0.93166E-04   768   0.217E-03 0.624E-07
  86 F= -.66981536E+03 E0= -.66980724E+03  d E =-.128670E-02  mag=     1.0310
       N       E                     dE             d eps       ncg     rms          ort
SDA:   1    -0.663180741894E+03    0.60719E-01    0.00000E+00   768   0.159E+00 0.000E+00
CGA:   2    -0.663227344276E+03   -0.46602E-01   -0.46609E-01   768   0.517E-01-0.558E-04
CGA:   3    -0.663238407714E+03   -0.11063E-01   -0.11063E-01   768   0.143E-01 0.136E-04
CGA:   4    -0.663240874353E+03   -0.24666E-02   -0.24667E-02   768   0.476E-02 0.173E-05
CGA:   5    -0.663241480039E+03   -0.60569E-03   -0.60570E-03   768   0.139E-02 0.247E-05
CGA:   6    -0.663241764234E+03   -0.28419E-03   -0.28418E-03   768   0.476E-03 0.735E-06
CGA:   7    -0.663241833757E+03   -0.69523E-04   -0.69529E-04   768   0.258E-03 0.124E-06
  87 F= -.66981582E+03 E0= -.66980772E+03  d E =-.174802E-02  mag=     1.0304
       N       E                     dE             d eps       ncg     rms          ort
SDA:   1    -0.663198150065E+03    0.43614E-01    0.00000E+00   768   0.117E+00 0.000E+00
CGA:   2    -0.663232638340E+03   -0.34488E-01   -0.34488E-01   768   0.382E-01 0.591E-05
CGA:   3    -0.663240277764E+03   -0.76394E-02   -0.76394E-02   768   0.145E-01 0.299E-05
CGA:   4    -0.663242085085E+03   -0.18073E-02   -0.18081E-02   768   0.516E-02 0.483E-05
CGA:   5    -0.663242830762E+03   -0.74568E-03   -0.74556E-03   768   0.104E-02-0.104E-05
CGA:   6    -0.663243054873E+03   -0.22411E-03   -0.22414E-03   768   0.423E-03-0.887E-06
CGA:   7    -0.663243119993E+03   -0.65120E-04   -0.65118E-04   768   0.181E-03-0.557E-07
  88 F= -.66981717E+03 E0= -.66980907E+03  d E =-.134791E-02  mag=     1.0312
       N       E                     dE             d eps       ncg     rms          ort
SDA:   1    -0.662970708560E+03    0.27235E+00    0.00000E+00   768   0.710E+00 0.000E+00
CGA:   2    -0.663181009137E+03   -0.21030E+00   -0.21029E+00   768   0.224E+00 0.984E-04
CGA:   3    -0.663228939525E+03   -0.47930E-01   -0.47925E-01   768   0.641E-01 0.136E-03
CGA:   4    -0.663239683306E+03   -0.10744E-01   -0.10743E-01   768   0.226E-01 0.240E-05
CGA:   5    -0.663242295997E+03   -0.26127E-02   -0.26112E-02   768   0.645E-02 0.731E-06
CGA:   6    -0.663243572173E+03   -0.12762E-02   -0.12762E-02   768   0.198E-02-0.125E-05
CGA:   7    -0.663243904784E+03   -0.33261E-03   -0.33262E-03   768   0.894E-03 0.531E-06
CGA:   8    -0.663244084012E+03   -0.17923E-03   -0.17921E-03   768   0.457E-03 0.137E-05
CGA:   9    -0.663244161177E+03   -0.77165E-04   -0.77196E-04   768   0.267E-03 0.166E-05
  89 F= -.66981835E+03 E0= -.66981026E+03  d E =-.253120E-02  mag=     1.0333
