       N       E                     dE             d eps       ncg     rms          rms(c)
DAV:   1     0.294921457120E+04    0.29492E+04   -0.12060E+05  4120   0.129E+03
DAV:   2    -0.153129557306E+02   -0.29645E+04   -0.28641E+04  4376   0.365E+02
DAV:   3    -0.415361168099E+03   -0.40005E+03   -0.39546E+03  3984   0.153E+02
DAV:   4    -0.429017251921E+03   -0.13656E+02   -0.13306E+02  4224   0.386E+01
DAV:   5    -0.429428417876E+03   -0.41117E+00   -0.40632E+00  4320   0.525E+00    0.661E+01
DAV:   6    -0.358911085204E+03    0.70517E+02   -0.68133E+01  4728   0.343E+01    0.459E+01
DAV:   7    -0.327011107411E+03    0.31900E+02   -0.13409E+02  4272   0.377E+01    0.236E+01
DAV:   8    -0.325930089369E+03    0.10810E+01   -0.15913E+01  4376   0.164E+01    0.165E+01
DAV:   9    -0.326060420208E+03   -0.13033E+00   -0.84878E+00  5224   0.201E+01    0.581E+00
DAV:  10    -0.325478384065E+03    0.58204E+00   -0.65407E+00  5400   0.174E+01    0.285E+00
DAV:  11    -0.325387666466E+03    0.90718E-01   -0.64589E-01  3928   0.318E+00    0.156E+00
DAV:  12    -0.325360580757E+03    0.27086E-01   -0.17721E-01  4672   0.163E+00    0.701E-01
DAV:  13    -0.325357967497E+03    0.26133E-02   -0.45942E-02  4336   0.827E-01    0.388E-01
DAV:  14    -0.325357784937E+03    0.18256E-03   -0.86594E-03  3864   0.337E-01    0.315E-01
DAV:  15    -0.325357735559E+03    0.49379E-04   -0.27604E-03  5304   0.301E-01    0.158E-01
DAV:  16    -0.325357668905E+03    0.66654E-04   -0.84104E-04  3424   0.176E-01
   1 F= -.33028029E+03 E0= -.33028029E+03  d E =0.000000E+00  mag=     0.0000
