       N       E                     dE             d eps       ncg     rms          rms(c)
DAV:   1     0.268215711081E+04    0.26822E+04   -0.10526E+05  3920   0.117E+03
DAV:   2     0.198435210575E+02   -0.26623E+04   -0.25619E+04  4776   0.300E+02
DAV:   3    -0.504380596132E+03   -0.52422E+03   -0.52031E+03  4088   0.149E+02
DAV:   4    -0.525571320062E+03   -0.21191E+02   -0.20704E+02  4320   0.417E+01
DAV:   5    -0.526458507330E+03   -0.88719E+00   -0.87779E+00  5000   0.680E+00    0.414E+01
DAV:   6    -0.500032704232E+03    0.26426E+02   -0.54882E+01  4344   0.254E+01    0.258E+01
DAV:   7    -0.494834762028E+03    0.51979E+01   -0.43821E+01  4128   0.176E+01    0.165E+01
DAV:   8    -0.493011652351E+03    0.18231E+01   -0.16489E+01  3992   0.123E+01    0.114E+01
DAV:   9    -0.493279122172E+03   -0.26747E+00   -0.17446E+01  4784   0.981E+00    0.654E+00
DAV:  10    -0.492488952580E+03    0.79017E+00   -0.66091E+00  4336   0.821E+00    0.335E+00
DAV:  11    -0.492460492685E+03    0.28460E-01   -0.33033E+00  4504   0.415E+00    0.248E+00
DAV:  12    -0.492351697792E+03    0.10879E+00   -0.18991E+00  4728   0.298E+00    0.144E+00
DAV:  13    -0.492308388417E+03    0.43309E-01   -0.26551E-01  4000   0.144E+00    0.715E-01
DAV:  14    -0.492304491051E+03    0.38974E-02   -0.92844E-02  4048   0.723E-01    0.369E-01
DAV:  15    -0.492305496745E+03   -0.10057E-02   -0.53448E-02  4000   0.490E-01    0.361E-01
DAV:  16    -0.492304408021E+03    0.10887E-02   -0.46191E-02  4304   0.392E-01    0.255E-01
DAV:  17    -0.492303726768E+03    0.68125E-03   -0.11615E-02  4024   0.203E-01    0.108E-01
DAV:  18    -0.492303943923E+03   -0.21715E-03   -0.24415E-03  3776   0.101E-01    0.102E-01
DAV:  19    -0.492303802023E+03    0.14190E-03   -0.18050E-03  2696   0.786E-02    0.316E-02
DAV:  20    -0.492303844132E+03   -0.42110E-04   -0.27429E-04  2224   0.395E-02
   1 F= -.49646722E+03 E0= -.49646722E+03  d E =0.000000E+00  mag=    -0.0000
