 vasp.5.4.4.18Apr17-6-g9f103f2a35 (build Nov  8 2022 18:58:45) complex           
 executed on             LinuxGNU date 2023.04.13  15:54:37
 running on   48 total cores
 distrk:  each k-point on   48 cores,    1 groups
 distr:  one band on NCORES_PER_BAND=  12 cores,    4 groups


--------------------------------------------------------------------------------------------------------


 INCAR:
 POTCAR:    PAW_PBE C 08Apr2002                   
 POTCAR:    PAW_PBE N 08Apr2002                   
 POTCAR:    PAW_PBE Ge_d 03Jul2007                
 POTCAR:    PAW_PBE C 08Apr2002                   
 POTCAR:    PAW_PBE O 08Apr2002                   
 POTCAR:    PAW_PBE C 08Apr2002                   
   SHA256 =  253f7b50bb8d59471dbedb8285d89021f4a42ed1a2c5d38a03a736e69125dd95 C/
   COPYR  = (c) Copyright 08Apr2002 Georg Kresse                                
   COPYR  = This file is part of the software VASP. Any use, copying, and all ot
   COPYR  = If you do not have a valid VASP license, you may not use, copy or di
   VRHFIN =C: s2p2                                                              
   LEXCH  = PE                                                                  
   EATOM  =   147.1560 eV,   10.8157 Ry                                         
                                                                                
   TITEL  = PAW_PBE C 08Apr2002                                                 
   LULTRA =        F    use ultrasoft PP ?                                      
   IUNSCR =        1    unscreen: 0-lin 1-nonlin 2-no                           
   RPACOR =    1.200    partial core radius                                     
   POMASS =   12.011; ZVAL   =    4.000    mass and valenz                      
   RCORE  =    1.500    outmost cutoff radius                                   
   RWIGS  =    1.630; RWIGS  =    0.863    wigner-seitz radius (au A)           
   ENMAX  =  400.000; ENMIN  =  300.000 eV                                      
   ICORE  =        2    local potential                                         
   LCOR   =        T    correct aug charges                                     
   LPAW   =        T    paw PP                                                  
   EAUG   =  644.873                                                            
   DEXC   =    0.000                                                            
   RMAX   =    1.529    core radius for proj-oper                               
   RAUG   =    1.300    factor for augmentation sphere                          
   RDEP   =    1.501    radius for radial grids                                 
   RDEPT  =    1.300    core radius for aug-charge                              
                                                                                
   Atomic configuration                                                         
    4 entries                                                                   
     n  l   j            E        occ.                                          
     1  0  0.50      -273.3789   2.0000                                         
     2  0  0.50       -13.7508   2.0000                                         
     2  1  0.50        -5.2854   2.0000                                         
     3  2  1.50        -5.4423   0.0000                                         
   Description                                                                  
     l       E           TYP  RCUT    TYP  RCUT                                 
     0    -13.7508458     23  1.200                                             
     0     -8.2022199     23  1.200                                             
     1     -5.2854383     23  1.500                                             
     1     34.0145650     23  1.500                                             
     2     -5.4423304      7  1.500                                             
  local pseudopotential read in
  partial core-charges read in
  partial kinetic energy density read in
  atomic valenz-charges read in
  non local Contribution for L=           0  read in
    real space projection operators read in
  non local Contribution for L=           0  read in
    real space projection operators read in
  non local Contribution for L=           1  read in
    real space projection operators read in
  non local Contribution for L=           1  read in
    real space projection operators read in
    PAW grid and wavefunctions read in

   number of l-projection  operators is LMAX  =           4
   number of lm-projection operators is LMMAX =           8

 POTCAR:    PAW_PBE N 08Apr2002                   
   SHA256 =  e053789ff3a61a86a1b75d8a110fcc91f86041011e7b0817c7c99e4e8a6349d7 N/
   COPYR  = (c) Copyright 08Apr2002 Georg Kresse                                
   COPYR  = This file is part of the software VASP. Any use, copying, and all ot
   COPYR  = If you do not have a valid VASP license, you may not use, copy or di
   VRHFIN =N: s2p3                                                              
   LEXCH  = PE                                                                  
   EATOM  =   264.5486 eV,   19.4438 Ry                                         
                                                                                
   TITEL  = PAW_PBE N 08Apr2002                                                 
   LULTRA =        F    use ultrasoft PP ?                                      
   IUNSCR =        1    unscreen: 0-lin 1-nonlin 2-no                           
   RPACOR =    1.200    partial core radius                                     
   POMASS =   14.001; ZVAL   =    5.000    mass and valenz                      
   RCORE  =    1.500    outmost cutoff radius                                   
   RWIGS  =    1.400; RWIGS  =    0.741    wigner-seitz radius (au A)           
   ENMAX  =  400.000; ENMIN  =  300.000 eV                                      
   ICORE  =        2    local potential                                         
   LCOR   =        T    correct aug charges                                     
   LPAW   =        T    paw PP                                                  
   EAUG   =  627.112                                                            
   DEXC   =    0.000                                                            
   RMAX   =    1.529    core radius for proj-oper                               
   RAUG   =    1.300    factor for augmentation sphere                          
   RDEP   =    1.514    radius for radial grids                                 
   RDEPT  =    1.338    core radius for aug-charge                              
                                                                                
   Atomic configuration                                                         
    4 entries                                                                   
     n  l   j            E        occ.                                          
     1  0  0.50      -384.7179   2.0000                                         
     2  0  0.50       -18.5828   2.0000                                         
     2  1  0.50        -7.0898   3.0000                                         
     3  2  1.50        -6.8029   0.0000                                         
   Description                                                                  
     l       E           TYP  RCUT    TYP  RCUT                                 
     0    -18.5828119     23  1.200                                             
     0    -13.5018863     23  1.200                                             
     1     -7.0897853     23  1.500                                             
     1      9.5240782     23  1.500                                             
     2     -6.8029130      7  1.500                                             
  local pseudopotential read in
  partial core-charges read in
  partial kinetic energy density read in
  atomic valenz-charges read in
  non local Contribution for L=           0  read in
    real space projection operators read in
  non local Contribution for L=           0  read in
    real space projection operators read in
  non local Contribution for L=           1  read in
    real space projection operators read in
  non local Contribution for L=           1  read in
    real space projection operators read in
    PAW grid and wavefunctions read in

   number of l-projection  operators is LMAX  =           4
   number of lm-projection operators is LMMAX =           8

 POTCAR:    PAW_PBE Ge_d 03Jul2007                
   SHA256 =  944b26c40d2d7c4f4eb1ff3a2e8dbfdd7129146276cd341854bfd5c0e57780ed Ge
   COPYR  = (c) Copyright 03Jul2007 Georg Kresse                                
   COPYR  = This file is part of the software VASP. Any use, copying, and all ot
   COPYR  = If you do not have a valid VASP license, you may not use, copy or di
   VRHFIN =Ge: 3d4s4p                                                           
   LEXCH  = PE                                                                  
   EATOM  =  2596.2402 eV,  190.8183 Ry                                         
                                                                                
   TITEL  = PAW_PBE Ge_d 03Jul2007                                              
   LULTRA =        F    use ultrasoft PP ?                                      
   IUNSCR =        1    unscreen: 0-lin 1-nonlin 2-no                           
   RPACOR =    2.000    partial core radius                                     
   POMASS =   72.610; ZVAL   =   14.000    mass and valenz                      
   RCORE  =    2.300    outmost cutoff radius                                   
   RWIGS  =    2.300; RWIGS  =    1.217    wigner-seitz radius (au A)           
   ENMAX  =  310.294; ENMIN  =  232.720 eV                                      
   ICORE  =        3    local potential                                         
   LCOR   =        T    correct aug charges                                     
   LPAW   =        T    paw PP                                                  
   EAUG   =  531.356                                                            
   DEXC   =    0.000                                                            
   RMAX   =    2.342    core radius for proj-oper                               
   RAUG   =    1.300    factor for augmentation sphere                          
   RDEP   =    2.318    radius for radial grids                                 
   RDEPT  =    1.783    core radius for aug-charge                              
                                                                                
   Atomic configuration                                                         
    9 entries                                                                   
     n  l   j            E        occ.                                          
     1  0  0.50    -10959.8463   2.0000                                         
     2  0  0.50     -1371.6056   2.0000                                         
     2  1  1.50     -1198.4791   6.0000                                         
     3  0  0.50      -168.4733   2.0000                                         
     3  1  1.50      -115.6019   6.0000                                         
     3  2  2.50       -29.3106  10.0000                                         
     4  0  0.50       -11.7309   2.0000                                         
     4  1  0.50        -3.8952   2.0000                                         
     4  3  2.50        -4.0817   0.0000                                         
   Description                                                                  
     l       E           TYP  RCUT    TYP  RCUT                                 
     2    -29.3105938     23  2.200                                             
     2    -13.6058260     23  2.200                                             
     0    -11.7309493     23  2.300                                             
     0     -7.4578696     23  2.300                                             
     1     -3.8952261     23  2.300                                             
     1      6.1178114     23  2.300                                             
     3     -1.3605826     23  2.300                                             
  local pseudopotential read in
  partial core-charges read in
  partial kinetic energy density read in
  atomic valenz-charges read in
  non local Contribution for L=           2  read in
    real space projection operators read in
  non local Contribution for L=           2  read in
    real space projection operators read in
  non local Contribution for L=           0  read in
    real space projection operators read in
  non local Contribution for L=           0  read in
    real space projection operators read in
  non local Contribution for L=           1  read in
    real space projection operators read in
  non local Contribution for L=           1  read in
    real space projection operators read in
    PAW grid and wavefunctions read in

   number of l-projection  operators is LMAX  =           6
   number of lm-projection operators is LMMAX =          18

 POTCAR:    PAW_PBE C 08Apr2002                   
   SHA256 =  253f7b50bb8d59471dbedb8285d89021f4a42ed1a2c5d38a03a736e69125dd95 C/
   COPYR  = (c) Copyright 08Apr2002 Georg Kresse                                
   COPYR  = This file is part of the software VASP. Any use, copying, and all ot
   COPYR  = If you do not have a valid VASP license, you may not use, copy or di
   VRHFIN =C: s2p2                                                              
   LEXCH  = PE                                                                  
   EATOM  =   147.1560 eV,   10.8157 Ry                                         
                                                                                
   TITEL  = PAW_PBE C 08Apr2002                                                 
   LULTRA =        F    use ultrasoft PP ?                                      
   IUNSCR =        1    unscreen: 0-lin 1-nonlin 2-no                           
   RPACOR =    1.200    partial core radius                                     
   POMASS =   12.011; ZVAL   =    4.000    mass and valenz                      
   RCORE  =    1.500    outmost cutoff radius                                   
   RWIGS  =    1.630; RWIGS  =    0.863    wigner-seitz radius (au A)           
   ENMAX  =  400.000; ENMIN  =  300.000 eV                                      
   ICORE  =        2    local potential                                         
   LCOR   =        T    correct aug charges                                     
   LPAW   =        T    paw PP                                                  
   EAUG   =  644.873                                                            
   DEXC   =    0.000                                                            
   RMAX   =    1.529    core radius for proj-oper                               
   RAUG   =    1.300    factor for augmentation sphere                          
   RDEP   =    1.501    radius for radial grids                                 
   RDEPT  =    1.300    core radius for aug-charge                              
                                                                                
   Atomic configuration                                                         
    4 entries                                                                   
     n  l   j            E        occ.                                          
     1  0  0.50      -273.3789   2.0000                                         
     2  0  0.50       -13.7508   2.0000                                         
     2  1  0.50        -5.2854   2.0000                                         
     3  2  1.50        -5.4423   0.0000                                         
   Description                                                                  
     l       E           TYP  RCUT    TYP  RCUT                                 
     0    -13.7508458     23  1.200                                             
     0     -8.2022199     23  1.200                                             
     1     -5.2854383     23  1.500                                             
     1     34.0145650     23  1.500                                             
     2     -5.4423304      7  1.500                                             
  local pseudopotential read in
  partial core-charges read in
  partial kinetic energy density read in
  atomic valenz-charges read in
  non local Contribution for L=           0  read in
    real space projection operators read in
  non local Contribution for L=           0  read in
    real space projection operators read in
  non local Contribution for L=           1  read in
    real space projection operators read in
  non local Contribution for L=           1  read in
    real space projection operators read in
    PAW grid and wavefunctions read in

   number of l-projection  operators is LMAX  =           4
   number of lm-projection operators is LMMAX =           8

 POTCAR:    PAW_PBE O 08Apr2002                   
   SHA256 =  818f92134a0a090dccd8ba1447fa70422a3b330e708bb4f08108d8ae51209ddf O/
   COPYR  = (c) Copyright 08Apr2002 Georg Kresse                                
   COPYR  = This file is part of the software VASP. Any use, copying, and all ot
   COPYR  = If you do not have a valid VASP license, you may not use, copy or di
   VRHFIN =O: s2p4                                                              
   LEXCH  = PE                                                                  
   EATOM  =   432.3788 eV,   31.7789 Ry                                         
                                                                                
   TITEL  = PAW_PBE O 08Apr2002                                                 
   LULTRA =        F    use ultrasoft PP ?                                      
   IUNSCR =        1    unscreen: 0-lin 1-nonlin 2-no                           
   RPACOR =    1.200    partial core radius                                     
   POMASS =   16.000; ZVAL   =    6.000    mass and valenz                      
   RCORE  =    1.520    outmost cutoff radius                                   
   RWIGS  =    1.550; RWIGS  =    0.820    wigner-seitz radius (au A)           
   ENMAX  =  400.000; ENMIN  =  300.000 eV                                      
   ICORE  =        2    local potential                                         
   LCOR   =        T    correct aug charges                                     
   LPAW   =        T    paw PP                                                  
   EAUG   =  605.392                                                            
   DEXC   =    0.000                                                            
   RMAX   =    1.553    core radius for proj-oper                               
   RAUG   =    1.300    factor for augmentation sphere                          
   RDEP   =    1.550    radius for radial grids                                 
   RDEPT  =    1.329    core radius for aug-charge                              
                                                                                
   Atomic configuration                                                         
    4 entries                                                                   
     n  l   j            E        occ.                                          
     1  0  0.50      -514.6923   2.0000                                         
     2  0  0.50       -23.9615   2.0000                                         
     2  1  0.50        -9.0305   4.0000                                         
     3  2  1.50        -9.5241   0.0000                                         
   Description                                                                  
     l       E           TYP  RCUT    TYP  RCUT                                 
     0    -23.9615318     23  1.200                                             
     0     -9.5240782     23  1.200                                             
     1     -9.0304911     23  1.520                                             
     1      8.1634956     23  1.520                                             
     2     -9.5240782      7  1.500                                             
  local pseudopotential read in
  partial core-charges read in
  partial kinetic energy density read in
  kinetic energy density of atom read in
  atomic valenz-charges read in
  non local Contribution for L=           0  read in
    real space projection operators read in
  non local Contribution for L=           0  read in
    real space projection operators read in
  non local Contribution for L=           1  read in
    real space projection operators read in
  non local Contribution for L=           1  read in
    real space projection operators read in
    PAW grid and wavefunctions read in

   number of l-projection  operators is LMAX  =           4
   number of lm-projection operators is LMMAX =           8


 ----------------------------------------------------------------------------- 
|                                                                             |
|  ADVICE TO THIS USER RUNNING 'VASP/VAMP'   (HEAR YOUR MASTER'S VOICE ...):  |
|                                                                             |
|      You have a (more or less) 'large supercell' and for larger cells       |
|      it might be more efficient to use real space projection opertators     |
|      So try LREAL= Auto  in the INCAR   file.                               |
|      Mind:          For very  accurate calculation you might also keep the  |
|      reciprocal projection scheme          (i.e. LREAL=.FALSE.)             |
|                                                                             |
 ----------------------------------------------------------------------------- 

  PAW_PBE C 08Apr2002                   :
 energy of atom  1       EATOM= -147.1560
 kinetic energy error for atom=    0.0132 (will be added to EATOM!!)
  PAW_PBE N 08Apr2002                   :
 energy of atom  2       EATOM= -264.5486
 kinetic energy error for atom=    0.0298 (will be added to EATOM!!)
  PAW_PBE Ge_d 03Jul2007                :
 energy of atom  3       EATOM=-2596.2402
 kinetic energy error for atom=    0.0090 (will be added to EATOM!!)
  PAW_PBE C 08Apr2002                   :
 energy of atom  4       EATOM= -147.1560
 kinetic energy error for atom=    0.0132 (will be added to EATOM!!)
  PAW_PBE O 08Apr2002                   :
 energy of atom  5       EATOM= -432.3788
 kinetic energy error for atom=    0.0458 (will be added to EATOM!!)


 POSCAR: POSCAR-c3n4                             
  positions in direct lattice
  velocities in cartesian coordinates
 exchange correlation table for  LEXCH =        8
   RHO(1)=    0.500       N(1)  =     2000
   RHO(2)=  100.500       N(2)  =     4000



--------------------------------------------------------------------------------------------------------


 ion  position               nearest neighbor table
   1  0.105  0.213  0.444-  26 1.34  46 1.34  25 1.42
   2  0.287  0.398  0.451-  29 1.32  35 1.38  25 1.43
   3  0.103  0.391  0.445-  44 1.32  39 1.38  25 1.43
   4  0.447  0.064  0.523-  30 1.32  27 1.34  48 1.41
   5  0.453  0.401  0.430-  28 1.33  29 1.34  56 1.43
   6  0.112  0.052  0.467-  26 1.32  31 1.33  32 1.40
   7  0.096  0.711  0.501-  54 1.33  34 1.35  33 1.41
   8  0.284  0.890  0.519-  27 1.33  37 1.35  33 1.42
   9  0.109  0.895  0.516-  31 1.33  52 1.34  33 1.43
  10  0.448  0.547  0.519-  38 1.32  35 1.35  56 1.35
  11  0.446  0.886  0.506-  37 1.34  36 1.34  48 1.38
  12  0.087  0.541  0.498-  34 1.32  40 1.35  39 1.35
  13  0.616  0.223  0.491-  42 1.35  30 1.35  41 1.40
  14  0.780  0.390  0.418-  45 1.35  51 1.36  41 1.40
  15  0.610  0.394  0.453-  55 1.34  28 1.34  41 1.45
  16  0.939  0.052  0.479-  46 1.32  43 1.33  32 1.40
  17  0.940  0.386  0.412-  45 1.32  44 1.34  40 1.42
  18  0.623  0.066  0.530-  42 1.33  47 1.34  48 1.41
  19  0.613  0.711  0.549-  50 1.33  38 1.36  49 1.41
  20  0.790  0.897  0.541-  43 1.33  53 1.34  49 1.45
  21  0.609  0.892  0.539-  47 1.34  36 1.35  49 1.44
  22  0.938  0.563  0.438-  51 1.31  54 1.35  40 1.42
  23  0.954  0.901  0.553-  52 1.34  53 1.34  32 1.40
  24  0.621  0.554  0.508-  55 1.32  50 1.33  56 1.41
  25  0.167  0.335  0.442-   1 1.42   3 1.43   2 1.43
  26  0.164  0.160  0.438-   6 1.32   1 1.34
  27  0.336  0.002  0.540-   8 1.33   4 1.34
  28  0.512  0.352  0.410-   5 1.33  15 1.34
  29  0.345  0.360  0.408-   2 1.32   5 1.34
  30  0.505  0.177  0.511-   4 1.32  13 1.35
  31  0.159  0.988  0.465-   9 1.33   6 1.33
  32  0.002  0.002  0.501-  16 1.40  23 1.40   6 1.40
  33  0.164  0.830  0.518-   7 1.41   8 1.42   9 1.43
  34  0.134  0.645  0.535-  12 1.32   7 1.35
  35  0.334  0.492  0.508-  10 1.35   2 1.38  57 2.11
  36  0.503  0.831  0.507-  11 1.34  21 1.35
  37  0.333  0.829  0.497-  11 1.34   8 1.35
  38  0.499  0.647  0.562-  10 1.32  19 1.36
  39  0.142  0.484  0.501-  12 1.35   3 1.38  57 2.14
  40  0.987  0.495  0.454-  12 1.35  17 1.42  22 1.42
  41  0.667  0.330  0.448-  14 1.40  13 1.40  15 1.45
  42  0.680  0.178  0.513-  18 1.33  13 1.35
  43  0.827  0.986  0.486-  20 1.33  16 1.33
  44  0.010  0.347  0.397-   3 1.32  17 1.34
  45  0.830  0.330  0.397-  17 1.32  14 1.35
  46  0.993  0.161  0.453-  16 1.32   1 1.34
  47  0.669  0.005  0.557-  21 1.34  18 1.34
  48  0.505  0.004  0.516-  11 1.38  18 1.41   4 1.41
  49  0.668  0.832  0.552-  19 1.41  21 1.44  20 1.45
  50  0.675  0.665  0.531-  24 1.33  19 1.33
  51  0.832  0.506  0.413-  22 1.31  14 1.36
  52  0.016  0.852  0.566-  23 1.34   9 1.34
  53  0.849  0.859  0.584-  20 1.34  23 1.34
  54  0.004  0.677  0.452-   7 1.33  22 1.35
  55  0.668  0.491  0.502-  24 1.32  15 1.34
  56  0.506  0.501  0.485-  10 1.35  24 1.41   5 1.43
  57  0.296  0.609  0.566-  35 2.11  39 2.14
  58  0.297  0.603  0.763-  59 1.15
  59  0.224  0.521  0.795-  58 1.15


IMPORTANT INFORMATION: All symmetrisations will be switched off!
NOSYMM: (Re-)initialisation of all symmetry stuff for point group C_1.



 KPOINTS: K-Points                                

Automatic generation of k-mesh.
Space group operators:
 irot       det(A)        alpha          n_x          n_y          n_z        tau_x        tau_y        tau_z
    1     1.000000     0.000000     1.000000     0.000000     0.000000     0.000000     0.000000     0.000000
 
 Subroutine IBZKPT returns following result:
 ===========================================
 
 Found      5 irreducible k-points:
 
 Following reciprocal coordinates:
            Coordinates               Weight
  0.000000  0.000000  0.000000      1.000000
  0.333333  0.000000  0.000000      2.000000
  0.000000  0.333333  0.000000      2.000000
  0.333333  0.333333  0.000000      2.000000
 -0.333333  0.333333  0.000000      2.000000
 
 Following cartesian coordinates:
            Coordinates               Weight
  0.000000  0.000000  0.000000      1.000000
  0.024277  0.014368  0.000000      2.000000
  0.000396  0.028736  0.000000      2.000000
  0.024673  0.043104  0.000000      2.000000
 -0.023881  0.014368  0.000000      2.000000
 
 TETIRR: Found     24 inequivalent tetrahedra from       54


--------------------------------------------------------------------------------------------------------




 Dimension of arrays:
   k-points           NKPTS =      5   k-points in BZ     NKDIM =      5   number of bands    NBANDS=    172
   number of dos      NEDOS =   4000   number of ions     NIONS =     59
   non local maximal  LDIM  =      6   non local SUM 2l+1 LMDIM =     18
   total plane-waves  NPLWV = 403200
   max r-space proj   IRMAX =      1   max aug-charges    IRDMAX=   5828
   dimension x,y,z NGX =    72 NGY =   70 NGZ =   80
   dimension x,y,z NGXF=   144 NGYF=  140 NGZF=  160
   support grid    NGXF=   144 NGYF=  140 NGZF=  160
   ions per type =              24  32   1   1   1
   NGX,Y,Z   is equivalent  to a cutoff of   8.65,  8.56,  8.87 a.u.
   NGXF,Y,Z  is equivalent  to a cutoff of  17.29, 17.13, 17.73 a.u.

 SYSTEM =  unknown system                          
 POSCAR =  POSCAR-c3n4                             

 Startparameter for this run:
   NWRITE =      2    write-flag & timer
   PREC   = normal    normal or accurate (medium, high low for compatibility)
   ISTART =      0    job   : 0-new  1-cont  2-samecut
   ICHARG =      2    charge: 1-file 2-atom 10-const
   ISPIN  =      2    spin polarized calculation?
   LNONCOLLINEAR =      F non collinear calculations
   LSORBIT =      F    spin-orbit coupling
   INIWAV =      1    electr: 0-lowe 1-rand  2-diag
   LASPH  =      F    aspherical Exc in radial PAW
   METAGGA=      F    non-selfconsistent MetaGGA calc.

 Electronic Relaxation 1
   ENCUT  =  440.0 eV  32.34 Ry    5.69 a.u.  23.68 23.24 25.66*2*pi/ulx,y,z
   ENINI  =  440.0     initial cutoff
   ENAUG  =  644.9 eV  augmentation charge cutoff
   NELM   =    100;   NELMIN=  2; NELMDL= -5     # of ELM steps 
   EDIFF  = 0.1E-03   stopping-criterion for ELM
   LREAL  =      F    real-space projection
   NLSPLINE    = F    spline interpolate recip. space projectors
   LCOMPAT=      F    compatible to vasp.4.4
   GGA_COMPAT  = T    GGA compatible to vasp.4.4-vasp.4.6
   LMAXPAW     = -100 max onsite density
   LMAXMIX     =    2 max onsite mixed and CHGCAR
   VOSKOWN=      0    Vosko Wilk Nusair interpolation
   ROPT   =    0.00000   0.00000   0.00000   0.00000
   ROPT   =    0.00000
 Ionic relaxation
   EDIFFG = -.1E-01   stopping-criterion for IOM
   NSW    =      0    number of steps for IOM
   NBLOCK =      1;   KBLOCK =      1    inner block; outer block 
   IBRION =     -1    ionic relax: 0-MD 1-quasi-New 2-CG
   NFREE  =      0    steps in history (QN), initial steepest desc. (CG)
   ISIF   =      2    stress and relaxation
   IWAVPR =     10    prediction:  0-non 1-charg 2-wave 3-comb
   ISYM   =      0    0-nonsym 1-usesym 2-fastsym
   LCORR  =      T    Harris-Foulkes like correction to forces

   POTIM  = 0.5000    time-step for ionic-motion
   TEIN   =    0.0    initial temperature
   TEBEG  =    0.0;   TEEND  =   0.0 temperature during run
   SMASS  =  -3.00    Nose mass-parameter (am)
   estimated Nose-frequenzy (Omega)   =  0.10E-29 period in steps =****** mass=  -0.438E-26a.u.
   SCALEE = 1.0000    scale energy and forces
   NPACO  =    256;   APACO  = 16.0  distance and # of slots for P.C.
   PSTRESS=    0.0 pullay stress

  Mass of Ions in am
   POMASS =  12.01 14.00 72.61 12.01 16.00
  Ionic Valenz
   ZVAL   =   4.00  5.00 14.00  4.00  6.00
  Atomic Wigner-Seitz radii
   RWIGS  =  -1.00 -1.00 -1.00 -1.00 -1.00
  virtual crystal weights 
   VCA    =   1.00  1.00  1.00  1.00  1.00
   NELECT =     280.0000    total number of electrons
   NUPDOWN=      -1.0000    fix difference up-down

 DOS related values:
   EMIN   = -14.00;   EMAX   =  6.00  energy-range for DOS
   EFERMI =   0.00
   ISMEAR =    -5;   SIGMA  =   0.20  broadening in eV -4-tet -1-fermi 0-gaus

 Electronic relaxation 2 (details)
   IALGO  =     38    algorithm
   LDIAG  =      T    sub-space diagonalisation (order eigenvalues)
   LSUBROT=      F    optimize rotation matrix (better conditioning)
   TURBO    =      0    0=normal 1=particle mesh
   IRESTART =      0    0=no restart 2=restart with 2 vectors
   NREBOOT  =      0    no. of reboots
   NMIN     =      0    reboot dimension
   EREF     =   0.00    reference energy to select bands
   IMIX   =      4    mixing-type and parameters
     AMIX     =   0.25;   BMIX     =  0.00
     AMIX_MAG =   1.00;   BMIX_MAG =  0.00
     AMIN     =   0.10
     WC   =   100.;   INIMIX=   1;  MIXPRE=   1;  MAXMIX= -45

 Intra band minimization:
   WEIMIN = 0.0000     energy-eigenvalue tresh-hold
   EBREAK =  0.15E-06  absolut break condition
   DEPER  =   0.30     relativ break condition  

   TIME   =   0.40     timestep for ELM

  volume/ion in A,a.u.               =      40.83       275.51
  Fermi-wavevector in a.u.,A,eV,Ry     =   0.798973  1.509840  8.685388  0.638358
  Thomas-Fermi vector in A             =   1.905987

 Write flags
   LWAVE        =      F    write WAVECAR
   LDOWNSAMPLE  =      F    k-point downsampling of WAVECAR
   LCHARG       =      F    write CHGCAR
   LVTOT        =      F    write LOCPOT, total local potential
   LVHAR        =      F    write LOCPOT, Hartree potential only
   LELF         =      F    write electronic localiz. function (ELF)
   LORBIT       =     11    0 simple, 1 ext, 2 COOP (PROOUT), +10 PAW based schemes


 Dipole corrections
   LMONO  =      F    monopole corrections only (constant potential shift)
   LDIPOL =      F    correct potential (dipole corrections)
   IDIPOL =      0    1-x, 2-y, 3-z, 4-all directions 
   EPSILON=  1.0000000 bulk dielectric constant

 Exchange correlation treatment:
   GGA     =    --    GGA type
   LEXCH   =     8    internal setting for exchange type
   VOSKOWN=      0    Vosko Wilk Nusair interpolation
   LHFCALC =     F    Hartree Fock is set to
   LHFONE  =     F    Hartree Fock one center treatment
   AEXX    =    0.0000 exact exchange contribution

 Linear response parameters
   LEPSILON=     F    determine dielectric tensor
   LRPA    =     F    only Hartree local field effects (RPA)
   LNABLA  =     F    use nabla operator in PAW spheres
   LVEL    =     F    velocity operator in full k-point grid
   LINTERFAST=   F  fast interpolation
   KINTER  =     0    interpolate to denser k-point grid
   CSHIFT  =0.1000    complex shift for real part using Kramers Kronig
   OMEGAMAX=  -1.0    maximum frequency
   DEG_THRESHOLD= 0.2000000E-02 threshold for treating states as degnerate
   RTIME   =   -0.100 relaxation time in fs
  (WPLASMAI=    0.000 imaginary part of plasma frequency in eV, 0.658/RTIME)
   DFIELD  = 0.0000000 0.0000000 0.0000000 field for delta impulse in time

 Orbital magnetization related:
   ORBITALMAG=     F  switch on orbital magnetization
   LCHIMAG   =     F  perturbation theory with respect to B field
   DQ        =  0.001000  dq finite difference perturbation B field
   LLRAUG    =     F  two centre corrections for induced B field



--------------------------------------------------------------------------------------------------------


 Static calculation
 charge density and potential will be updated during run
 spin polarized calculation
 Variant of blocked Davidson
 Davidson routine will perform the subspace rotation
 perform sub-space diagonalisation
    after iterative eigenvector-optimisation
 modified Broyden-mixing scheme, WC =      100.0
 initial mixing is a Kerker type mixing with AMIX =  0.2500 and BMIX =      0.0001
 Hartree-type preconditioning will be used
 using additional bands           32
 reciprocal scheme for non local part
 use partial core corrections
 calculate Harris-corrections to forces   (improved forces if not selfconsistent)
 use gradient corrections 
 use of overlap-Matrix (Vanderbilt PP)
 Fermi weights with tetrahedron method with Bloechl corrections


--------------------------------------------------------------------------------------------------------


  energy-cutoff  :      440.00
  volume of cell :     2408.72
      direct lattice vectors                 reciprocal lattice vectors
    13.843424235 -0.190740474  0.000000000     0.072830369  0.043104114 -0.000000000
    -6.921712117 11.695190994  0.000000000     0.001187813  0.086208229 -0.000000000
     0.000000000  0.000000000 15.000000000    -0.000000000 -0.000000000  0.066666667

  length of vectors
    13.844738223 13.589981274 15.000000000     0.084629944  0.086216411  0.066666667



 k-points in units of 2pi/SCALE and weight: K-Points                                
   0.00000000  0.00000000  0.00000000       0.111
   0.02427679  0.01436804  0.00000000       0.222
   0.00039594  0.02873608  0.00000000       0.222
   0.02467273  0.04310411  0.00000000       0.222
  -0.02388085  0.01436804  0.00000000       0.222

 k-points in reciprocal lattice and weights: K-Points                                
   0.00000000  0.00000000  0.00000000       0.111
   0.33333333  0.00000000  0.00000000       0.222
   0.00000000  0.33333333  0.00000000       0.222
   0.33333333  0.33333333  0.00000000       0.222
  -0.33333333  0.33333333  0.00000000       0.222

 position of ions in fractional coordinates (direct lattice) 
   0.10538199  0.21315731  0.44361057
   0.28744816  0.39815899  0.45073870
   0.10339206  0.39146310  0.44480232
   0.44712682  0.06382067  0.52336998
   0.45253722  0.40061583  0.43035626
   0.11178905  0.05241775  0.46650694
   0.09608200  0.71145290  0.50126363
   0.28403556  0.88985840  0.51887251
   0.10914318  0.89493826  0.51595453
   0.44754183  0.54749257  0.51907770
   0.44559075  0.88556596  0.50644610
   0.08663802  0.54148169  0.49777306
   0.61605056  0.22284620  0.49059080
   0.77980587  0.38955137  0.41756698
   0.61048503  0.39434262  0.45348856
   0.93939701  0.05205539  0.47866403
   0.93996917  0.38583277  0.41180398
   0.62281854  0.06555877  0.52972444
   0.61281434  0.71070028  0.54900925
   0.78958836  0.89694700  0.54086871
   0.60941401  0.89224762  0.53906392
   0.93782459  0.56254573  0.43805278
   0.95412487  0.90134269  0.55257721
   0.62135767  0.55441784  0.50795199
   0.16664096  0.33544799  0.44174978
   0.16430113  0.16049291  0.43842634
   0.33600718  0.00151468  0.53987615
   0.51202925  0.35234623  0.40998813
   0.34462274  0.35956127  0.40778734
   0.50544376  0.17660974  0.51088624
   0.15854241  0.98790852  0.46460212
   0.00199674  0.00161292  0.50086435
   0.16434974  0.83036016  0.51789019
   0.13362151  0.64476952  0.53483347
   0.33399257  0.49162060  0.50793420
   0.50263392  0.83075835  0.50741375
   0.33311884  0.82933843  0.49693366
   0.49859959  0.64743445  0.56185368
   0.14230577  0.48429020  0.50142537
   0.98747371  0.49519964  0.45385624
   0.66749510  0.33026789  0.44757013
   0.67965016  0.17795184  0.51319001
   0.82707203  0.98600946  0.48589029
   0.00996626  0.34708767  0.39674623
   0.83002604  0.32992237  0.39683925
   0.99281529  0.16068230  0.45293863
   0.66867687  0.00496948  0.55713837
   0.50479442  0.00391293  0.51567592
   0.66795753  0.83185583  0.55195820
   0.67513958  0.66492220  0.53096358
   0.83165694  0.50639691  0.41304583
   0.01550262  0.85241059  0.56642508
   0.84895928  0.85916825  0.58397676
   0.00367872  0.67678953  0.45212181
   0.66763241  0.49108677  0.50187397
   0.50567035  0.50111950  0.48499695
   0.29591323  0.60904457  0.56606269
   0.29724628  0.60254022  0.76270469
   0.22423165  0.52110691  0.79542566

 position of ions in cartesian coordinates  (Angst):
  -0.01656595  2.47281483  6.65415861
   1.22332492  4.60171745  6.76108053
  -1.27829472  4.55851462  6.67203484
   5.74801794  0.66110971  7.85054965
   3.49171730  4.59896144  6.45534385
   1.18472262  0.59171288  6.99760408
  -3.59436828  8.30225084  7.51895440
  -2.22731891 10.35288685  7.78308760
  -4.68358968 10.44565582  7.73931790
   2.40592550  6.31766585  7.78616550
   0.03886924 10.27187079  7.59669155
  -2.54861344  6.31620640  7.46659597
   6.98577209  2.48872305  7.35886202
   8.09882109  4.40713712  6.26350474
   5.72167714  4.49546810  6.80232834
  12.64415897  0.42961664  7.17996047
  10.34176859  4.33309782  6.17705967
   8.16816241  0.64792563  7.94586653
   3.56418616  8.19488707  8.23513879
   4.72219769 10.33935996  8.11303070
   2.26049548 10.31876641  8.08595883
   9.08892411  6.40019863  6.57079176
   6.96952079 10.35938463  8.28865820
   4.76419710  6.36550445  7.61927983
  -0.01499287  3.89134308  6.62624666
   1.16360458  1.84565637  6.57639504
   4.64100584 -0.04637572  8.09814229
   4.64939894  4.02309173  6.14982198
   2.28197923  4.13940422  6.11681011
   5.77463070  1.96907603  7.66329358
  -4.64324856 11.52353840  6.96903179
   0.01647762  0.01848254  7.51296524
  -3.47235087  9.67987256  7.76835280
  -2.61312975  7.51521560  8.02250207
   1.22074462  5.68589089  7.61901302
   1.20790451  9.62000496  7.61120622
  -1.12893635  9.63573205  7.45400488
   2.42097080  7.47676640  8.42780514
  -1.38211811  5.63672288  7.52138057
  10.24238818  5.60310317  6.80784367
   6.95439854  3.73522776  6.71355198
   8.17695404  1.95154402  7.69785011
   4.62463537 11.37381289  7.28835439
  -2.26447373  4.05735557  5.95119343
   9.20677488  3.70018557  5.95258868
  12.63176659  1.68984016  6.79407944
   9.22238026 -0.06942476  8.35707552
   6.96099906 -0.05052223  7.73513886
   3.48895281  9.60130633  8.27937304
   4.74384361  7.64761568  7.96445374
   8.00784621  5.76377797  6.19568739
  -5.68553132  9.96614772  8.49637614
   5.80558816  9.88620587  8.75965137
  -4.63361615  7.91448114  6.78182712
   5.84315739  5.61600904  7.52810962
   3.53160423  5.76423651  7.27495422
  -0.11917883  7.06644993  8.49094033
  -0.05570356  6.99012610 11.44057030
  -0.50281807  6.05167473 11.93138488



--------------------------------------------------------------------------------------------------------


 k-point  1 :   0.0000 0.0000 0.0000  plane waves:   50507
 k-point  2 :   0.3333 0.0000 0.0000  plane waves:   50502
 k-point  3 :   0.0000 0.3333 0.0000  plane waves:   50488
 k-point  4 :   0.3333 0.3333 0.0000  plane waves:   50491
 k-point  5 :  -0.3333 0.3333 0.0000  plane waves:   50463

 maximum and minimum number of plane-waves per node :      4234     4191

 maximum number of plane-waves:     50507
 maximum index in each direction: 
   IXMAX=   24   IYMAX=   23   IZMAX=   25
   IXMIN=  -24   IYMIN=  -23   IZMIN=  -25


 parallel 3D FFT for wavefunctions:
    minimum data exchange during FFTs selected (reduces bandwidth)
 parallel 3D FFT for charge:
    minimum data exchange during FFTs selected (reduces bandwidth)


 total amount of memory used by VASP MPI-rank0    91807. kBytes
=======================================================================

   base      :      30000. kBytes
   nonl-proj :      19157. kBytes
   fftplans  :       3349. kBytes
   grid      :       9783. kBytes
   one-center:        155. kBytes
   wavefun   :      29363. kBytes

     INWAV:  cpu time    0.0000: real time    0.0000
 Broyden mixing: mesh for mixing (old mesh)
   NGX = 47   NGY = 47   NGZ = 51
  (NGX  =144   NGY  =140   NGZ  =160)
  gives a total of 112659 points

 initial charge density was supplied:
 charge density of overlapping atoms calculated
 number of electron     280.0000000 magnetization       2.0000000
 keeping initial charge density in first step


--------------------------------------------------------------------------------------------------------


 Maximum index for augmentation-charges          270 (set IRDMAX)


--------------------------------------------------------------------------------------------------------


 First call to EWALD:  gamma=   0.132
 Maximum number of real-space cells 3x 3x 3
 Maximum number of reciprocal cells 3x 3x 3

    FEWALD:  cpu time    0.0029: real time    0.0029


--------------------------------------- Iteration      1(   1)  ---------------------------------------


    POTLOK:  cpu time    0.1155: real time    0.1320
    SETDIJ:  cpu time    0.0099: real time    0.0099
     EDDAV:  cpu time   11.8197: real time   11.8245
 BZINTS: Fermi energy:  9.205718;280.000000 electrons
         Band energy:***********;  BLOECHL correction: -0.017619
       DOS:  cpu time    0.2096: real time    0.2096
    --------------------------------------------
      LOOP:  cpu time   12.1548: real time   12.1761

 eigenvalue-minimisations  :  3920
 total energy-change (2. order) : 0.2682157E+04  (-0.1052571E+05)
 number of electron     280.0000000 magnetization       2.0000000
 augmentation part      280.0000000 magnetization       2.0000000

 Free energy of the ion-electron system (eV)
  ---------------------------------------------------
  alpha Z        PSCENC =       154.69642529
  Ewald energy   TEWEN  =     26954.99551233
  -Hartree energ DENC   =    -38874.07330684
  -exchange      EXHF   =         0.00000000
  -V(xc)+E(xc)   XCENC  =      1067.80022198
  PAW double counting   =     11453.83848114   -11942.90478952
  entropy T*S    EENTRO =         0.00000000
  eigenvalues    EBANDS =     -1303.93158574
  atomic energy  EATOM  =     15171.73615219
  Solvation  Ediel_sol  =         0.00000000
  ---------------------------------------------------
  free energy    TOTEN  =      2682.15711081 eV

  energy without entropy =     2682.15711081  energy(sigma->0) =     2682.15711081


--------------------------------------------------------------------------------------------------------




--------------------------------------- Iteration      1(   2)  ---------------------------------------


     EDDAV:  cpu time   13.8017: real time   13.8040
 BZINTS: Fermi energy:  0.053670;280.000000 electrons
         Band energy:***********;  BLOECHL correction:  0.000000
       DOS:  cpu time    0.0170: real time    0.0170
    --------------------------------------------
      LOOP:  cpu time   13.8186: real time   13.8209

 eigenvalue-minimisations  :  4776
 total energy-change (2. order) :-0.2662314E+04  (-0.2561881E+04)
 number of electron     280.0000000 magnetization       2.0000000
 augmentation part      280.0000000 magnetization       2.0000000

 Free energy of the ion-electron system (eV)
  ---------------------------------------------------
  alpha Z        PSCENC =       154.69642529
  Ewald energy   TEWEN  =     26954.99551233
  -Hartree energ DENC   =    -38874.07330684
  -exchange      EXHF   =         0.00000000
  -V(xc)+E(xc)   XCENC  =      1067.80022198
  PAW double counting   =     11453.83848114   -11942.90478952
  entropy T*S    EENTRO =         0.00000000
  eigenvalues    EBANDS =     -3966.24517550
  atomic energy  EATOM  =     15171.73615219
  Solvation  Ediel_sol  =         0.00000000
  ---------------------------------------------------
  free energy    TOTEN  =        19.84352106 eV

  energy without entropy =       19.84352106  energy(sigma->0) =       19.84352106


--------------------------------------------------------------------------------------------------------




--------------------------------------- Iteration      1(   3)  ---------------------------------------


     EDDAV:  cpu time   12.1132: real time   12.1230
 BZINTS: Fermi energy: -3.424797;280.000000 electrons
         Band energy:***********;  BLOECHL correction: -0.024253
       DOS:  cpu time    0.0258: real time    0.0258
    --------------------------------------------
      LOOP:  cpu time   12.1390: real time   12.1488

 eigenvalue-minimisations  :  4088
 total energy-change (2. order) :-0.5242241E+03  (-0.5203077E+03)
 number of electron     280.0000000 magnetization       2.0000000
 augmentation part      280.0000000 magnetization       2.0000000

 Free energy of the ion-electron system (eV)
  ---------------------------------------------------
  alpha Z        PSCENC =       154.69642529
  Ewald energy   TEWEN  =     26954.99551233
  -Hartree energ DENC   =    -38874.07330684
  -exchange      EXHF   =         0.00000000
  -V(xc)+E(xc)   XCENC  =      1067.80022198
  PAW double counting   =     11453.83848114   -11942.90478952
  entropy T*S    EENTRO =         0.00000000
  eigenvalues    EBANDS =     -4490.46929268
  atomic energy  EATOM  =     15171.73615219
  Solvation  Ediel_sol  =         0.00000000
  ---------------------------------------------------
  free energy    TOTEN  =      -504.38059613 eV

  energy without entropy =     -504.38059613  energy(sigma->0) =     -504.38059613


--------------------------------------------------------------------------------------------------------




--------------------------------------- Iteration      1(   4)  ---------------------------------------


     EDDAV:  cpu time   12.7360: real time   12.7377
 BZINTS: Fermi energy: -3.871218;280.000000 electrons
         Band energy:***********;  BLOECHL correction:  0.000000
       DOS:  cpu time    0.0172: real time    0.0172
    --------------------------------------------
      LOOP:  cpu time   12.7532: real time   12.7549

 eigenvalue-minimisations  :  4320
 total energy-change (2. order) :-0.2119072E+02  (-0.2070447E+02)
 number of electron     280.0000000 magnetization       2.0000000
 augmentation part      280.0000000 magnetization       2.0000000

 Free energy of the ion-electron system (eV)
  ---------------------------------------------------
  alpha Z        PSCENC =       154.69642529
  Ewald energy   TEWEN  =     26954.99551233
  -Hartree energ DENC   =    -38874.07330684
  -exchange      EXHF   =         0.00000000
  -V(xc)+E(xc)   XCENC  =      1067.80022198
  PAW double counting   =     11453.83848114   -11942.90478952
  entropy T*S    EENTRO =         0.00000000
  eigenvalues    EBANDS =     -4511.66001661
  atomic energy  EATOM  =     15171.73615219
  Solvation  Ediel_sol  =         0.00000000
  ---------------------------------------------------
  free energy    TOTEN  =      -525.57132006 eV

  energy without entropy =     -525.57132006  energy(sigma->0) =     -525.57132006


--------------------------------------------------------------------------------------------------------




--------------------------------------- Iteration      1(   5)  ---------------------------------------


     EDDAV:  cpu time   14.2690: real time   14.2757
 BZINTS: Fermi energy: -3.904976;280.000000 electrons
         Band energy:***********;  BLOECHL correction:  0.000000
       DOS:  cpu time    0.0169: real time    0.0169
    CHARGE:  cpu time    0.2492: real time    0.2492
    MIXING:  cpu time    0.0027: real time    0.0027
    --------------------------------------------
      LOOP:  cpu time   14.5377: real time   14.5445

 eigenvalue-minimisations  :  5000
 total energy-change (2. order) :-0.8871873E+00  (-0.8777880E+00)
 number of electron     280.0000068 magnetization       0.0000001
 augmentation part       20.2523680 magnetization       0.0298266

 Broyden mixing:
  rms(total) = 0.41449E+01    rms(broyden)= 0.41419E+01
  rms(prec ) = 0.45814E+01
  weight for this iteration     100.00

 Free energy of the ion-electron system (eV)
  ---------------------------------------------------
  alpha Z        PSCENC =       154.69642529
  Ewald energy   TEWEN  =     26954.99551233
  -Hartree energ DENC   =    -38874.07330684
  -exchange      EXHF   =         0.00000000
  -V(xc)+E(xc)   XCENC  =      1067.80022198
  PAW double counting   =     11453.83848114   -11942.90478952
  entropy T*S    EENTRO =         0.00000000
  eigenvalues    EBANDS =     -4512.54720388
  atomic energy  EATOM  =     15171.73615219
  Solvation  Ediel_sol  =         0.00000000
  ---------------------------------------------------
  free energy    TOTEN  =      -526.45850733 eV

  energy without entropy =     -526.45850733  energy(sigma->0) =     -526.45850733


--------------------------------------------------------------------------------------------------------




--------------------------------------- Iteration      1(   6)  ---------------------------------------


    POTLOK:  cpu time    0.1051: real time    0.1090
    SETDIJ:  cpu time    0.0096: real time    0.0096
     EDDAV:  cpu time   12.8088: real time   12.8098
 BZINTS: Fermi energy: -3.529882;280.000000 electrons
         Band energy:***********;  BLOECHL correction:  0.000000
       DOS:  cpu time    0.0165: real time    0.0165
    CHARGE:  cpu time    0.2630: real time    0.2631
    MIXING:  cpu time    0.0027: real time    0.0028
    --------------------------------------------
      LOOP:  cpu time   13.2057: real time   13.2108

 eigenvalue-minimisations  :  4344
 total energy-change (2. order) : 0.2642580E+02  (-0.5488186E+01)
 number of electron     280.0000058 magnetization      -0.0000000
 augmentation part       19.1414002 magnetization       0.0093573

 Broyden mixing:
  rms(total) = 0.25786E+01    rms(broyden)= 0.25782E+01
  rms(prec ) = 0.27644E+01
  weight for this iteration     100.00

 eigenvalues of (default mixing * dielectric matrix)
  average eigenvalue GAMMA=   1.4179
  1.4179

 Free energy of the ion-electron system (eV)
  ---------------------------------------------------
  alpha Z        PSCENC =       154.69642529
  Ewald energy   TEWEN  =     26954.99551233
  -Hartree energ DENC   =    -39173.18172174
  -exchange      EXHF   =         0.00000000
  -V(xc)+E(xc)   XCENC  =      1082.67863848
  PAW double counting   =     14988.84457201   -15480.05245181
  entropy T*S    EENTRO =         0.00000000
  eigenvalues    EBANDS =     -4199.74983098
  atomic energy  EATOM  =     15171.73615219
  Solvation  Ediel_sol  =         0.00000000
  ---------------------------------------------------
  free energy    TOTEN  =      -500.03270423 eV

  energy without entropy =     -500.03270423  energy(sigma->0) =     -500.03270423


--------------------------------------------------------------------------------------------------------




--------------------------------------- Iteration      1(   7)  ---------------------------------------


    POTLOK:  cpu time    0.1123: real time    0.1152
    SETDIJ:  cpu time    0.0104: real time    0.0104
     EDDAV:  cpu time   12.3240: real time   12.3250
 BZINTS: Fermi energy: -3.011003;280.000000 electrons
         Band energy:***********;  BLOECHL correction:  0.000000
       DOS:  cpu time    0.0171: real time    0.0171
    CHARGE:  cpu time    0.2641: real time    0.2641
    MIXING:  cpu time    0.0037: real time    0.0037
    --------------------------------------------
      LOOP:  cpu time   12.7317: real time   12.7356

 eigenvalue-minimisations  :  4128
 total energy-change (2. order) : 0.5197942E+01  (-0.4382127E+01)
 number of electron     280.0000057 magnetization      -0.0000000
 augmentation part       18.7069961 magnetization      -0.0002163

 Broyden mixing:
  rms(total) = 0.16499E+01    rms(broyden)= 0.16495E+01
  rms(prec ) = 0.17794E+01
  weight for this iteration     100.00

 eigenvalues of (default mixing * dielectric matrix)
  average eigenvalue GAMMA=   1.5274
  0.9514  2.1035

 Free energy of the ion-electron system (eV)
  ---------------------------------------------------
  alpha Z        PSCENC =       154.69642529
  Ewald energy   TEWEN  =     26954.99551233
  -Hartree energ DENC   =    -39446.61411752
  -exchange      EXHF   =         0.00000000
  -V(xc)+E(xc)   XCENC  =      1094.13536738
  PAW double counting   =     19730.56030900   -20224.88877117
  entropy T*S    EENTRO =         0.00000000
  eigenvalues    EBANDS =     -3929.45563953
  atomic energy  EATOM  =     15171.73615219
  Solvation  Ediel_sol  =         0.00000000
  ---------------------------------------------------
  free energy    TOTEN  =      -494.83476203 eV

  energy without entropy =     -494.83476203  energy(sigma->0) =     -494.83476203


--------------------------------------------------------------------------------------------------------




--------------------------------------- Iteration      1(   8)  ---------------------------------------


    POTLOK:  cpu time    0.1054: real time    0.1175
    SETDIJ:  cpu time    0.0102: real time    0.0102
     EDDAV:  cpu time   11.9144: real time   11.9153
 BZINTS: Fermi energy: -2.500875;280.000000 electrons
         Band energy:***********;  BLOECHL correction:  0.000000
       DOS:  cpu time    0.0175: real time    0.0175
    CHARGE:  cpu time    0.2496: real time    0.2496
    MIXING:  cpu time    0.0023: real time    0.0023
    --------------------------------------------
      LOOP:  cpu time   12.2994: real time   12.3125

 eigenvalue-minimisations  :  3992
 total energy-change (2. order) : 0.1823110E+01  (-0.1648896E+01)
 number of electron     280.0000055 magnetization       0.0000000
 augmentation part       18.4863522 magnetization      -0.0014708

 Broyden mixing:
  rms(total) = 0.11396E+01    rms(broyden)= 0.11394E+01
  rms(prec ) = 0.12161E+01
  weight for this iteration     100.00

 eigenvalues of (default mixing * dielectric matrix)
  average eigenvalue GAMMA=   1.6610
  3.0642  1.2391  0.6796

 Free energy of the ion-electron system (eV)
  ---------------------------------------------------
  alpha Z        PSCENC =       154.69642529
  Ewald energy   TEWEN  =     26954.99551233
  -Hartree energ DENC   =    -39556.35045188
  -exchange      EXHF   =         0.00000000
  -V(xc)+E(xc)   XCENC  =      1098.88219533
  PAW double counting   =     23080.78464646   -23577.40058139
  entropy T*S    EENTRO =         0.00000000
  eigenvalues    EBANDS =     -3820.35555068
  atomic energy  EATOM  =     15171.73615219
  Solvation  Ediel_sol  =         0.00000000
  ---------------------------------------------------
  free energy    TOTEN  =      -493.01165235 eV

  energy without entropy =     -493.01165235  energy(sigma->0) =     -493.01165235


--------------------------------------------------------------------------------------------------------




--------------------------------------- Iteration      1(   9)  ---------------------------------------


    POTLOK:  cpu time    0.1083: real time    0.1145
    SETDIJ:  cpu time    0.0101: real time    0.0101
     EDDAV:  cpu time   13.8290: real time   13.8300
 BZINTS: Fermi energy: -2.404601;280.000000 electrons
         Band energy:***********;  BLOECHL correction:  0.000000
       DOS:  cpu time    0.0167: real time    0.0167
    CHARGE:  cpu time    0.2811: real time    0.2812
    MIXING:  cpu time    0.0026: real time    0.0026
    --------------------------------------------
      LOOP:  cpu time   14.2478: real time   14.2551

 eigenvalue-minimisations  :  4784
 total energy-change (2. order) :-0.2674698E+00  (-0.1744590E+01)
 number of electron     280.0000056 magnetization       0.0000000
 augmentation part       18.5540926 magnetization      -0.0005651

 Broyden mixing:
  rms(total) = 0.65442E+00    rms(broyden)= 0.65403E+00
  rms(prec ) = 0.83234E+00
  weight for this iteration     100.00

 eigenvalues of (default mixing * dielectric matrix)
  average eigenvalue GAMMA=   1.5771
  3.5845  1.3437  0.6900  0.6900

 Free energy of the ion-electron system (eV)
  ---------------------------------------------------
  alpha Z        PSCENC =       154.69642529
  Ewald energy   TEWEN  =     26954.99551233
  -Hartree energ DENC   =    -39617.02271094
  -exchange      EXHF   =         0.00000000
  -V(xc)+E(xc)   XCENC  =      1101.57899430
  PAW double counting   =     27079.50039411   -27580.49558161
  entropy T*S    EENTRO =         0.00000000
  eigenvalues    EBANDS =     -3758.26830783
  atomic energy  EATOM  =     15171.73615219
  Solvation  Ediel_sol  =         0.00000000
  ---------------------------------------------------
  free energy    TOTEN  =      -493.27912217 eV

  energy without entropy =     -493.27912217  energy(sigma->0) =     -493.27912217


--------------------------------------------------------------------------------------------------------




--------------------------------------- Iteration      1(  10)  ---------------------------------------


    POTLOK:  cpu time    0.1090: real time    0.1183
    SETDIJ:  cpu time    0.0103: real time    0.0103
     EDDAV:  cpu time   12.7257: real time   12.7268
 BZINTS: Fermi energy: -2.015754;280.000000 electrons
         Band energy:***********;  BLOECHL correction:  0.000000
       DOS:  cpu time    0.0170: real time    0.0170
    CHARGE:  cpu time    0.2611: real time    0.2611
    MIXING:  cpu time    0.0028: real time    0.0028
    --------------------------------------------
      LOOP:  cpu time   13.1259: real time   13.1363

 eigenvalue-minimisations  :  4336
 total energy-change (2. order) : 0.7901696E+00  (-0.6609105E+00)
 number of electron     280.0000057 magnetization       0.0000000
 augmentation part       18.5421345 magnetization      -0.0003934

 Broyden mixing:
  rms(total) = 0.33466E+00    rms(broyden)= 0.33389E+00
  rms(prec ) = 0.41204E+00
  weight for this iteration     100.00

 eigenvalues of (default mixing * dielectric matrix)
  average eigenvalue GAMMA=   1.4917
  3.8379  1.5218  0.9784  0.5602  0.5602

 Free energy of the ion-electron system (eV)
  ---------------------------------------------------
  alpha Z        PSCENC =       154.69642529
  Ewald energy   TEWEN  =     26954.99551233
  -Hartree energ DENC   =    -39635.93169282
  -exchange      EXHF   =         0.00000000
  -V(xc)+E(xc)   XCENC  =      1102.72681122
  PAW double counting   =     29039.36683396   -29540.57864578
  entropy T*S    EENTRO =         0.00000000
  eigenvalues    EBANDS =     -3739.50034896
  atomic energy  EATOM  =     15171.73615219
  Solvation  Ediel_sol  =         0.00000000
  ---------------------------------------------------
  free energy    TOTEN  =      -492.48895258 eV

  energy without entropy =     -492.48895258  energy(sigma->0) =     -492.48895258


--------------------------------------------------------------------------------------------------------




--------------------------------------- Iteration      1(  11)  ---------------------------------------


    POTLOK:  cpu time    0.0977: real time    0.1083
    SETDIJ:  cpu time    0.0097: real time    0.0097
     EDDAV:  cpu time   13.1761: real time   13.1771
 BZINTS: Fermi energy: -2.125781;280.000000 electrons
         Band energy:***********;  BLOECHL correction:  0.000000
       DOS:  cpu time    0.0172: real time    0.0172
    CHARGE:  cpu time    0.2583: real time    0.2584
    MIXING:  cpu time    0.0029: real time    0.0029
    --------------------------------------------
      LOOP:  cpu time   13.5620: real time   13.5736

 eigenvalue-minimisations  :  4504
 total energy-change (2. order) : 0.2845989E-01  (-0.3303342E+00)
 number of electron     280.0000056 magnetization       0.0000000
 augmentation part       18.5372558 magnetization      -0.0001148

 Broyden mixing:
  rms(total) = 0.24849E+00    rms(broyden)= 0.24810E+00
  rms(prec ) = 0.33660E+00
  weight for this iteration     100.00

 eigenvalues of (default mixing * dielectric matrix)
  average eigenvalue GAMMA=   1.4161
  3.8420  1.5497  1.0391  1.0391  0.5132  0.5132

 Free energy of the ion-electron system (eV)
  ---------------------------------------------------
  alpha Z        PSCENC =       154.69642529
  Ewald energy   TEWEN  =     26954.99551233
  -Hartree energ DENC   =    -39624.12253248
  -exchange      EXHF   =         0.00000000
  -V(xc)+E(xc)   XCENC  =      1102.44726683
  PAW double counting   =     29859.41264594   -30360.19479858
  entropy T*S    EENTRO =         0.00000000
  eigenvalues    EBANDS =     -3751.43116419
  atomic energy  EATOM  =     15171.73615219
  Solvation  Ediel_sol  =         0.00000000
  ---------------------------------------------------
  free energy    TOTEN  =      -492.46049269 eV

  energy without entropy =     -492.46049269  energy(sigma->0) =     -492.46049269


--------------------------------------------------------------------------------------------------------




--------------------------------------- Iteration      1(  12)  ---------------------------------------


    POTLOK:  cpu time    0.1120: real time    0.1223
    SETDIJ:  cpu time    0.0101: real time    0.0101
     EDDAV:  cpu time   13.5935: real time   13.5961
 BZINTS: Fermi energy: -2.120780;280.000000 electrons
         Band energy:***********;  BLOECHL correction:  0.000000
       DOS:  cpu time    0.0170: real time    0.0170
    CHARGE:  cpu time    0.2540: real time    0.2540
    MIXING:  cpu time    0.0031: real time    0.0031
    --------------------------------------------
      LOOP:  cpu time   13.9899: real time   14.0029

 eigenvalue-minimisations  :  4728
 total energy-change (2. order) : 0.1087949E+00  (-0.1899091E+00)
 number of electron     280.0000056 magnetization      -0.0000000
 augmentation part       18.5109140 magnetization      -0.0000284

 Broyden mixing:
  rms(total) = 0.14356E+00    rms(broyden)= 0.14314E+00
  rms(prec ) = 0.18450E+00
  weight for this iteration     100.00

 eigenvalues of (default mixing * dielectric matrix)
  average eigenvalue GAMMA=   1.3941
  3.8144  1.9721  1.2358  0.8539  0.8539  0.5142  0.5142

 Free energy of the ion-electron system (eV)
  ---------------------------------------------------
  alpha Z        PSCENC =       154.69642529
  Ewald energy   TEWEN  =     26954.99551233
  -Hartree energ DENC   =    -39609.63185607
  -exchange      EXHF   =         0.00000000
  -V(xc)+E(xc)   XCENC  =      1101.92351270
  PAW double counting   =     30087.81300719   -30587.95840599
  entropy T*S    EENTRO =         0.00000000
  eigenvalues    EBANDS =     -3765.92604543
  atomic energy  EATOM  =     15171.73615219
  Solvation  Ediel_sol  =         0.00000000
  ---------------------------------------------------
  free energy    TOTEN  =      -492.35169779 eV

  energy without entropy =     -492.35169779  energy(sigma->0) =     -492.35169779


--------------------------------------------------------------------------------------------------------




--------------------------------------- Iteration      1(  13)  ---------------------------------------


    POTLOK:  cpu time    0.1011: real time    0.1189
    SETDIJ:  cpu time    0.0098: real time    0.0098
     EDDAV:  cpu time   11.9149: real time   11.9178
 BZINTS: Fermi energy: -2.155789;280.000000 electrons
         Band energy:***********;  BLOECHL correction:  0.000000
       DOS:  cpu time    0.0171: real time    0.0171
    CHARGE:  cpu time    0.2570: real time    0.2570
    MIXING:  cpu time    0.0033: real time    0.0033
    --------------------------------------------
      LOOP:  cpu time   12.3030: real time   12.3237

 eigenvalue-minimisations  :  4000
 total energy-change (2. order) : 0.4330938E-01  (-0.2655114E-01)
 number of electron     280.0000056 magnetization      -0.0000000
 augmentation part       18.5297135 magnetization      -0.0000471

 Broyden mixing:
  rms(total) = 0.71503E-01    rms(broyden)= 0.71471E-01
  rms(prec ) = 0.85262E-01
  weight for this iteration     100.00

 eigenvalues of (default mixing * dielectric matrix)
  average eigenvalue GAMMA=   1.3840
  3.8056  2.3494  1.3449  0.8601  0.8601  0.8247  0.5138  0.5138

 Free energy of the ion-electron system (eV)
  ---------------------------------------------------
  alpha Z        PSCENC =       154.69642529
  Ewald energy   TEWEN  =     26954.99551233
  -Hartree energ DENC   =    -39592.27179039
  -exchange      EXHF   =         0.00000000
  -V(xc)+E(xc)   XCENC  =      1101.31411417
  PAW double counting   =     30209.14472381   -30709.20933215
  entropy T*S    EENTRO =         0.00000000
  eigenvalues    EBANDS =     -3782.71419366
  atomic energy  EATOM  =     15171.73615219
  Solvation  Ediel_sol  =         0.00000000
  ---------------------------------------------------
  free energy    TOTEN  =      -492.30838842 eV

  energy without entropy =     -492.30838842  energy(sigma->0) =     -492.30838842


--------------------------------------------------------------------------------------------------------




--------------------------------------- Iteration      1(  14)  ---------------------------------------


    POTLOK:  cpu time    0.0982: real time    0.1083
    SETDIJ:  cpu time    0.0098: real time    0.0098
     EDDAV:  cpu time   12.9348: real time   12.9380
 BZINTS: Fermi energy: -2.190798;280.000000 electrons
         Band energy:***********;  BLOECHL correction:  0.000000
       DOS:  cpu time    0.0167: real time    0.0167
    CHARGE:  cpu time    0.2586: real time    0.2586
    MIXING:  cpu time    0.0035: real time    0.0035
    --------------------------------------------
      LOOP:  cpu time   13.3216: real time   13.3349

 eigenvalue-minimisations  :  4048
 total energy-change (2. order) : 0.3897366E-02  (-0.9284421E-02)
 number of electron     280.0000056 magnetization       0.0000000
 augmentation part       18.5359328 magnetization      -0.0000255

 Broyden mixing:
  rms(total) = 0.36908E-01    rms(broyden)= 0.36780E-01
  rms(prec ) = 0.45396E-01
  weight for this iteration     100.00

 eigenvalues of (default mixing * dielectric matrix)
  average eigenvalue GAMMA=   1.3661
  3.7998  2.4724  1.3919  0.9303  0.9303  0.9641  0.7749  0.5155  0.5155

 Free energy of the ion-electron system (eV)
  ---------------------------------------------------
  alpha Z        PSCENC =       154.69642529
  Ewald energy   TEWEN  =     26954.99551233
  -Hartree energ DENC   =    -39584.73212513
  -exchange      EXHF   =         0.00000000
  -V(xc)+E(xc)   XCENC  =      1101.05064201
  PAW double counting   =     30292.43806239   -30792.40858124
  entropy T*S    EENTRO =         0.00000000
  eigenvalues    EBANDS =     -3790.08057889
  atomic energy  EATOM  =     15171.73615219
  Solvation  Ediel_sol  =         0.00000000
  ---------------------------------------------------
  free energy    TOTEN  =      -492.30449105 eV

  energy without entropy =     -492.30449105  energy(sigma->0) =     -492.30449105


--------------------------------------------------------------------------------------------------------




--------------------------------------- Iteration      1(  15)  ---------------------------------------


    POTLOK:  cpu time    0.1079: real time    0.1082
    SETDIJ:  cpu time    0.0100: real time    0.0100
     EDDAV:  cpu time   13.0606: real time   13.0616
 BZINTS: Fermi energy: -2.185796;280.000000 electrons
         Band energy:***********;  BLOECHL correction:  0.000000
       DOS:  cpu time    0.0151: real time    0.0151
    CHARGE:  cpu time    0.2408: real time    0.2408
    MIXING:  cpu time    0.0038: real time    0.0038
    --------------------------------------------
      LOOP:  cpu time   13.4382: real time   13.4395

 eigenvalue-minimisations  :  4000
 total energy-change (2. order) :-0.1005694E-02  (-0.5344812E-02)
 number of electron     280.0000056 magnetization      -0.0000000
 augmentation part       18.5353317 magnetization      -0.0000348

 Broyden mixing:
  rms(total) = 0.36068E-01    rms(broyden)= 0.36010E-01
  rms(prec ) = 0.48654E-01
  weight for this iteration     100.00

 eigenvalues of (default mixing * dielectric matrix)
  average eigenvalue GAMMA=   1.3693
  3.7547  2.6292  1.3319  1.3319  1.2773  0.8283  0.8283  0.6875  0.5121  0.5121

 Free energy of the ion-electron system (eV)
  ---------------------------------------------------
  alpha Z        PSCENC =       154.69642529
  Ewald energy   TEWEN  =     26954.99551233
  -Hartree energ DENC   =    -39585.14423451
  -exchange      EXHF   =         0.00000000
  -V(xc)+E(xc)   XCENC  =      1101.04813248
  PAW double counting   =     30320.95264621   -30820.93044363
  entropy T*S    EENTRO =         0.00000000
  eigenvalues    EBANDS =     -3789.65968710
  atomic energy  EATOM  =     15171.73615219
  Solvation  Ediel_sol  =         0.00000000
  ---------------------------------------------------
  free energy    TOTEN  =      -492.30549674 eV

  energy without entropy =     -492.30549674  energy(sigma->0) =     -492.30549674


--------------------------------------------------------------------------------------------------------




--------------------------------------- Iteration      1(  16)  ---------------------------------------


    POTLOK:  cpu time    0.0977: real time    0.1027
    SETDIJ:  cpu time    0.0089: real time    0.0089
     EDDAV:  cpu time   12.8309: real time   12.8337
 BZINTS: Fermi energy: -2.190798;280.000000 electrons
         Band energy:***********;  BLOECHL correction:  0.000000
       DOS:  cpu time    0.0151: real time    0.0151
    CHARGE:  cpu time    0.2414: real time    0.2414
    MIXING:  cpu time    0.0037: real time    0.0037
    --------------------------------------------
      LOOP:  cpu time   13.1978: real time   13.2056

 eigenvalue-minimisations  :  4304
 total energy-change (2. order) : 0.1088724E-02  (-0.4619105E-02)
 number of electron     280.0000056 magnetization      -0.0000000
 augmentation part       18.5355466 magnetization      -0.0000351

 Broyden mixing:
  rms(total) = 0.25505E-01    rms(broyden)= 0.25402E-01
  rms(prec ) = 0.35154E-01
  weight for this iteration     100.00

 eigenvalues of (default mixing * dielectric matrix)
  average eigenvalue GAMMA=   1.3585
  3.7152  2.8902  1.8297  1.1537  1.1537  0.8764  0.8764  0.7195  0.7195  0.5047
  0.5047

 Free energy of the ion-electron system (eV)
  ---------------------------------------------------
  alpha Z        PSCENC =       154.69642529
  Ewald energy   TEWEN  =     26954.99551233
  -Hartree energ DENC   =    -39584.89851252
  -exchange      EXHF   =         0.00000000
  -V(xc)+E(xc)   XCENC  =      1101.03347593
  PAW double counting   =     30327.95334945   -30827.95842367
  entropy T*S    EENTRO =         0.00000000
  eigenvalues    EBANDS =     -3789.86238701
  atomic energy  EATOM  =     15171.73615219
  Solvation  Ediel_sol  =         0.00000000
  ---------------------------------------------------
  free energy    TOTEN  =      -492.30440802 eV

  energy without entropy =     -492.30440802  energy(sigma->0) =     -492.30440802


--------------------------------------------------------------------------------------------------------




--------------------------------------- Iteration      1(  17)  ---------------------------------------


    POTLOK:  cpu time    0.0986: real time    0.1023
    SETDIJ:  cpu time    0.0094: real time    0.0094
     EDDAV:  cpu time   12.2297: real time   12.2323
 BZINTS: Fermi energy: -2.189547;280.000000 electrons
         Band energy:***********;  BLOECHL correction:  0.000000
       DOS:  cpu time    0.0150: real time    0.0150
    CHARGE:  cpu time    0.2481: real time    0.2482
    MIXING:  cpu time    0.0040: real time    0.0040
    --------------------------------------------
      LOOP:  cpu time   12.6048: real time   12.6112

 eigenvalue-minimisations  :  4024
 total energy-change (2. order) : 0.6812522E-03  (-0.1161501E-02)
 number of electron     280.0000056 magnetization      -0.0000000
 augmentation part       18.5356526 magnetization      -0.0000562

 Broyden mixing:
  rms(total) = 0.10846E-01    rms(broyden)= 0.10815E-01
  rms(prec ) = 0.11460E-01
  weight for this iteration     100.00

 eigenvalues of (default mixing * dielectric matrix)
  average eigenvalue GAMMA=   1.3976
  3.7171  2.9587  1.6110  1.6110  1.6110  1.0339  0.8589  0.8589  0.8522  0.5050
  0.5050  0.6481

 Free energy of the ion-electron system (eV)
  ---------------------------------------------------
  alpha Z        PSCENC =       154.69642529
  Ewald energy   TEWEN  =     26954.99551233
  -Hartree energ DENC   =    -39584.93092084
  -exchange      EXHF   =         0.00000000
  -V(xc)+E(xc)   XCENC  =      1101.02993204
  PAW double counting   =     30333.73338855   -30833.74185276
  entropy T*S    EENTRO =         0.00000000
  eigenvalues    EBANDS =     -3789.82236355
  atomic energy  EATOM  =     15171.73615219
  Solvation  Ediel_sol  =         0.00000000
  ---------------------------------------------------
  free energy    TOTEN  =      -492.30372677 eV

  energy without entropy =     -492.30372677  energy(sigma->0) =     -492.30372677


--------------------------------------------------------------------------------------------------------




--------------------------------------- Iteration      1(  18)  ---------------------------------------


    POTLOK:  cpu time    0.0955: real time    0.1019
    SETDIJ:  cpu time    0.0094: real time    0.0094
     EDDAV:  cpu time   11.7959: real time   11.7980
 BZINTS: Fermi energy: -2.190798;280.000000 electrons
         Band energy:***********;  BLOECHL correction:  0.000000
       DOS:  cpu time    0.0153: real time    0.0153
    CHARGE:  cpu time    0.2448: real time    0.2448
    MIXING:  cpu time    0.0040: real time    0.0040
    --------------------------------------------
      LOOP:  cpu time   12.1649: real time   12.1734

 eigenvalue-minimisations  :  3776
 total energy-change (2. order) :-0.2171546E-03  (-0.2441515E-03)
 number of electron     280.0000056 magnetization      -0.0000000
 augmentation part       18.5354104 magnetization      -0.0000736

 Broyden mixing:
  rms(total) = 0.10216E-01    rms(broyden)= 0.10208E-01
  rms(prec ) = 0.13919E-01
  weight for this iteration     100.00

 eigenvalues of (default mixing * dielectric matrix)
  average eigenvalue GAMMA=   1.4595
  3.4979  3.1298  3.1298  1.7921  1.2001  1.2001  0.8602  0.8602  0.9237  0.5040
  0.5040  0.7240  0.6476

 Free energy of the ion-electron system (eV)
  ---------------------------------------------------
  alpha Z        PSCENC =       154.69642529
  Ewald energy   TEWEN  =     26954.99551233
  -Hartree energ DENC   =    -39585.04794992
  -exchange      EXHF   =         0.00000000
  -V(xc)+E(xc)   XCENC  =      1101.03633648
  PAW double counting   =     30338.59303841   -30838.59755469
  entropy T*S    EENTRO =         0.00000000
  eigenvalues    EBANDS =     -3789.71590399
  atomic energy  EATOM  =     15171.73615219
  Solvation  Ediel_sol  =         0.00000000
  ---------------------------------------------------
  free energy    TOTEN  =      -492.30394392 eV

  energy without entropy =     -492.30394392  energy(sigma->0) =     -492.30394392


--------------------------------------------------------------------------------------------------------




--------------------------------------- Iteration      1(  19)  ---------------------------------------


    POTLOK:  cpu time    0.0992: real time    0.1088
    SETDIJ:  cpu time    0.0093: real time    0.0093
     EDDAV:  cpu time    9.8208: real time    9.8216
 BZINTS: Fermi energy: -2.185796;280.000000 electrons
         Band energy:***********;  BLOECHL correction:  0.000000
       DOS:  cpu time    0.0160: real time    0.0160
    CHARGE:  cpu time    0.2494: real time    0.2494
    MIXING:  cpu time    0.0045: real time    0.0046
    --------------------------------------------
      LOOP:  cpu time   10.1993: real time   10.2096

 eigenvalue-minimisations  :  2696
 total energy-change (2. order) : 0.1419002E-03  (-0.1804962E-03)
 number of electron     280.0000056 magnetization      -0.0000000
 augmentation part       18.5353465 magnetization      -0.0001381

 Broyden mixing:
  rms(total) = 0.31628E-02    rms(broyden)= 0.31295E-02
  rms(prec ) = 0.35530E-02
  weight for this iteration     100.00

 eigenvalues of (default mixing * dielectric matrix)
  average eigenvalue GAMMA=   1.4381
  3.6273  3.6273  2.7737  1.7072  1.1750  1.1750  0.8767  0.8767  0.9752  0.8397
  0.8397  0.5040  0.5040  0.6326

 Free energy of the ion-electron system (eV)
  ---------------------------------------------------
  alpha Z        PSCENC =       154.69642529
  Ewald energy   TEWEN  =     26954.99551233
  -Hartree energ DENC   =    -39585.47450020
  -exchange      EXHF   =         0.00000000
  -V(xc)+E(xc)   XCENC  =      1101.04998484
  PAW double counting   =     30336.84226943   -30836.84327386
  entropy T*S    EENTRO =         0.00000000
  eigenvalues    EBANDS =     -3789.30637203
  atomic energy  EATOM  =     15171.73615219
  Solvation  Ediel_sol  =         0.00000000
  ---------------------------------------------------
  free energy    TOTEN  =      -492.30380202 eV

  energy without entropy =     -492.30380202  energy(sigma->0) =     -492.30380202


--------------------------------------------------------------------------------------------------------




--------------------------------------- Iteration      1(  20)  ---------------------------------------


[...]
   -.162E+02 0.529E+02 0.193E+03   0.167E+02 -.555E+02 -.195E+03   -.407E+00 0.268E+01 0.154E+01   -.293E-02 -.651E-02 -.544E-02
   -.603E+02 -.159E+02 0.944E+02   0.629E+02 0.171E+02 -.953E+02   -.261E+01 -.126E+01 0.981E+00   0.553E-02 -.217E-03 -.241E-02
   0.486E+02 -.312E+02 -.210E+02   -.491E+02 0.287E+02 0.201E+02   0.469E+00 0.250E+01 0.902E+00   0.560E-02 -.787E-02 -.592E-03
   0.321E+02 -.236E+02 -.372E+02   -.293E+02 0.254E+02 0.368E+02   -.269E+01 -.180E+01 0.402E+00   0.671E-02 -.268E-02 0.541E-03
   -.488E+01 -.239E+01 -.514E+02   0.171E+01 0.400E+01 0.512E+02   0.307E+01 -.155E+01 0.228E+00   0.853E-05 -.105E-02 -.462E-03
   -.355E+02 0.252E+02 -.546E+02   0.344E+02 -.235E+02 0.556E+02   0.111E+01 -.154E+01 -.983E+00   -.174E-01 0.887E-02 0.658E-02
   -.406E+01 0.334E+01 0.585E+02   0.406E+01 -.617E+01 -.578E+02   0.380E-01 0.284E+01 -.668E+00   -.488E-02 -.787E-02 0.291E-02
   0.405E+02 0.227E+02 -.471E+02   -.393E+02 -.208E+02 0.478E+02   -.134E+01 -.186E+01 -.713E+00   0.528E-02 0.531E-02 0.221E-02
   -.317E+01 -.175E+02 -.949E+01   0.331E+01 0.140E+02 0.102E+02   -.935E-01 0.337E+01 -.648E+00   0.798E-02 -.103E-01 0.177E-02
   0.385E+02 0.291E+02 0.186E+03   -.355E+02 -.276E+02 -.185E+03   -.285E+01 -.145E+01 -.627E+00   0.183E-01 0.153E-02 -.162E-03
   -.141E+02 0.231E+02 0.855E+02   0.111E+02 -.216E+02 -.849E+02   0.300E+01 -.135E+01 -.512E+00   0.115E-01 -.594E-02 -.153E-02
   0.623E+02 -.143E+02 0.661E+02   -.649E+02 0.156E+02 -.665E+02   0.264E+01 -.133E+01 0.503E+00   -.812E-02 0.419E-02 -.111E-02
   0.466E+01 0.746E+02 0.205E+03   -.470E+01 -.771E+02 -.207E+03   -.278E-01 0.264E+01 0.150E+01   -.174E-02 -.194E-02 0.206E-02
   -.630E+02 -.604E+02 -.875E+02   0.656E+02 0.617E+02 0.879E+02   -.256E+01 -.140E+01 -.368E+00   0.148E-02 0.301E-02 -.150E-02
   -.439E+02 -.302E+02 -.124E+03   0.442E+02 0.278E+02 0.123E+03   -.270E+00 0.246E+01 0.926E+00   -.387E-02 0.605E-02 0.242E-02
   0.840E+01 -.308E+01 -.988E+02   -.523E+01 0.462E+01 0.983E+02   -.309E+01 -.148E+01 0.465E+00   0.415E-02 0.821E-02 -.469E-03
   -.352E+02 -.187E+02 -.758E+02   0.326E+02 0.206E+02 0.749E+02   0.268E+01 -.188E+01 0.870E+00   -.964E-02 0.668E-02 -.310E-03
   0.728E+02 -.663E+02 0.137E+03   -.753E+02 0.681E+02 -.137E+03   0.256E+01 -.186E+01 0.140E+00   0.240E-02 -.411E-02 0.700E-03
   -.995E+01 0.412E+02 -.174E+03   0.996E+01 -.443E+02 0.175E+03   -.285E-01 0.315E+01 -.134E+01   0.298E-02 -.557E-02 0.358E-02
   -.848E+02 -.233E+02 -.513E+02   0.875E+02 0.243E+02 0.523E+02   -.284E+01 -.861E+00 -.943E+00   0.395E-02 0.744E-02 0.442E-02
   -.142E+02 0.403E+02 0.174E+03   0.146E+02 -.413E+02 -.177E+03   -.324E+00 0.783E+00 0.309E+01   -.276E-01 0.137E-02 0.212E-02
   -.188E+03 -.282E+02 0.220E+03   0.219E+03 0.447E+02 -.232E+03   -.306E+02 -.165E+02 0.122E+02   -.701E-02 -.103E-01 0.152E-03
   0.155E+03 -.156E+03 -.219E+03   -.186E+03 0.172E+03 0.230E+03   0.303E+02 -.160E+02 -.110E+02   0.722E-02 -.880E-02 -.304E-02
   0.153E+01 0.166E+03 0.382E+03   0.118E+01 -.195E+03 -.404E+03   -.277E+01 0.286E+02 0.225E+02   0.104E-01 -.137E-01 -.832E-02
   -.377E+02 0.142E+03 0.400E+03   0.352E+02 -.169E+03 -.424E+03   0.248E+01 0.269E+02 0.247E+02   -.130E-01 -.756E-02 -.658E-02
   0.187E+03 -.982E+02 -.101E+03   -.217E+03 0.118E+03 0.101E+03   0.293E+02 -.199E+02 -.106E+00   0.148E-01 -.160E-01 0.891E-03
   -.139E+03 -.794E+02 0.245E+03   0.169E+03 0.887E+02 -.265E+03   -.297E+02 -.927E+01 0.194E+02   0.135E-02 -.671E-02 0.285E-02
   -.459E+01 -.474E+00 -.190E+02   0.480E+01 0.464E+00 0.201E+02   -.190E+00 -.155E-01 -.110E+01   0.103E-02 -.762E-03 -.236E-03
   0.250E+02 -.281E+02 -.815E+02   -.253E+02 0.287E+02 0.856E+02   0.282E+00 -.607E+00 -.408E+01   0.621E-02 -.795E-02 -.158E-02
   0.199E+02 -.574E+02 -.267E+03   0.116E+01 0.702E+02 0.289E+03   -.209E+02 -.127E+02 -.227E+02   0.609E-02 -.379E-03 -.396E-02
   0.129E+02 0.767E+02 -.552E+02   -.335E+02 -.721E+02 0.661E+02   0.205E+02 -.480E+01 -.111E+02   -.235E-01 0.138E-01 0.849E-02
   -.295E+02 0.897E+02 0.135E+03   0.324E+02 -.123E+03 -.145E+03   -.298E+01 0.329E+02 0.987E+01   -.126E-01 0.353E-02 0.432E-02
   0.107E+02 0.853E+02 0.151E+03   -.128E+02 -.118E+03 -.161E+03   0.205E+01 0.326E+02 0.101E+02   -.214E-02 -.538E-02 0.607E-02
   0.140E+02 -.567E+02 -.294E+03   -.394E+02 0.699E+02 0.311E+03   0.252E+02 -.133E+02 -.172E+02   -.154E-01 0.621E-02 0.160E-02
   -.904E+01 0.822E+02 -.860E+02   0.281E+02 -.779E+02 0.101E+03   -.190E+02 -.443E+01 -.150E+02   -.789E-02 0.347E-02 -.259E-02
   0.552E+02 0.216E+02 0.780E+02   -.595E+02 -.244E+02 -.772E+02   0.438E+01 0.290E+01 -.736E+00   -.344E-03 -.688E-02 -.345E-02
   0.142E+02 0.378E+02 0.142E+03   -.161E+02 -.393E+02 -.146E+03   0.188E+01 0.154E+01 0.379E+01   0.312E-01 -.920E-02 -.534E-03
   -.184E+03 -.103E+03 -.112E+03   0.213E+03 0.122E+03 0.113E+03   -.298E+02 -.192E+02 -.926E+00   -.342E-02 -.284E-02 -.356E-02
   0.143E+03 -.670E+02 0.192E+03   -.174E+03 0.759E+02 -.209E+03   0.308E+02 -.892E+01 0.167E+02   -.829E-03 0.600E-02 0.186E-02
   0.126E+02 0.162E+03 0.414E+03   -.772E+01 -.190E+03 -.436E+03   -.477E+01 0.277E+02 0.229E+02   -.552E-02 0.108E-01 0.126E-01
   0.649E+01 0.229E+03 0.349E+03   -.827E+01 -.263E+03 -.360E+03   0.174E+01 0.337E+02 0.111E+02   0.542E-02 0.145E-01 0.789E-02
   0.189E+03 -.296E+02 0.135E+03   -.221E+03 0.473E+02 -.141E+03   0.312E+02 -.177E+02 0.570E+01   -.413E-02 0.464E-02 0.123E-03
   -.142E+03 -.159E+03 -.269E+03   0.170E+03 0.175E+03 0.283E+03   -.288E+02 -.158E+02 -.142E+02   -.818E-02 0.329E-02 -.505E-02
   0.410E+00 -.432E+02 -.101E+01   -.282E+00 0.448E+02 -.144E+01   -.165E+00 -.161E+01 0.242E+01   -.552E-03 0.162E-02 0.189E-02
   -.255E+02 -.303E+02 -.169E+03   0.255E+02 0.322E+02 0.175E+03   0.353E-01 -.184E+01 -.541E+01   -.535E-02 0.789E-02 -.306E-03
   -.225E+03 -.646E+02 -.851E+02   0.255E+03 0.829E+02 0.865E+02   -.303E+02 -.184E+02 -.134E+01   -.159E-02 0.114E-01 0.575E-02
   0.174E+03 -.143E+03 0.298E+03   -.205E+03 0.158E+03 -.305E+03   0.308E+02 -.159E+02 0.701E+01   0.249E-01 -.107E-01 0.170E-02
   0.403E+01 0.142E+03 -.358E+03   0.496E+00 -.170E+03 0.381E+03   -.455E+01 0.283E+02 -.226E+02   0.516E-02 0.450E-04 -.302E-02
   -.365E+02 0.109E+03 -.405E+03   0.350E+02 -.136E+03 0.431E+03   0.154E+01 0.263E+02 -.260E+02   0.495E-02 0.628E-02 -.119E-02
   0.188E+03 -.125E+03 0.231E+03   -.212E+03 0.148E+03 -.244E+03   0.241E+02 -.227E+02 0.123E+02   0.134E-01 -.690E-02 0.512E-02
   -.165E+03 -.705E+02 -.172E+03   0.197E+03 0.792E+02 0.186E+03   -.319E+02 -.889E+01 -.143E+02   0.188E-01 -.116E-02 0.360E-02
   -.530E+02 0.246E+02 0.507E+02   0.560E+02 -.269E+02 -.528E+02   -.309E+01 0.214E+01 0.211E+01   -.622E-02 0.956E-02 0.557E-02
   0.349E+02 -.124E+03 -.660E+03   -.362E+02 0.140E+03 0.674E+03   0.136E+01 -.157E+02 -.144E+02   -.422E-01 0.841E-02 0.548E-02
   -.812E+02 -.171E+03 -.238E+03   0.919E+02 0.194E+03 0.228E+03   -.107E+02 -.225E+02 0.105E+02   -.501E-02 -.105E-02 -.439E-02
   0.956E+02 0.207E+03 -.483E+03   -.118E+03 -.255E+03 0.509E+03   0.228E+02 0.478E+02 -.252E+02   -.399E-03 0.956E-02 -.986E-02
 -----------------------------------------------------------------------------------------------
   -.898E+01 -.271E+02 0.109E+02   -.995E-13 0.313E-12 0.455E-12   0.904E+01 0.271E+02 -.110E+02   -.501E-01 0.381E-02 0.355E-01


 POSITION                                       TOTAL-FORCE (eV/Angst)
 -----------------------------------------------------------------------------------
     -0.01657      2.47281      6.65416        -0.015146      0.056620      0.053789
      1.22332      4.60172      6.76108         0.036874      0.154835      0.052096
     -1.27829      4.55851      6.67203        -0.073432      0.099112     -0.000553
      5.74802      0.66111      7.85055        -0.031060     -0.037942     -0.002439
      3.49172      4.59896      6.45534         0.066546      0.061967      0.049763
      1.18472      0.59171      6.99760         0.011413      0.008846      0.000514
     -3.59437      8.30225      7.51895        -0.042833      0.060792     -0.002523
     -2.22732     10.35289      7.78309         0.007409     -0.021779      0.001429
     -4.68359     10.44566      7.73932        -0.039091      0.018850     -0.023773
      2.40593      6.31767      7.78617         0.033227      0.084973      0.024487
      0.03887     10.27187      7.59669         0.035063     -0.046794     -0.018107
     -2.54861      6.31621      7.46660        -0.081578     -0.004290     -0.030535
      6.98577      2.48872      7.35886         0.067977     -0.087144      0.035136
      8.09882      4.40714      6.26350         0.020235     -0.025164     -0.017601
      5.72168      4.49547      6.80233         0.065692      0.096443      0.072023
     12.64416      0.42962      7.17996        -0.030610     -0.017874      0.013146
     10.34177      4.33310      6.17706        -0.054575      0.056981      0.003607
      8.16816      0.64793      7.94587         0.070306     -0.072908      0.051837
      3.56419      8.19489      8.23514         0.026605      0.131399     -0.001648
      4.72220     10.33936      8.11303         0.021288      0.027839     -0.010065
      2.26050     10.31877      8.08596         0.042412     -0.011580      0.018332
      9.08892      6.40020      6.57079         0.024887     -0.086134      0.013625
      6.96952     10.35938      8.28866        -0.014745      0.008946      0.004036
      4.76420      6.36550      7.61928        -0.086277      0.112426      0.028811
     -0.01499      3.89134      6.62625         0.022163     -0.182881      0.038476
      1.16360      1.84566      6.57640         0.041350     -0.020494     -0.018277
      4.64101     -0.04638      8.09814         0.031642      0.042626      0.010239
      4.64940      4.02309      6.14982        -0.048399     -0.028976     -0.001935
      2.28198      4.13940      6.11681        -0.088701     -0.007847     -0.016413
      5.77463      1.96908      7.66329        -0.016087     -0.002198      0.000768
     -4.64325     11.52354      6.96903        -0.014859     -0.002633     -0.008047
      0.01648      0.01848      7.51297         0.016080     -0.027264      0.013900
     -3.47235      9.67987      7.76835        -0.015021     -0.013586     -0.026948
     -2.61313      7.51522      8.02250         0.041761      0.058814     -0.003014
      1.22074      5.68589      7.61901        -0.087054     -0.138828     -0.158043
      1.20790      9.62000      7.61121        -0.049948     -0.014483     -0.038856
     -1.12894      9.63573      7.45400        -0.012721      0.014184     -0.014036
      2.42097      7.47677      8.42781        -0.088520     -0.028806     -0.007165
     -1.38212      5.63672      7.52138         0.101135     -0.088251     -0.057611
     10.24239      5.60310      6.80784         0.069305      0.003559      0.013981
      6.95440      3.73523      6.71355        -0.011180      0.011386     -0.054659
      8.17695      1.95154      7.69785        -0.041967      0.083311     -0.033597
      4.62464     11.37381      7.28835         0.002659     -0.012502      0.009160
     -2.26447      4.05736      5.95119         0.115295      0.013716      0.006647
      9.20677      3.70019      5.95259        -0.035123      0.001129      0.050071
     12.63177      1.68984      6.79408        -0.016737      0.017366     -0.024176
      9.22238     -0.06942      8.35708        -0.041783      0.056641     -0.012539
      6.96100     -0.05052      7.73514        -0.037458      0.024139     -0.021611
      3.48895      9.60131      8.27937        -0.016884     -0.018558     -0.025726
      4.74384      7.64762      7.96445         0.041917     -0.056386     -0.006407
      8.00785      5.76378      6.19569        -0.011711     -0.004044     -0.008512
     -5.68553      9.96615      8.49638        -0.014930      0.009032     -0.001036
      5.80559      9.88621      8.75965         0.032268      0.000194     -0.005165
     -4.63362      7.91448      6.78183         0.023392      0.051975      0.016939
      5.84316      5.61601      7.52811         0.067859     -0.164951     -0.046881
      3.53160      5.76424      7.27495        -0.040246     -0.091886     -0.020134
     -0.11918      7.06645      8.49094         0.020613     -0.028339      0.036990
     -0.05570      6.99013     11.44057        -0.003182     -0.016888      0.073140
     -0.50282      6.05167     11.93138         0.004484     -0.006691      0.025089
 -----------------------------------------------------------------------------------
    total drift:                                0.004774      0.006335      0.009965


--------------------------------------------------------------------------------------------------------



  FREE ENERGIE OF THE ION-ELECTRON SYSTEM (eV)
  ---------------------------------------------------
  free  energy   TOTEN  =      -496.46722063 eV

  energy  without entropy=     -496.46722063  energy(sigma->0) =     -496.46722063



--------------------------------------------------------------------------------------------------------


    POTLOK:  cpu time    0.1366: real time    0.1366


--------------------------------------------------------------------------------------------------------


     LOOP+:  cpu time  264.6376: real time  264.8384
    4ORBIT:  cpu time    0.0000: real time    0.0000



 total charge     

# of ion       s       p       d       tot
------------------------------------------
    1        0.849   1.728   0.000   2.577
    2        0.836   1.714   0.000   2.550
    3        0.840   1.719   0.000   2.559
    4        0.862   1.738   0.000   2.599
    5        0.854   1.735   0.000   2.589
    6        0.865   1.747   0.000   2.612
    7        0.850   1.724   0.000   2.574
    8        0.848   1.717   0.000   2.566
    9        0.854   1.720   0.000   2.574
   10        0.867   1.771   0.000   2.637
   11        0.863   1.745   0.000   2.608
   12        0.870   1.779   0.000   2.649
   13        0.848   1.718   0.000   2.566
   14        0.845   1.722   0.000   2.567
   15        0.843   1.725   0.000   2.567
   16        0.866   1.753   0.000   2.619
   17        0.855   1.744   0.000   2.599
   18        0.859   1.735   0.000   2.594
   19        0.847   1.723   0.000   2.570
   20        0.851   1.716   0.000   2.567
   21        0.845   1.711   0.000   2.556
   22        0.860   1.738   0.000   2.598
   23        0.860   1.725   0.000   2.585
   24        0.863   1.757   0.000   2.620
   25        1.205   2.718   0.000   3.923
   26        1.271   2.657   0.000   3.928
   27        1.268   2.653   0.000   3.921
   28        1.272   2.625   0.000   3.897
   29        1.269   2.645   0.000   3.915
   30        1.267   2.649   0.000   3.916
   31        1.277   2.649   0.000   3.926
   32        1.232   2.754   0.000   3.986
   33        1.214   2.738   0.000   3.952
   34        1.264   2.669   0.000   3.932
   35        1.245   2.665   0.000   3.910
   36        1.264   2.648   0.000   3.912
   37        1.263   2.648   0.000   3.911
   38        1.260   2.659   0.000   3.920
   39        1.246   2.670   0.000   3.916
   40        1.230   2.772   0.000   4.002
   41        1.213   2.725   0.000   3.938
   42        1.267   2.639   0.000   3.905
   43        1.274   2.656   0.000   3.930
   44        1.269   2.646   0.000   3.915
   45        1.270   2.631   0.000   3.900
   46        1.270   2.663   0.000   3.934
   47        1.267   2.645   0.000   3.912
   48        1.228   2.760   0.000   3.988
   49        1.211   2.706   0.000   3.917
   50        1.270   2.660   0.000   3.929
   51        1.268   2.649   0.000   3.916
   52        1.270   2.630   0.000   3.901
   53        1.270   2.634   0.000   3.904
   54        1.266   2.643   0.000   3.908
   55        1.277   2.644   0.000   3.921
   56        1.229   2.768   0.000   3.997
   57        1.367   0.668  10.042  12.077
   58        1.032   1.436   0.000   2.468
   59        1.638   3.538   0.000   5.175
--------------------------------------------------
tot         64.700 132.763  10.042 207.505



 magnetization (x)

# of ion       s       p       d       tot
------------------------------------------
    1       -0.000  -0.000   0.000  -0.000
    2        0.000   0.003   0.000   0.003
    3       -0.000  -0.002   0.000  -0.002
    4       -0.000  -0.000   0.000  -0.000
    5        0.000   0.002   0.000   0.002
    6       -0.000  -0.000   0.000  -0.000
    7       -0.000  -0.001   0.000  -0.001
    8       -0.000  -0.000   0.000  -0.000
    9       -0.000  -0.000   0.000  -0.000
   10       -0.000  -0.000   0.000  -0.000
   11        0.000   0.000   0.000   0.000
   12        0.000   0.000   0.000   0.000
   13       -0.000  -0.001   0.000  -0.001
   14       -0.000  -0.003   0.000  -0.003
   15        0.000   0.003   0.000   0.003
   16        0.000   0.000   0.000   0.000
   17       -0.000  -0.002   0.000  -0.002
   18       -0.000  -0.000   0.000  -0.000
   19        0.000   0.001   0.000   0.001
   20        0.000   0.000   0.000   0.000
   21        0.000   0.000   0.000   0.000
   22       -0.000  -0.001   0.000  -0.001
   23        0.000  -0.000   0.000   0.000
   24        0.000   0.001   0.000   0.001
   25       -0.000   0.000   0.000   0.000
   26        0.000   0.000   0.000   0.000
   27        0.000  -0.000   0.000  -0.000
   28       -0.000  -0.001   0.000  -0.001
   29       -0.000  -0.000   0.000  -0.000
   30       -0.000  -0.000   0.000  -0.000
   31       -0.000  -0.000   0.000  -0.000
   32       -0.000  -0.000   0.000  -0.000
   33        0.000  -0.000   0.000  -0.000
   34       -0.000  -0.000   0.000  -0.000
   35       -0.000   0.000   0.000   0.000
   36        0.000  -0.000   0.000  -0.000
   37       -0.000  -0.000   0.000  -0.000
   38        0.000   0.000   0.000   0.000
   39        0.000  -0.000   0.000  -0.000
   40       -0.000  -0.001   0.000  -0.001
   41        0.000   0.000   0.000   0.000
   42        0.000  -0.000   0.000   0.000
   43        0.000   0.000   0.000   0.000
   44        0.000   0.000   0.000   0.000
   45       -0.000   0.000   0.000   0.000
   46        0.000   0.000   0.000   0.000
   47        0.000   0.000   0.000   0.000
   48       -0.000  -0.000   0.000  -0.000
   49       -0.000   0.000   0.000   0.000
   50        0.000  -0.000   0.000  -0.000
   51       -0.000  -0.000   0.000  -0.000
   52       -0.000  -0.000   0.000  -0.000
   53        0.000   0.000   0.000   0.000
   54        0.000   0.000   0.000   0.000
   55        0.000   0.000   0.000   0.000
   56        0.000   0.002   0.000   0.002
   57        0.000   0.001   0.000   0.001
   58        0.000   0.000   0.000   0.000
   59        0.000   0.000   0.000   0.000
--------------------------------------------------
tot         -0.000  -0.000   0.000  -0.000

 BZINTS: Fermi energy: -2.185796;280.000000 electrons
         Band energy:***********;  BLOECHL correction:  0.000000

 total amount of memory used by VASP MPI-rank0    91807. kBytes
=======================================================================

   base      :      30000. kBytes
   nonl-proj :      19157. kBytes
   fftplans  :       3349. kBytes
   grid      :       9783. kBytes
   one-center:        155. kBytes
   wavefun   :      29363. kBytes

  
  
 General timing and accounting informations for this job:
 ========================================================
  
                  Total CPU time used (sec):      277.677
                            User time (sec):      276.905
                          System time (sec):        0.772
                         Elapsed time (sec):      278.138
  
                   Maximum memory used (kb):      170652.
                   Average memory used (kb):           0.
  
                          Minor page faults:        52914
                          Major page faults:            0
                 Voluntary context switches:          933
