 vasp.5.4.4.18Apr17-6-g9f103f2a35 (build Jan 14 2022 15:04:31) complex          
  
 executed on             LinuxIFC date 2023.04.05  11:31:22
 running on   48 total cores
 distrk:  each k-point on   48 cores,    1 groups
 distr:  one band on NCORES_PER_BAND=  12 cores,    4 groups


--------------------------------------------------------------------------------------------------------


 INCAR:
 POTCAR:    PAW_PBE C 08Apr2002                   
 POTCAR:    PAW_PBE N 08Apr2002                   
 POTCAR:    PAW_PBE Ge_d 03Jul2007                
 POTCAR:    PAW_PBE C 08Apr2002                   
   SHA256 =  253f7b50bb8d59471dbedb8285d89021f4a42ed1a2c5d38a03a736e69125dd95 C/
   COPYR  = (c) Copyright 08Apr2002 Georg Kresse                                
   COPYR  = This file is part of the software VASP. Any use, copying, and all ot
   COPYR  = If you do not have a valid VASP license, you may not use, copy or di
   VRHFIN =C: s2p2                                                              
   LEXCH  = PE                                                                  
   EATOM  =   147.1560 eV,   10.8157 Ry                                         
                                                                                
   TITEL  = PAW_PBE C 08Apr2002                                                 
   LULTRA =        F    use ultrasoft PP ?                                      
   IUNSCR =        1    unscreen: 0-lin 1-nonlin 2-no                           
   RPACOR =    1.200    partial core radius                                     
   POMASS =   12.011; ZVAL   =    4.000    mass and valenz                      
   RCORE  =    1.500    outmost cutoff radius                                   
   RWIGS  =    1.630; RWIGS  =    0.863    wigner-seitz radius (au A)           
   ENMAX  =  400.000; ENMIN  =  300.000 eV                                      
   ICORE  =        2    local potential                                         
   LCOR   =        T    correct aug charges                                     
   LPAW   =        T    paw PP                                                  
   EAUG   =  644.873                                                            
   DEXC   =    0.000                                                            
   RMAX   =    1.529    core radius for proj-oper                               
   RAUG   =    1.300    factor for augmentation sphere                          
   RDEP   =    1.501    radius for radial grids                                 
   RDEPT  =    1.300    core radius for aug-charge                              
                                                                                
   Atomic configuration                                                         
    4 entries                                                                   
     n  l   j            E        occ.                                          
     1  0  0.50      -273.3789   2.0000                                         
     2  0  0.50       -13.7508   2.0000                                         
     2  1  0.50        -5.2854   2.0000                                         
     3  2  1.50        -5.4423   0.0000                                         
   Description                                                                  
     l       E           TYP  RCUT    TYP  RCUT                                 
     0    -13.7508458     23  1.200                                             
     0     -8.2022199     23  1.200                                             
     1     -5.2854383     23  1.500                                             
     1     34.0145650     23  1.500                                             
     2     -5.4423304      7  1.500                                             
  local pseudopotential read in
  partial core-charges read in
  partial kinetic energy density read in
  atomic valenz-charges read in
  non local Contribution for L=           0  read in
    real space projection operators read in
  non local Contribution for L=           0  read in
    real space projection operators read in
  non local Contribution for L=           1  read in
    real space projection operators read in
  non local Contribution for L=           1  read in
    real space projection operators read in
    PAW grid and wavefunctions read in
 
   number of l-projection  operators is LMAX  =           4
   number of lm-projection operators is LMMAX =           8
 
 POTCAR:    PAW_PBE N 08Apr2002                   
   SHA256 =  e053789ff3a61a86a1b75d8a110fcc91f86041011e7b0817c7c99e4e8a6349d7 N/
   COPYR  = (c) Copyright 08Apr2002 Georg Kresse                                
   COPYR  = This file is part of the software VASP. Any use, copying, and all ot
   COPYR  = If you do not have a valid VASP license, you may not use, copy or di
   VRHFIN =N: s2p3                                                              
   LEXCH  = PE                                                                  
   EATOM  =   264.5486 eV,   19.4438 Ry                                         
                                                                                
   TITEL  = PAW_PBE N 08Apr2002                                                 
   LULTRA =        F    use ultrasoft PP ?                                      
   IUNSCR =        1    unscreen: 0-lin 1-nonlin 2-no                           
   RPACOR =    1.200    partial core radius                                     
   POMASS =   14.001; ZVAL   =    5.000    mass and valenz                      
   RCORE  =    1.500    outmost cutoff radius                                   
   RWIGS  =    1.400; RWIGS  =    0.741    wigner-seitz radius (au A)           
   ENMAX  =  400.000; ENMIN  =  300.000 eV                                      
   ICORE  =        2    local potential                                         
   LCOR   =        T    correct aug charges                                     
   LPAW   =        T    paw PP                                                  
   EAUG   =  627.112                                                            
   DEXC   =    0.000                                                            
   RMAX   =    1.529    core radius for proj-oper                               
   RAUG   =    1.300    factor for augmentation sphere                          
   RDEP   =    1.514    radius for radial grids                                 
   RDEPT  =    1.338    core radius for aug-charge                              
                                                                                
   Atomic configuration                                                         
    4 entries                                                                   
     n  l   j            E        occ.                                          
     1  0  0.50      -384.7179   2.0000                                         
     2  0  0.50       -18.5828   2.0000                                         
     2  1  0.50        -7.0898   3.0000                                         
     3  2  1.50        -6.8029   0.0000                                         
   Description                                                                  
     l       E           TYP  RCUT    TYP  RCUT                                 
     0    -18.5828119     23  1.200                                             
     0    -13.5018863     23  1.200                                             
     1     -7.0897853     23  1.500                                             
     1      9.5240782     23  1.500                                             
     2     -6.8029130      7  1.500                                             
  local pseudopotential read in
  partial core-charges read in
  partial kinetic energy density read in
  atomic valenz-charges read in
  non local Contribution for L=           0  read in
    real space projection operators read in
  non local Contribution for L=           0  read in
    real space projection operators read in
  non local Contribution for L=           1  read in
    real space projection operators read in
  non local Contribution for L=           1  read in
    real space projection operators read in
    PAW grid and wavefunctions read in
 
   number of l-projection  operators is LMAX  =           4
   number of lm-projection operators is LMMAX =           8
 
 POTCAR:    PAW_PBE Ge_d 03Jul2007                
   SHA256 =  944b26c40d2d7c4f4eb1ff3a2e8dbfdd7129146276cd341854bfd5c0e57780ed Ge
   COPYR  = (c) Copyright 03Jul2007 Georg Kresse                                
   COPYR  = This file is part of the software VASP. Any use, copying, and all ot
   COPYR  = If you do not have a valid VASP license, you may not use, copy or di
   VRHFIN =Ge: 3d4s4p                                                           
   LEXCH  = PE                                                                  
   EATOM  =  2596.2402 eV,  190.8183 Ry                                         
                                                                                
   TITEL  = PAW_PBE Ge_d 03Jul2007                                              
   LULTRA =        F    use ultrasoft PP ?                                      
   IUNSCR =        1    unscreen: 0-lin 1-nonlin 2-no                           
   RPACOR =    2.000    partial core radius                                     
   POMASS =   72.610; ZVAL   =   14.000    mass and valenz                      
   RCORE  =    2.300    outmost cutoff radius                                   
   RWIGS  =    2.300; RWIGS  =    1.217    wigner-seitz radius (au A)           
   ENMAX  =  310.294; ENMIN  =  232.720 eV                                      
   ICORE  =        3    local potential                                         
   LCOR   =        T    correct aug charges                                     
   LPAW   =        T    paw PP                                                  
   EAUG   =  531.356                                                            
   DEXC   =    0.000                                                            
   RMAX   =    2.342    core radius for proj-oper                               
   RAUG   =    1.300    factor for augmentation sphere                          
   RDEP   =    2.318    radius for radial grids                                 
   RDEPT  =    1.783    core radius for aug-charge                              
                                                                                
   Atomic configuration                                                         
    9 entries                                                                   
     n  l   j            E        occ.                                          
     1  0  0.50    -10959.8463   2.0000                                         
     2  0  0.50     -1371.6056   2.0000                                         
     2  1  1.50     -1198.4791   6.0000                                         
     3  0  0.50      -168.4733   2.0000                                         
     3  1  1.50      -115.6019   6.0000                                         
     3  2  2.50       -29.3106  10.0000                                         
     4  0  0.50       -11.7309   2.0000                                         
     4  1  0.50        -3.8952   2.0000                                         
     4  3  2.50        -4.0817   0.0000                                         
   Description                                                                  
     l       E           TYP  RCUT    TYP  RCUT                                 
     2    -29.3105938     23  2.200                                             
     2    -13.6058260     23  2.200                                             
     0    -11.7309493     23  2.300                                             
     0     -7.4578696     23  2.300                                             
     1     -3.8952261     23  2.300                                             
     1      6.1178114     23  2.300                                             
     3     -1.3605826     23  2.300                                             
  local pseudopotential read in
  partial core-charges read in
  partial kinetic energy density read in
  atomic valenz-charges read in
  non local Contribution for L=           2  read in
    real space projection operators read in
  non local Contribution for L=           2  read in
    real space projection operators read in
  non local Contribution for L=           0  read in
    real space projection operators read in
  non local Contribution for L=           0  read in
    real space projection operators read in
  non local Contribution for L=           1  read in
    real space projection operators read in
  non local Contribution for L=           1  read in
    real space projection operators read in
    PAW grid and wavefunctions read in
 
   number of l-projection  operators is LMAX  =           6
   number of lm-projection operators is LMMAX =          18
 

 ----------------------------------------------------------------------------- 
|                                                                             |
|  ADVICE TO THIS USER RUNNING 'VASP/VAMP'   (HEAR YOUR MASTER'S VOICE ...):  |
|                                                                             |
|      You have a (more or less) 'large supercell' and for larger cells       |
|      it might be more efficient to use real space projection opertators     |
|      So try LREAL= Auto  in the INCAR   file.                               |
|      Mind:          For very  accurate calculation you might also keep the  |
|      reciprocal projection scheme          (i.e. LREAL=.FALSE.)             |
|                                                                             |
 ----------------------------------------------------------------------------- 

  PAW_PBE C 08Apr2002                   :
 energy of atom  1       EATOM= -147.1560
 kinetic energy error for atom=    0.0132 (will be added to EATOM!!)
  PAW_PBE N 08Apr2002                   :
 energy of atom  2       EATOM= -264.5486
 kinetic energy error for atom=    0.0298 (will be added to EATOM!!)
  PAW_PBE Ge_d 03Jul2007                :
 energy of atom  3       EATOM=-2596.2402
 kinetic energy error for atom=    0.0090 (will be added to EATOM!!)
 
 
 POSCAR: POSCAR-c3n4                             
  positions in cartesian coordinates
  No initial velocities read in
 exchange correlation table for  LEXCH =        8
   RHO(1)=    0.500       N(1)  =     2000
   RHO(2)=  100.500       N(2)  =     4000

 VTST: version 3.2, (02/03/18)

 CHAIN: initializing optimizer
 
 OPT: Using VASP Dynamics algorithm
 CHAIN: Read ICHAIN            0
 
 POSCAR: POSCAR-c3n4                             
  positions in cartesian coordinates
  No initial velocities read in
 


--------------------------------------------------------------------------------------------------------


 ion  position               nearest neighbor table
   1  0.106  0.214  0.426-  26 1.58  46 1.58  25 1.67
   2  0.288  0.399  0.433-  29 1.56  35 1.63  25 1.69
   3  0.104  0.392  0.427-  44 1.56  39 1.63  25 1.69
   4  0.447  0.064  0.506-  30 1.56  27 1.58  48 1.66
   5  0.453  0.401  0.413-  28 1.57  29 1.58  56 1.68
   6  0.112  0.053  0.449-  26 1.56  31 1.57  32 1.65
   7  0.096  0.712  0.484-  54 1.57  34 1.60  33 1.66
   8  0.284  0.890  0.501-  27 1.58  37 1.59  33 1.67
   9  0.109  0.895  0.498-  31 1.56  52 1.59  33 1.69
  10  0.448  0.548  0.502-  38 1.56  56 1.60  35 1.60
  11  0.445  0.885  0.489-  37 1.58  36 1.58  48 1.63
  12  0.087  0.542  0.481-  34 1.56  40 1.59  39 1.60
  13  0.616  0.223  0.473-  42 1.59  30 1.60  41 1.66
  14  0.780  0.390  0.400-  45 1.59  51 1.61  41 1.66
  15  0.610  0.394  0.435-  28 1.58  55 1.58  41 1.71
  16  0.940  0.052  0.461-  46 1.56  43 1.57  32 1.65
  17  0.941  0.387  0.394-  45 1.56  44 1.58  40 1.68
  18  0.623  0.066  0.512-  42 1.57  47 1.58  48 1.66
  19  0.613  0.711  0.531-  50 1.57  38 1.61  49 1.66
  20  0.790  0.897  0.523-  43 1.56  53 1.58  49 1.71
  21  0.609  0.892  0.521-  47 1.58  36 1.59  49 1.70
  22  0.938  0.563  0.421-  51 1.54  54 1.59  40 1.68
  23  0.954  0.902  0.535-  52 1.58  53 1.58  32 1.65
  24  0.621  0.555  0.490-  55 1.55  50 1.57  56 1.67
  25  0.167  0.335  0.425-   1 1.67   3 1.69   2 1.69
  26  0.165  0.161  0.421-   6 1.56   1 1.58
  27  0.336  0.002  0.522-   8 1.58   4 1.58
  28  0.512  0.352  0.392-   5 1.57  15 1.58
  29  0.345  0.361  0.390-   2 1.56   5 1.58
  30  0.506  0.177  0.493-   4 1.56  13 1.60
  31  0.159  0.988  0.447-   9 1.56   6 1.57
  32  0.002  0.002  0.483-  16 1.65  23 1.65   6 1.65
  33  0.165  0.831  0.500-   7 1.66   8 1.67   9 1.69
  34  0.134  0.645  0.518-  12 1.56   7 1.60
  35  0.334  0.491  0.492-  10 1.60   2 1.63
  36  0.503  0.831  0.490-  11 1.58  21 1.59
  37  0.333  0.829  0.479-  11 1.58   8 1.59
  38  0.499  0.648  0.545-  10 1.56  19 1.61
  39  0.142  0.484  0.485-  12 1.60   3 1.63
  40  0.988  0.496  0.436-  12 1.59  22 1.68  17 1.68
  41  0.667  0.330  0.429-  13 1.66  14 1.66  15 1.71
  42  0.680  0.178  0.495-  18 1.57  13 1.59
  43  0.827  0.986  0.468-  20 1.56  16 1.57
  44  0.011  0.348  0.379-   3 1.56  17 1.58
  45  0.830  0.330  0.380-  17 1.56  14 1.59
  46  0.993  0.161  0.435-  16 1.56   1 1.58
  47  0.669  0.005  0.539-  21 1.58  18 1.58
  48  0.505  0.004  0.498-  11 1.63  18 1.66   4 1.66
  49  0.668  0.832  0.534-  19 1.66  21 1.70  20 1.71
  50  0.675  0.666  0.512-  19 1.57  24 1.57
  51  0.832  0.507  0.396-  22 1.54  14 1.61
  52  0.016  0.853  0.549-  23 1.58   9 1.59
  53  0.849  0.860  0.566-  20 1.58  23 1.58
  54  0.004  0.677  0.435-   7 1.57  22 1.59
  55  0.668  0.491  0.484-  24 1.55  15 1.58
  56  0.506  0.502  0.467-  10 1.60  24 1.67   5 1.68
  57  0.287  0.593  0.558-
 

IMPORTANT INFORMATION: All symmetrisations will be switched off!
NOSYMM: (Re-)initialisation of all symmetry stuff for point group C_1.

 
 
 KPOINTS: K-Points                                

Automatic generation of k-mesh.
Space group operators:
 irot       det(A)        alpha          n_x          n_y          n_z        tau_x        tau_y        tau_z
    1     1.000000     0.000000     1.000000     0.000000     0.000000     0.000000     0.000000     0.000000
 
 Subroutine IBZKPT returns following result:
 ===========================================
 
 Found      5 irreducible k-points:
 
 Following reciprocal coordinates:
            Coordinates               Weight
  0.000000  0.000000  0.000000      1.000000
  0.333333  0.000000  0.000000      2.000000
  0.000000  0.333333  0.000000      2.000000
  0.333333  0.333333  0.000000      2.000000
 -0.333333  0.333333  0.000000      2.000000
 
 Following cartesian coordinates:
            Coordinates               Weight
  0.000000  0.000000  0.000000      1.000000
  0.024277  0.014368  0.000000      2.000000
  0.000396  0.028736  0.000000      2.000000
  0.024673  0.043104  0.000000      2.000000
 -0.023881  0.014368  0.000000      2.000000
 
 TETIRR: Found     24 inequivalent tetrahedra from       54


--------------------------------------------------------------------------------------------------------




 Dimension of arrays:
   k-points           NKPTS =      5   k-points in BZ     NKDIM =      5   number of bands    NBANDS=    168
   number of dos      NEDOS =   4000   number of ions     NIONS =     57
   non local maximal  LDIM  =      6   non local SUM 2l+1 LMDIM =     18
   total plane-waves  NPLWV = 677376
   max r-space proj   IRMAX =      1   max aug-charges    IRDMAX=   5955
   dimension x,y,z NGX =    84 NGY =   84 NGZ =   96
   dimension x,y,z NGXF=   168 NGYF=  168 NGZF=  192
   support grid    NGXF=   168 NGYF=  168 NGZF=  192
   ions per type =              24  32   1
   NGX,Y,Z   is equivalent  to a cutoff of   8.55,  8.71,  9.02 a.u.
   NGXF,Y,Z  is equivalent  to a cutoff of  17.10, 17.42, 18.03 a.u.

 SYSTEM =  unknown system                          
 POSCAR =  POSCAR-c3n4                             

 Startparameter for this run:
   NWRITE =      2    write-flag & timer
   PREC   = normal    normal or accurate (medium, high low for compatibility)
   ISTART =      0    job   : 0-new  1-cont  2-samecut
   ICHARG =      2    charge: 1-file 2-atom 10-const
   ISPIN  =      2    spin polarized calculation?
   LNONCOLLINEAR =      F non collinear calculations
   LSORBIT =      F    spin-orbit coupling
   INIWAV =      1    electr: 0-lowe 1-rand  2-diag
   LASPH  =      F    aspherical Exc in radial PAW
   METAGGA=      F    non-selfconsistent MetaGGA calc.

 Electronic Relaxation 1
   ENCUT  =  440.0 eV  32.34 Ry    5.69 a.u.  27.94 27.43 30.27*2*pi/ulx,y,z
   ENINI  =  440.0     initial cutoff
   ENAUG  =  644.9 eV  augmentation charge cutoff
   NELM   =    100;   NELMIN=  2; NELMDL= -5     # of ELM steps 
   EDIFF  = 0.1E-03   stopping-criterion for ELM
   LREAL  =      F    real-space projection
   NLSPLINE    = F    spline interpolate recip. space projectors
   LCOMPAT=      F    compatible to vasp.4.4
   GGA_COMPAT  = T    GGA compatible to vasp.4.4-vasp.4.6
   LMAXPAW     = -100 max onsite density
   LMAXMIX     =    2 max onsite mixed and CHGCAR
   VOSKOWN=      0    Vosko Wilk Nusair interpolation
   ROPT   =    0.00000   0.00000   0.00000
 Ionic relaxation
   EDIFFG = -.1E-01   stopping-criterion for IOM
   NSW    =      0    number of steps for IOM
   NBLOCK =      1;   KBLOCK =      1    inner block; outer block 
   IBRION =     -1    ionic relax: 0-MD 1-quasi-New 2-CG
   NFREE  =      0    steps in history (QN), initial steepest desc. (CG)
   ISIF   =      2    stress and relaxation
   IWAVPR =     10    prediction:  0-non 1-charg 2-wave 3-comb
   ISYM   =      0    0-nonsym 1-usesym 2-fastsym
   LCORR  =      T    Harris-Foulkes like correction to forces

   POTIM  = 0.5000    time-step for ionic-motion
   TEIN   =    0.0    initial temperature
   TEBEG  =    0.0;   TEEND  =   0.0 temperature during run
   SMASS  =  -3.00    Nose mass-parameter (am)
   estimated Nose-frequenzy (Omega)   =  0.10E-29 period in steps =****** mass=  -0.610E-26a.u.
   SCALEE = 1.0000    scale energy and forces
   NPACO  =    256;   APACO  = 16.0  distance and # of slots for P.C.
   PSTRESS=    0.0 pullay stress

  Mass of Ions in am
   POMASS =  12.01 14.00 72.61
  Ionic Valenz
   ZVAL   =   4.00  5.00 14.00
  Atomic Wigner-Seitz radii
   RWIGS  =  -1.00 -1.00 -1.00
  virtual crystal weights 
   VCA    =   1.00  1.00  1.00
   NELECT =     270.0000    total number of electrons
   NUPDOWN=      -1.0000    fix difference up-down

 DOS related values:
   EMIN   = -14.00;   EMAX   =  6.00  energy-range for DOS
   EFERMI =   0.00
   ISMEAR =    -5;   SIGMA  =   0.20  broadening in eV -4-tet -1-fermi 0-gaus

 Electronic relaxation 2 (details)
   IALGO  =     38    algorithm
   LDIAG  =      T    sub-space diagonalisation (order eigenvalues)
   LSUBROT=      F    optimize rotation matrix (better conditioning)
   TURBO    =      0    0=normal 1=particle mesh
   IRESTART =      0    0=no restart 2=restart with 2 vectors
   NREBOOT  =      0    no. of reboots
   NMIN     =      0    reboot dimension
   EREF     =   0.00    reference energy to select bands
   IMIX   =      4    mixing-type and parameters
     AMIX     =   0.25;   BMIX     =  0.00
     AMIX_MAG =   1.00;   BMIX_MAG =  0.00
     AMIN     =   0.10
     WC   =   100.;   INIMIX=   1;  MIXPRE=   1;  MAXMIX= -45

 Intra band minimization:
   WEIMIN = 0.0000     energy-eigenvalue tresh-hold
   EBREAK =  0.15E-06  absolut break condition
   DEPER  =   0.30     relativ break condition  

   TIME   =   0.40     timestep for ELM

  volume/ion in A,a.u.               =      69.43       468.55
  Fermi-wavevector in a.u.,A,eV,Ry     =   0.668937  1.264108  6.088295  0.447477
  Thomas-Fermi vector in A             =   1.744000
 
 Write flags
   LWAVE        =      F    write WAVECAR
   LDOWNSAMPLE  =      F    k-point downsampling of WAVECAR
   LCHARG       =      F    write CHGCAR
   LVTOT        =      F    write LOCPOT, total local potential
   LVHAR        =      F    write LOCPOT, Hartree potential only
   LELF         =      F    write electronic localiz. function (ELF)
   LORBIT       =     11    0 simple, 1 ext, 2 COOP (PROOUT), +10 PAW based schemes


 Dipole corrections
   LMONO  =      F    monopole corrections only (constant potential shift)
   LDIPOL =      F    correct potential (dipole corrections)
   IDIPOL =      0    1-x, 2-y, 3-z, 4-all directions 
   EPSILON=  1.0000000 bulk dielectric constant

 Exchange correlation treatment:
   GGA     =    --    GGA type
   LEXCH   =     8    internal setting for exchange type
   VOSKOWN=      0    Vosko Wilk Nusair interpolation
   LHFCALC =     F    Hartree Fock is set to
   LHFONE  =     F    Hartree Fock one center treatment
   AEXX    =    0.0000 exact exchange contribution

 Linear response parameters
   LEPSILON=     F    determine dielectric tensor
   LRPA    =     F    only Hartree local field effects (RPA)
   LNABLA  =     F    use nabla operator in PAW spheres
   LVEL    =     F    velocity operator in full k-point grid
   LINTERFAST=   F  fast interpolation
   KINTER  =     0    interpolate to denser k-point grid
   CSHIFT  =0.1000    complex shift for real part using Kramers Kronig
   OMEGAMAX=  -1.0    maximum frequency
   DEG_THRESHOLD= 0.2000000E-02 threshold for treating states as degnerate
   RTIME   =   -0.100 relaxation time in fs
  (WPLASMAI=    0.000 imaginary part of plasma frequency in eV, 0.658/RTIME)
   DFIELD  = 0.0000000 0.0000000 0.0000000 field for delta impulse in time
 
 Orbital magnetization related:
   ORBITALMAG=     F  switch on orbital magnetization
   LCHIMAG   =     F  perturbation theory with respect to B field
   DQ        =  0.001000  dq finite difference perturbation B field
   LLRAUG    =     F  two centre corrections for induced B field



--------------------------------------------------------------------------------------------------------


 Static calculation
 charge density and potential will be updated during run
 spin polarized calculation
 Variant of blocked Davidson
 Davidson routine will perform the subspace rotation
 perform sub-space diagonalisation
    after iterative eigenvector-optimisation
 modified Broyden-mixing scheme, WC =      100.0
 initial mixing is a Kerker type mixing with AMIX =  0.2500 and BMIX =      0.0001
 Hartree-type preconditioning will be used
 using additional bands           33
 reciprocal scheme for non local part
 use partial core corrections
 calculate Harris-corrections to forces 
   (improved forces if not selfconsistent)
 use gradient corrections 
 use of overlap-Matrix (Vanderbilt PP)
 Fermi weights with tetrahedron method with Bloechl corrections


--------------------------------------------------------------------------------------------------------


  energy-cutoff  :      440.00
  volume of cell :     3957.60
      direct lattice vectors                 reciprocal lattice vectors
    16.335240597 -0.225073759  0.000000000     0.061720652  0.036528910  0.000000000
    -8.167620299 13.800325373  0.000000000     0.001006621  0.073057821  0.000000000
     0.000000000  0.000000000 17.700000000     0.000000000  0.000000000  0.056497175

  length of vectors
    16.336791103 16.036177903 17.700000000     0.071720291  0.073064755  0.056497175


 
 k-points in units of 2pi/SCALE and weight: K-Points                                
   0.00000000  0.00000000  0.00000000       0.111
   0.02427679  0.01436804  0.00000000       0.222
   0.00039594  0.02873608  0.00000000       0.222
   0.02467273  0.04310411  0.00000000       0.222
  -0.02388085  0.01436804  0.00000000       0.222
 
 k-points in reciprocal lattice and weights: K-Points                                
   0.00000000  0.00000000  0.00000000       0.111
   0.33333333  0.00000000  0.00000000       0.222
   0.00000000  0.33333333  0.00000000       0.222
   0.33333333  0.33333333  0.00000000       0.222
  -0.33333333  0.33333333  0.00000000       0.222
 
 position of ions in fractional coordinates (direct lattice) 
   0.10567936  0.21351909  0.42646415
   0.28750403  0.39866334  0.43315811
   0.10379301  0.39177313  0.42728737
   0.44732828  0.06383887  0.50569377
   0.45258916  0.40124889  0.41252546
   0.11203481  0.05273921  0.44868132
   0.09638015  0.71191070  0.48390127
   0.28433946  0.89006364  0.50120122
   0.10941441  0.89537413  0.49812536
   0.44792521  0.54827090  0.50190381
   0.44544784  0.88520183  0.48897001
   0.08690842  0.54210436  0.48067119
   0.61614813  0.22292684  0.47270451
   0.78023735  0.38968276  0.39988272
   0.61037743  0.39432339  0.43546161
   0.93951642  0.05229783  0.46070020
   0.94071854  0.38652888  0.39388003
   0.62278394  0.06558106  0.51203168
   0.61322902  0.71118454  0.53124878
   0.78984871  0.89727295  0.52288011
   0.60944297  0.89248269  0.52132702
   0.93832005  0.56283419  0.42050954
   0.95436023  0.90171878  0.53466451
   0.62130548  0.55465507  0.48986027
   0.16668926  0.33545237  0.42502835
   0.16473950  0.16097029  0.42095206
   0.33626584  0.00180669  0.52215766
   0.51175722  0.35246859  0.39238613
   0.34471728  0.36074551  0.38975287
   0.50565751  0.17673507  0.49315170
   0.15873210  0.98821904  0.44665654
   0.00214731  0.00186372  0.48284181
   0.16462634  0.83083069  0.50025956
   0.13400723  0.64526801  0.51778798
   0.33371346  0.49116238  0.49155062
   0.50288345  0.83078126  0.48972341
   0.33307237  0.82932770  0.47937372
   0.49902190  0.64803204  0.54483375
   0.14173676  0.48364631  0.48511610
   0.98839512  0.49595573  0.43598798
   0.66736443  0.33015381  0.42931770
   0.67970142  0.17802103  0.49523771
   0.82720183  0.98622484  0.46784919
   0.01097216  0.34809993  0.37880244
   0.83047981  0.33016544  0.37952861
   0.99296173  0.16101876  0.43513088
   0.66886761  0.00524437  0.53948092
   0.50484899  0.00388347  0.49830916
   0.66830364  0.83227641  0.53419919
   0.67536455  0.66551462  0.51246466
   0.83211404  0.50666912  0.39574663
   0.01584380  0.85299492  0.54867721
   0.84924332  0.85956436  0.56604968
   0.00424175  0.67726383  0.43455477
   0.66753141  0.49127771  0.48382075
   0.50565566  0.50179634  0.46716125
   0.28676550  0.59288202  0.55779478
 
 position of ions in cartesian coordinates  (Angst):
  -0.01764502  2.92284720  7.54841548
   1.44031667  5.43697417  7.66689860
  -1.50437046  5.38323560  7.56298646
   6.78580345  0.78031528  8.95077965
   4.11590414  5.43549934  7.30170065
   1.39936175  0.70260221  7.94165939
  -4.24022337  9.80290667  8.56505251
  -2.62494840 12.21917046  8.87126164
  -5.52576530 12.33182803  8.81681884
   2.83889760  7.46550062  8.88369740
   0.04650524 12.11581468  8.65476909
  -3.00803272  7.46165581  8.50788000
   8.24414616  2.93778417  8.36686978
   9.56258396  5.20213797  7.07792413
   6.74997837  5.30441119  7.70767054
  14.92007802  0.51026654  8.15439358
  12.20984260  5.12249329  6.97167656
   9.63768430  0.76486758  9.06296068
   4.20855836  9.67655633  9.40310336
   5.57378392 12.20488448  9.25497786
   2.66593778 12.17938183  9.22748829
  10.73066780  7.55610378  7.44301887
   8.22480729 12.22921114  9.46356189
   5.61896254  7.51458092  8.67052672
  -0.01693842  4.59183450  7.52300176
   1.37631522  2.18436379  7.45085144
   5.47822698 -0.05075174  9.24219052
   5.48084778  4.74899806  6.94523458
   2.68460732  4.90081862  6.89862586
   6.81653207  2.32519130  8.72878505
  -5.47847094 13.60201788  7.90582081
   0.01985469  0.02523663  8.54630009
  -4.09669863 11.42868074  8.85459426
  -3.08126375  8.87474695  9.16484719
   1.43966191  6.70309046  8.70044596
   1.42921630 11.35186577  8.66810444
  -1.33281648 11.37002623  8.48491489
   2.85876317  8.83073628  9.64355741
  -1.63493535  6.64257516  8.58655500
  12.09489403  6.62188868  7.71698719
   8.20498757  4.40602382  7.59892332
   9.64907811  2.30376517  8.76570746
   5.45743096 13.42404224  8.28093062
  -2.66391518  4.80142269  6.70480319
  10.86942152  4.36947128  6.71765641
  14.90512860  1.99862164  7.70181649
  10.88327942 -0.07817059  9.54881222
   8.21511104 -0.06003511  8.82007213
   4.11918314 11.33526761  9.45532573
   5.59657164  9.03231148  9.07062445
   9.45450199  6.80491171  7.00471535
  -6.70812640 11.76804144  9.71158666
   6.85199863 11.67112552 10.01907932
  -5.46234386  9.34550655  7.69161944
   6.89171631  6.62954846  8.56362723
   4.16152486  6.81114300  8.26875408
  -0.15805182  8.11742146  9.87296766
 


--------------------------------------------------------------------------------------------------------


 k-point  1 :   0.0000 0.0000 0.0000  plane waves:   82967
 k-point  2 :   0.3333 0.0000 0.0000  plane waves:   82995
 k-point  3 :   0.0000 0.3333 0.0000  plane waves:   82939
 k-point  4 :   0.3333 0.3333 0.0000  plane waves:   82990
 k-point  5 :  -0.3333 0.3333 0.0000  plane waves:   82938

 maximum and minimum number of plane-waves per node :      6944     6890

 maximum number of plane-waves:     82995
 maximum index in each direction: 
   IXMAX=   28   IYMAX=   27   IZMAX=   30
   IXMIN=  -28   IYMIN=  -27   IZMIN=  -30


 parallel 3D FFT for wavefunctions:
    minimum data exchange during FFTs selected (reduces bandwidth)
 parallel 3D FFT for charge:
    minimum data exchange during FFTs selected (reduces bandwidth)


 total amount of memory used by VASP MPI-rank0   120251. kBytes
=======================================================================

   base      :      30000. kBytes
   nonl-proj :      21270. kBytes
   fftplans  :       5963. kBytes
   grid      :      15985. kBytes
   one-center:        155. kBytes
   wavefun   :      46878. kBytes
 
     INWAV:  cpu time    0.0000: real time    0.0000
 Broyden mixing: mesh for mixing (old mesh)
   NGX = 55   NGY = 55   NGZ = 61
  (NGX  =168   NGY  =168   NGZ  =192)
  gives a total of 184525 points

 initial charge density was supplied:
 charge density of overlapping atoms calculated
 number of electron     270.0000000 magnetization       1.0000000
 keeping initial charge density in first step


--------------------------------------------------------------------------------------------------------


 Maximum index for augmentation-charges          352 (set IRDMAX)


--------------------------------------------------------------------------------------------------------


 First call to EWALD:  gamma=   0.112
 Maximum number of real-space cells 3x 3x 3
 Maximum number of reciprocal cells 3x 3x 3

    FEWALD:  cpu time    0.0047: real time    0.0053


--------------------------------------- Iteration      1(   1)  ---------------------------------------


    POTLOK:  cpu time    0.1873: real time    0.2150
    SETDIJ:  cpu time    0.0086: real time    0.0093
     EDDAV:  cpu time   12.1009: real time   12.2154
 BZINTS: Fermi energy:  6.781648;270.000000 electrons
         Band energy:***********;  BLOECHL correction: -0.008618
       DOS:  cpu time    0.0434: real time    0.0435
    --------------------------------------------
      LOOP:  cpu time   12.3402: real time   12.4832

 eigenvalue-minimisations  :  3896
 total energy-change (2. order) : 0.2293498E+04  (-0.8631771E+04)
 number of electron     270.0000000 magnetization       1.0000000
 augmentation part      270.0000000 magnetization       1.0000000

 Free energy of the ion-electron system (eV)
  ---------------------------------------------------
  alpha Z        PSCENC =        87.80935103
  Ewald energy   TEWEN  =     23206.21574047
  -Hartree energ DENC   =    -35009.72328221
  -exchange      EXHF   =         0.00000000
  -V(xc)+E(xc)   XCENC  =       972.86074698
  PAW double counting   =     10998.91041168   -11485.61342155
  entropy T*S    EENTRO =         0.00000000
  eigenvalues    EBANDS =     -1069.22154740
  atomic energy  EATOM  =     14592.26033195
  Solvation  Ediel_sol  =         0.00000000
  ---------------------------------------------------
  free energy    TOTEN  =      2293.49833095 eV

  energy without entropy =     2293.49833095  energy(sigma->0) =     2293.49833095


--------------------------------------------------------------------------------------------------------




--------------------------------------- Iteration      1(   2)  ---------------------------------------


     EDDAV:  cpu time   15.2712: real time   15.4673
 BZINTS: Fermi energy: -0.636581;270.000000 electrons
         Band energy:***********;  BLOECHL correction:  0.000000
       DOS:  cpu time    0.0047: real time    0.0047
    --------------------------------------------
      LOOP:  cpu time   15.2758: real time   15.4720

 eigenvalue-minimisations  :  4928
 total energy-change (2. order) :-0.2089901E+04  (-0.1992255E+04)
 number of electron     270.0000000 magnetization       1.0000000
 augmentation part      270.0000000 magnetization       1.0000000

 Free energy of the ion-electron system (eV)
  ---------------------------------------------------
  alpha Z        PSCENC =        87.80935103
  Ewald energy   TEWEN  =     23206.21574047
  -Hartree energ DENC   =    -35009.72328221
  -exchange      EXHF   =         0.00000000
  -V(xc)+E(xc)   XCENC  =       972.86074698
  PAW double counting   =     10998.91041168   -11485.61342155
  entropy T*S    EENTRO =         0.00000000
  eigenvalues    EBANDS =     -3159.12293703
  atomic energy  EATOM  =     14592.26033195
  Solvation  Ediel_sol  =         0.00000000
  ---------------------------------------------------
  free energy    TOTEN  =       203.59694132 eV

  energy without entropy =      203.59694132  energy(sigma->0) =      203.59694132


--------------------------------------------------------------------------------------------------------




--------------------------------------- Iteration      1(   3)  ---------------------------------------


     EDDAV:  cpu time   13.6097: real time   13.7976
 BZINTS: Fermi energy: -3.757215;270.000000 electrons
         Band energy:***********;  BLOECHL correction: -0.003655
       DOS:  cpu time    0.0101: real time    0.0101
    --------------------------------------------
      LOOP:  cpu time   13.6198: real time   13.8077

 eigenvalue-minimisations  :  4272
 total energy-change (2. order) :-0.5942070E+03  (-0.5879139E+03)
 number of electron     270.0000000 magnetization       1.0000000
 augmentation part      270.0000000 magnetization       1.0000000

 Free energy of the ion-electron system (eV)
  ---------------------------------------------------
  alpha Z        PSCENC =        87.80935103
  Ewald energy   TEWEN  =     23206.21574047
  -Hartree energ DENC   =    -35009.72328221
  -exchange      EXHF   =         0.00000000
  -V(xc)+E(xc)   XCENC  =       972.86074698
  PAW double counting   =     10998.91041168   -11485.61342155
  entropy T*S    EENTRO =         0.00000000
  eigenvalues    EBANDS =     -3753.32990275
  atomic energy  EATOM  =     14592.26033195
  Solvation  Ediel_sol  =         0.00000000
  ---------------------------------------------------
  free energy    TOTEN  =      -390.61002440 eV

  energy without entropy =     -390.61002440  energy(sigma->0) =     -390.61002440


--------------------------------------------------------------------------------------------------------




--------------------------------------- Iteration      1(   4)  ---------------------------------------


     EDDAV:  cpu time   13.1264: real time   13.2658
 BZINTS: Fermi energy: -4.251313;270.000000 electrons
         Band energy:***********;  BLOECHL correction:  0.000000
       DOS:  cpu time    0.0039: real time    0.0041
    --------------------------------------------
      LOOP:  cpu time   13.1302: real time   13.2700

 eigenvalue-minimisations  :  4048
 total energy-change (2. order) :-0.3389007E+02  (-0.3269290E+02)
 number of electron     270.0000000 magnetization       1.0000000
 augmentation part      270.0000000 magnetization       1.0000000

 Free energy of the ion-electron system (eV)
  ---------------------------------------------------
  alpha Z        PSCENC =        87.80935103
  Ewald energy   TEWEN  =     23206.21574047
  -Hartree energ DENC   =    -35009.72328221
  -exchange      EXHF   =         0.00000000
  -V(xc)+E(xc)   XCENC  =       972.86074698
  PAW double counting   =     10998.91041168   -11485.61342155
  entropy T*S    EENTRO =         0.00000000
  eigenvalues    EBANDS =     -3787.21997488
  atomic energy  EATOM  =     14592.26033195
  Solvation  Ediel_sol  =         0.00000000
  ---------------------------------------------------
  free energy    TOTEN  =      -424.50009653 eV

  energy without entropy =     -424.50009653  energy(sigma->0) =     -424.50009653


--------------------------------------------------------------------------------------------------------




--------------------------------------- Iteration      1(   5)  ---------------------------------------


     EDDAV:  cpu time   15.7318: real time   15.8971
 BZINTS: Fermi energy: -4.291323;270.000000 electrons
         Band energy:***********;  BLOECHL correction:  0.000000
       DOS:  cpu time    0.0039: real time    0.0039
    CHARGE:  cpu time    0.2293: real time    0.2349
    MIXING:  cpu time    0.0062: real time    0.0062
    --------------------------------------------
      LOOP:  cpu time   15.9711: real time   16.1421

 eigenvalue-minimisations  :  5120
 total energy-change (2. order) :-0.2027473E+01  (-0.2000868E+01)
 number of electron     270.0000021 magnetization       0.0000001
 augmentation part       16.2155015 magnetization       0.0055554

 Broyden mixing:
  rms(total) = 0.31204E+01    rms(broyden)= 0.31163E+01
  rms(prec ) = 0.34626E+01
  weight for this iteration     100.00

 Free energy of the ion-electron system (eV)
  ---------------------------------------------------
  alpha Z        PSCENC =        87.80935103
  Ewald energy   TEWEN  =     23206.21574047
  -Hartree energ DENC   =    -35009.72328221
  -exchange      EXHF   =         0.00000000
  -V(xc)+E(xc)   XCENC  =       972.86074698
  PAW double counting   =     10998.91041168   -11485.61342155
  entropy T*S    EENTRO =         0.00000000
  eigenvalues    EBANDS =     -3789.24744759
  atomic energy  EATOM  =     14592.26033195
  Solvation  Ediel_sol  =         0.00000000
  ---------------------------------------------------
  free energy    TOTEN  =      -426.52756924 eV

  energy without entropy =     -426.52756924  energy(sigma->0) =     -426.52756924


--------------------------------------------------------------------------------------------------------




--------------------------------------- Iteration      1(   6)  ---------------------------------------


    POTLOK:  cpu time    0.1997: real time    0.2024
    SETDIJ:  cpu time    0.0091: real time    0.0091
     EDDAV:  cpu time   14.2261: real time   14.3910
 BZINTS: Fermi energy: -4.725181;270.000000 electrons
         Band energy:***********;  BLOECHL correction:  0.000000
       DOS:  cpu time    0.0036: real time    0.0036
    CHARGE:  cpu time    0.2023: real time    0.2059
    MIXING:  cpu time    0.0054: real time    0.0054
    --------------------------------------------
      LOOP:  cpu time   14.6462: real time   14.8174

 eigenvalue-minimisations  :  4704
 total energy-change (2. order) : 0.1620839E+02  (-0.7649184E+01)
 number of electron     270.0000012 magnetization       0.0000000
 augmentation part       14.7686054 magnetization      -0.0063622

 Broyden mixing:
  rms(total) = 0.17624E+01    rms(broyden)= 0.17612E+01
  rms(prec ) = 0.18961E+01
  weight for this iteration     100.00

 eigenvalues of (default mixing * dielectric matrix)
  average eigenvalue GAMMA=   0.9797
  0.9797

 Free energy of the ion-electron system (eV)
  ---------------------------------------------------
  alpha Z        PSCENC =        87.80935103
  Ewald energy   TEWEN  =     23206.21574047
  -Hartree energ DENC   =    -35106.80121402
  -exchange      EXHF   =         0.00000000
  -V(xc)+E(xc)   XCENC  =       981.03433081
  PAW double counting   =     12574.40645350   -13060.18216642
  entropy T*S    EENTRO =         0.00000000
  eigenvalues    EBANDS =     -3685.06200496
  atomic energy  EATOM  =     14592.26033195
  Solvation  Ediel_sol  =         0.00000000
  ---------------------------------------------------
  free energy    TOTEN  =      -410.31917765 eV

  energy without entropy =     -410.31917765  energy(sigma->0) =     -410.31917765


--------------------------------------------------------------------------------------------------------




--------------------------------------- Iteration      1(   7)  ---------------------------------------


    POTLOK:  cpu time    0.1739: real time    0.1770
    SETDIJ:  cpu time    0.0116: real time    0.0116
     EDDAV:  cpu time   13.4666: real time   13.5710
 BZINTS: Fermi energy: -4.615154;270.000000 electrons
         Band energy:***********;  BLOECHL correction:  0.000000
       DOS:  cpu time    0.0036: real time    0.0036
    CHARGE:  cpu time    0.2007: real time    0.2035
    MIXING:  cpu time    0.0047: real time    0.0049
    --------------------------------------------
      LOOP:  cpu time   13.8610: real time   13.9716

 eigenvalue-minimisations  :  4296
 total energy-change (2. order) : 0.6891680E+00  (-0.1558644E+01)
 number of electron     270.0000012 magnetization      -0.0000000
 augmentation part       14.8150365 magnetization      -0.0028520

 Broyden mixing:
  rms(total) = 0.12999E+01    rms(broyden)= 0.12994E+01
  rms(prec ) = 0.14191E+01
  weight for this iteration     100.00

 eigenvalues of (default mixing * dielectric matrix)
  average eigenvalue GAMMA=   1.0886
  0.8092  1.3679

 Free energy of the ion-electron system (eV)
  ---------------------------------------------------
  alpha Z        PSCENC =        87.80935103
  Ewald energy   TEWEN  =     23206.21574047
  -Hartree energ DENC   =    -35156.53566018
  -exchange      EXHF   =         0.00000000
  -V(xc)+E(xc)   XCENC  =       982.83168951
  PAW double counting   =     13691.78571926   -14177.37403652
  entropy T*S    EENTRO =         0.00000000
  eigenvalues    EBANDS =     -3636.62314519
  atomic energy  EATOM  =     14592.26033195
  Solvation  Ediel_sol  =         0.00000000
  ---------------------------------------------------
  free energy    TOTEN  =      -409.63000967 eV

  energy without entropy =     -409.63000967  energy(sigma->0) =     -409.63000967


--------------------------------------------------------------------------------------------------------




--------------------------------------- Iteration      1(   8)  ---------------------------------------


    POTLOK:  cpu time    0.1899: real time    0.1924
    SETDIJ:  cpu time    0.0118: real time    0.0119
     EDDAV:  cpu time   13.9669: real time   14.0703
 BZINTS: Fermi energy: -4.661415;270.000000 electrons
         Band energy:***********;  BLOECHL correction:  0.000000
       DOS:  cpu time    0.0037: real time    0.0037
    CHARGE:  cpu time    0.2026: real time    0.2048
    MIXING:  cpu time    0.0051: real time    0.0051
    --------------------------------------------
      LOOP:  cpu time   14.3802: real time   14.4883

 eigenvalue-minimisations  :  4576
 total energy-change (2. order) : 0.1951538E+00  (-0.1855622E+01)
 number of electron     270.0000015 magnetization       0.0000000
 augmentation part       14.6102844 magnetization      -0.0018767

 Broyden mixing:
  rms(total) = 0.99573E+00    rms(broyden)= 0.99545E+00
  rms(prec ) = 0.11452E+01
  weight for this iteration     100.00

 eigenvalues of (default mixing * dielectric matrix)
  average eigenvalue GAMMA=   1.2578
  2.3041  0.9698  0.4994

 Free energy of the ion-electron system (eV)
  ---------------------------------------------------
  alpha Z        PSCENC =        87.80935103
  Ewald energy   TEWEN  =     23206.21574047
  -Hartree energ DENC   =    -35179.76066097
  -exchange      EXHF   =         0.00000000
  -V(xc)+E(xc)   XCENC  =       984.20722781
  PAW double counting   =     14707.69173371   -15193.84527646
  entropy T*S    EENTRO =         0.00000000
  eigenvalues    EBANDS =     -3614.01330339
  atomic energy  EATOM  =     14592.26033195
  Solvation  Ediel_sol  =         0.00000000
  ---------------------------------------------------
  free energy    TOTEN  =      -409.43485585 eV

  energy without entropy =     -409.43485585  energy(sigma->0) =     -409.43485585


--------------------------------------------------------------------------------------------------------




--------------------------------------- Iteration      1(   9)  ---------------------------------------


    POTLOK:  cpu time    0.1836: real time    0.1861
    SETDIJ:  cpu time    0.0117: real time    0.0117
     EDDAV:  cpu time   14.5117: real time   14.6316
 BZINTS: Fermi energy: -4.525131;270.000000 electrons
         Band energy:***********;  BLOECHL correction:  0.000000
       DOS:  cpu time    0.0035: real time    0.0036
    CHARGE:  cpu time    0.2418: real time    0.2437
    MIXING:  cpu time    0.0055: real time    0.0056
    --------------------------------------------
      LOOP:  cpu time   14.9578: real time   15.0823

 eigenvalue-minimisations  :  4824
 total energy-change (2. order) :-0.1129666E+00  (-0.2495299E+01)
 number of electron     270.0000013 magnetization       0.0000000
 augmentation part       14.8299633 magnetization      -0.0011758

 Broyden mixing:
  rms(total) = 0.73670E+00    rms(broyden)= 0.73624E+00
  rms(prec ) = 0.91128E+00
  weight for this iteration     100.00

 eigenvalues of (default mixing * dielectric matrix)
  average eigenvalue GAMMA=   1.3061
  3.2533  0.9959  0.4876  0.4876

 Free energy of the ion-electron system (eV)
  ---------------------------------------------------
  alpha Z        PSCENC =        87.80935103
  Ewald energy   TEWEN  =     23206.21574047
  -Hartree energ DENC   =    -35201.44359749
  -exchange      EXHF   =         0.00000000
  -V(xc)+E(xc)   XCENC  =       984.99574453
  PAW double counting   =     15840.97322409   -16330.14974474
  entropy T*S    EENTRO =         0.00000000
  eigenvalues    EBANDS =     -3590.20887225
  atomic energy  EATOM  =     14592.26033195
  Solvation  Ediel_sol  =         0.00000000
  ---------------------------------------------------
  free energy    TOTEN  =      -409.54782242 eV

  energy without entropy =     -409.54782242  energy(sigma->0) =     -409.54782242


--------------------------------------------------------------------------------------------------------




--------------------------------------- Iteration      1(  10)  ---------------------------------------


    POTLOK:  cpu time    0.1954: real time    0.1982
    SETDIJ:  cpu time    0.0117: real time    0.0117
     EDDAV:  cpu time   14.7588: real time   14.9182
 BZINTS: Fermi energy: -4.075019;270.000000 electrons
         Band energy:***********;  BLOECHL correction:  0.000000
       DOS:  cpu time    0.0035: real time    0.0035
    CHARGE:  cpu time    0.2011: real time    0.2018
    MIXING:  cpu time    0.0056: real time    0.0057
    --------------------------------------------
      LOOP:  cpu time   15.1760: real time   15.3391

 eigenvalue-minimisations  :  4856
 total energy-change (2. order) : 0.1117791E+01  (-0.3579526E+00)
 number of electron     270.0000011 magnetization       0.0000000
 augmentation part       14.8218676 magnetization      -0.0007488

 Broyden mixing:
  rms(total) = 0.34946E+00    rms(broyden)= 0.34845E+00
  rms(prec ) = 0.46331E+00
  weight for this iteration     100.00

 eigenvalues of (default mixing * dielectric matrix)
  average eigenvalue GAMMA=   1.2286
  3.5920  0.9862  0.6803  0.4421  0.4421

 Free energy of the ion-electron system (eV)
  ---------------------------------------------------
  alpha Z        PSCENC =        87.80935103
  Ewald energy   TEWEN  =     23206.21574047
  -Hartree energ DENC   =    -35225.29212442
  -exchange      EXHF   =         0.00000000
  -V(xc)+E(xc)   XCENC  =       986.50545424
  PAW double counting   =     17082.54589181   -17572.06749463
  entropy T*S    EENTRO =         0.00000000
  eigenvalues    EBANDS =     -3566.40718146
  atomic energy  EATOM  =     14592.26033195
  Solvation  Ediel_sol  =         0.00000000
  ---------------------------------------------------
  free energy    TOTEN  =      -408.43003102 eV

  energy without entropy =     -408.43003102  energy(sigma->0) =     -408.43003102


--------------------------------------------------------------------------------------------------------




--------------------------------------- Iteration      1(  11)  ---------------------------------------


    POTLOK:  cpu time    0.2094: real time    0.2130
    SETDIJ:  cpu time    0.0090: real time    0.0090
     EDDAV:  cpu time   14.0764: real time   14.2049
 BZINTS: Fermi energy: -4.111278;270.000000 electrons
         Band energy:***********;  BLOECHL correction:  0.000000
       DOS:  cpu time    0.0038: real time    0.0038
    CHARGE:  cpu time    0.2006: real time    0.2058
    MIXING:  cpu time    0.0315: real time    0.0326
    --------------------------------------------
      LOOP:  cpu time   14.5307: real time   14.6692

 eigenvalue-minimisations  :  4552
 total energy-change (2. order) : 0.1615309E+00  (-0.1721227E+00)
 number of electron     270.0000012 magnetization       0.0000000
 augmentation part       14.8018194 magnetization      -0.0004066

 Broyden mixing:
  rms(total) = 0.27074E+00    rms(broyden)= 0.27022E+00
  rms(prec ) = 0.36612E+00
  weight for this iteration     100.00

 eigenvalues of (default mixing * dielectric matrix)
  average eigenvalue GAMMA=   1.1280
  3.5994  0.9595  0.7088  0.7088  0.3957  0.3957

 Free energy of the ion-electron system (eV)
  ---------------------------------------------------
  alpha Z        PSCENC =        87.80935103
  Ewald energy   TEWEN  =     23206.21574047
  -Hartree energ DENC   =    -35234.34584336
  -exchange      EXHF   =         0.00000000
  -V(xc)+E(xc)   XCENC  =       987.01359976
  PAW double counting   =     17529.15324374   -18018.28871878
  entropy T*S    EENTRO =         0.00000000
  eigenvalues    EBANDS =     -3558.08620491
  atomic energy  EATOM  =     14592.26033195
  Solvation  Ediel_sol  =         0.00000000
  ---------------------------------------------------
  free energy    TOTEN  =      -408.26850010 eV

  energy without entropy =     -408.26850010  energy(sigma->0) =     -408.26850010


--------------------------------------------------------------------------------------------------------




--------------------------------------- Iteration      1(  12)  ---------------------------------------


    POTLOK:  cpu time    0.1928: real time    0.1950
    SETDIJ:  cpu time    0.0088: real time    0.0089
     EDDAV:  cpu time   13.0236: real time   13.1510
 BZINTS: Fermi energy: -4.066267;270.000000 electrons
         Band energy:***********;  BLOECHL correction:  0.000000
       DOS:  cpu time    0.0037: real time    0.0037
    CHARGE:  cpu time    0.2368: real time    0.2388
    MIXING:  cpu time    0.0059: real time    0.0060
    --------------------------------------------
      LOOP:  cpu time   13.4717: real time   13.6035

 eigenvalue-minimisations  :  4136
 total energy-change (2. order) : 0.1346169E+00  (-0.1171041E+00)
 number of electron     270.0000012 magnetization       0.0000000
 augmentation part       14.7481449 magnetization      -0.0005359

 Broyden mixing:
  rms(total) = 0.12368E+00    rms(broyden)= 0.12316E+00
  rms(prec ) = 0.14316E+00
  weight for this iteration     100.00

 eigenvalues of (default mixing * dielectric matrix)
  average eigenvalue GAMMA=   1.0861
  3.5473  1.0166  1.0166  0.6217  0.6217  0.3895  0.3895

 Free energy of the ion-electron system (eV)
  ---------------------------------------------------
  alpha Z        PSCENC =        87.80935103
  Ewald energy   TEWEN  =     23206.21574047
  -Hartree energ DENC   =    -35234.90005542
  -exchange      EXHF   =         0.00000000
  -V(xc)+E(xc)   XCENC  =       987.06821193
  PAW double counting   =     17593.97907453   -18082.68551762
  entropy T*S    EENTRO =         0.00000000
  eigenvalues    EBANDS =     -3557.88102009
  atomic energy  EATOM  =     14592.26033195
  Solvation  Ediel_sol  =         0.00000000
  ---------------------------------------------------
  free energy    TOTEN  =      -408.13388323 eV

  energy without entropy =     -408.13388323  energy(sigma->0) =     -408.13388323


--------------------------------------------------------------------------------------------------------




--------------------------------------- Iteration      1(  13)  ---------------------------------------


    POTLOK:  cpu time    0.1951: real time    0.1977
    SETDIJ:  cpu time    0.0097: real time    0.0098
     EDDAV:  cpu time   13.6276: real time   13.7436
 BZINTS: Fermi energy: -4.075019;270.000000 electrons
         Band energy:***********;  BLOECHL correction:  0.000000
       DOS:  cpu time    0.0035: real time    0.0035
    CHARGE:  cpu time    0.1992: real time    0.2012
    MIXING:  cpu time    0.0054: real time    0.0054
    --------------------------------------------
      LOOP:  cpu time   14.0406: real time   14.1612

 eigenvalue-minimisations  :  4384
 total energy-change (2. order) : 0.8692926E-02  (-0.1658243E-01)
 number of electron     270.0000012 magnetization       0.0000000
 augmentation part       14.7333510 magnetization      -0.0003840

 Broyden mixing:
  rms(total) = 0.84783E-01    rms(broyden)= 0.84752E-01
  rms(prec ) = 0.92263E-01
  weight for this iteration     100.00

 eigenvalues of (default mixing * dielectric matrix)
  average eigenvalue GAMMA=   1.1041
  3.4586  1.6426  0.9862  0.6549  0.6549  0.6651  0.3850  0.3850

 Free energy of the ion-electron system (eV)
  ---------------------------------------------------
  alpha Z        PSCENC =        87.80935103
  Ewald energy   TEWEN  =     23206.21574047
  -Hartree energ DENC   =    -35231.93979780
  -exchange      EXHF   =         0.00000000
  -V(xc)+E(xc)   XCENC  =       986.94044135
  PAW double counting   =     17606.96575703   -18095.52976241
  entropy T*S    EENTRO =         0.00000000
  eigenvalues    EBANDS =     -3560.84725192
  atomic energy  EATOM  =     14592.26033195
  Solvation  Ediel_sol  =         0.00000000
  ---------------------------------------------------
  free energy    TOTEN  =      -408.12519030 eV

  energy without entropy =     -408.12519030  energy(sigma->0) =     -408.12519030


--------------------------------------------------------------------------------------------------------




--------------------------------------- Iteration      1(  14)  ---------------------------------------


    POTLOK:  cpu time    0.1853: real time    0.1879
    SETDIJ:  cpu time    0.0087: real time    0.0087
     EDDAV:  cpu time   13.1586: real time   13.2882
 BZINTS: Fermi energy: -4.086272;270.000000 electrons
         Band energy:***********;  BLOECHL correction:  0.000000
       DOS:  cpu time    0.0038: real time    0.0039
    CHARGE:  cpu time    0.1996: real time    0.2010
    MIXING:  cpu time    0.0063: real time    0.0064
    --------------------------------------------
      LOOP:  cpu time   13.5623: real time   13.6961

 eigenvalue-minimisations  :  4192
 total energy-change (2. order) : 0.4345677E-02  (-0.5975206E-02)
 number of electron     270.0000012 magnetization       0.0000000
 augmentation part       14.7371544 magnetization      -0.0005022

 Broyden mixing:
  rms(total) = 0.59168E-01    rms(broyden)= 0.59127E-01
  rms(prec ) = 0.68012E-01
  weight for this iteration     100.00

 eigenvalues of (default mixing * dielectric matrix)
  average eigenvalue GAMMA=   1.1810
  3.5142  2.4604  0.9075  0.9075  0.8096  0.6324  0.6324  0.3824  0.3824

 Free energy of the ion-electron system (eV)
  ---------------------------------------------------
  alpha Z        PSCENC =        87.80935103
  Ewald energy   TEWEN  =     23206.21574047
  -Hartree energ DENC   =    -35228.50168651
  -exchange      EXHF   =         0.00000000
  -V(xc)+E(xc)   XCENC  =       986.77892520
  PAW double counting   =     17625.19582520   -18113.63885140
  entropy T*S    EENTRO =         0.00000000
  eigenvalues    EBANDS =     -3564.24048056
  atomic energy  EATOM  =     14592.26033195
  Solvation  Ediel_sol  =         0.00000000
  ---------------------------------------------------
  free energy    TOTEN  =      -408.12084462 eV

  energy without entropy =     -408.12084462  energy(sigma->0) =     -408.12084462


--------------------------------------------------------------------------------------------------------




--------------------------------------- Iteration      1(  15)  ---------------------------------------


    POTLOK:  cpu time    0.2190: real time    0.2222
    SETDIJ:  cpu time    0.0090: real time    0.0090
     EDDAV:  cpu time   13.8462: real time   13.9344
 BZINTS: Fermi energy: -4.096274;270.000000 electrons
         Band energy:***********;  BLOECHL correction:  0.000000
       DOS:  cpu time    0.0040: real time    0.0040
    CHARGE:  cpu time    0.2014: real time    0.2028
    MIXING:  cpu time    0.0059: real time    0.0059
    --------------------------------------------
      LOOP:  cpu time   14.2854: real time   14.3783

 eigenvalue-minimisations  :  4536
 total energy-change (2. order) :-0.2622111E-02  (-0.9532985E-02)
 number of electron     270.0000012 magnetization       0.0000000
 augmentation part       14.7437189 magnetization      -0.0003079

 Broyden mixing:
  rms(total) = 0.65887E-01    rms(broyden)= 0.65748E-01
  rms(prec ) = 0.87019E-01
  weight for this iteration     100.00

 eigenvalues of (default mixing * dielectric matrix)
  average eigenvalue GAMMA=   1.1954
  3.6032  2.8733  1.0235  1.0235  0.7093  0.7093  0.6220  0.6220  0.3838  0.3838

 Free energy of the ion-electron system (eV)
  ---------------------------------------------------
  alpha Z        PSCENC =        87.80935103
  Ewald energy   TEWEN  =     23206.21574047
  -Hartree energ DENC   =    -35226.68396354
  -exchange      EXHF   =         0.00000000
  -V(xc)+E(xc)   XCENC  =       986.68192863
  PAW double counting   =     17684.57124667   -18172.97784395
  entropy T*S    EENTRO =         0.00000000
  eigenvalues    EBANDS =     -3566.00025799
  atomic energy  EATOM  =     14592.26033195
  Solvation  Ediel_sol  =         0.00000000
  ---------------------------------------------------
  free energy    TOTEN  =      -408.12346673 eV

  energy without entropy =     -408.12346673  energy(sigma->0) =     -408.12346673


--------------------------------------------------------------------------------------------------------




--------------------------------------- Iteration      1(  16)  ---------------------------------------


    POTLOK:  cpu time    0.1859: real time    0.1884
    SETDIJ:  cpu time    0.0086: real time    0.0087
     EDDAV:  cpu time   13.8452: real time   14.0046
 BZINTS: Fermi energy: -4.091273;270.000000 electrons
         Band energy:***********;  BLOECHL correction:  0.000000
       DOS:  cpu time    0.0037: real time    0.0037
    CHARGE:  cpu time    0.2026: real time    0.2049
    MIXING:  cpu time    0.0061: real time    0.0062
    --------------------------------------------
      LOOP:  cpu time   14.2521: real time   14.4165

 eigenvalue-minimisations  :  4392
 total energy-change (2. order) : 0.3968635E-02  (-0.8762873E-02)
 number of electron     270.0000012 magnetization       0.0000000
 augmentation part       14.7416136 magnetization      -0.0018058

 Broyden mixing:
  rms(total) = 0.32380E-01    rms(broyden)= 0.32173E-01
  rms(prec ) = 0.41204E-01
  weight for this iteration     100.00

 eigenvalues of (default mixing * dielectric matrix)
  average eigenvalue GAMMA=   1.1247
  3.6334  2.8668  1.0182  1.0182  0.6598  0.6598  0.7135  0.7135  0.3859  0.3859
  0.3165

 Free energy of the ion-electron system (eV)
  ---------------------------------------------------
  alpha Z        PSCENC =        87.80935103
  Ewald energy   TEWEN  =     23206.21574047
  -Hartree energ DENC   =    -35226.18468490
  -exchange      EXHF   =         0.00000000
  -V(xc)+E(xc)   XCENC  =       986.65753647
  PAW double counting   =     17709.75837130   -18198.10766595
  entropy T*S    EENTRO =         0.00000000
  eigenvalues    EBANDS =     -3566.52847847
  atomic energy  EATOM  =     14592.26033195
  Solvation  Ediel_sol  =         0.00000000
  ---------------------------------------------------
  free energy    TOTEN  =      -408.11949810 eV

  energy without entropy =     -408.11949810  energy(sigma->0) =     -408.11949810


--------------------------------------------------------------------------------------------------------




--------------------------------------- Iteration      1(  17)  ---------------------------------------


    POTLOK:  cpu time    0.1858: real time    0.1887
    SETDIJ:  cpu time    0.0087: real time    0.0088
     EDDAV:  cpu time   12.7443: real time   12.8408
 BZINTS: Fermi energy: -4.091273;270.000000 electrons
         Band energy:***********;  BLOECHL correction:  0.000000
       DOS:  cpu time    0.0043: real time    0.0047
    CHARGE:  cpu time    0.2010: real time    0.2029
    MIXING:  cpu time    0.0071: real time    0.0071
    --------------------------------------------
      LOOP:  cpu time   13.1512: real time   13.2531

 eigenvalue-minimisations  :  4056
 total energy-change (2. order) :-0.7448264E-03  (-0.1237981E-02)
 number of electron     270.0000012 magnetization       0.0000000
 augmentation part       14.7430998 magnetization      -0.0031176

 Broyden mixing:
  rms(total) = 0.28735E-01    rms(broyden)= 0.28700E-01
  rms(prec ) = 0.29587E-01
  weight for this iteration     100.00

 eigenvalues of (default mixing * dielectric matrix)
  average eigenvalue GAMMA=   1.1513
  3.7255  3.0360  0.7138  1.0538  1.0538  1.0291  0.6686  0.6686  0.5473  0.5473
  0.3695  0.4020

 Free energy of the ion-electron system (eV)
  ---------------------------------------------------
  alpha Z        PSCENC =        87.80935103
  Ewald energy   TEWEN  =     23206.21574047
  -Hartree energ DENC   =    -35226.10111157
  -exchange      EXHF   =         0.00000000
  -V(xc)+E(xc)   XCENC  =       986.65832160
  PAW double counting   =     17718.05274060   -18206.41552946
  entropy T*S    EENTRO =         0.00000000
  eigenvalues    EBANDS =     -3566.60008755
  atomic energy  EATOM  =     14592.26033195
  Solvation  Ediel_sol  =         0.00000000
  ---------------------------------------------------
  free energy    TOTEN  =      -408.12024293 eV

  energy without entropy =     -408.12024293  energy(sigma->0) =     -408.12024293


--------------------------------------------------------------------------------------------------------




--------------------------------------- Iteration      1(  18)  ---------------------------------------


    POTLOK:  cpu time    0.1831: real time    0.1859
    SETDIJ:  cpu time    0.0087: real time    0.0088
     EDDAV:  cpu time   12.6870: real time   12.7995
 BZINTS: Fermi energy: -4.091273;270.000000 electrons
         Band energy:***********;  BLOECHL correction:  0.000000
       DOS:  cpu time    0.0039: real time    0.0039
    CHARGE:  cpu time    0.2445: real time    0.2466
    MIXING:  cpu time    0.0073: real time    0.0074
    --------------------------------------------
      LOOP:  cpu time   13.1345: real time   13.2520

 eigenvalue-minimisations  :  3920
 total energy-change (2. order) : 0.1692785E-02  (-0.6240317E-03)
 number of electron     270.0000012 magnetization       0.0000000
 augmentation part       14.7433425 magnetization      -0.0015348

 Broyden mixing:
  rms(total) = 0.18633E-01    rms(broyden)= 0.18611E-01
  rms(prec ) = 0.19342E-01
  weight for this iteration     100.00

 eigenvalues of (default mixing * dielectric matrix)
  average eigenvalue GAMMA=   1.1158
  3.7108  2.8841  0.8591  1.1996  0.9986  0.9986  0.6660  0.6660  0.6654  0.5432
  0.5432  0.3702  0.4003

 Free energy of the ion-electron system (eV)
  ---------------------------------------------------
  alpha Z        PSCENC =        87.80935103
  Ewald energy   TEWEN  =     23206.21574047
  -Hartree energ DENC   =    -35225.93156586
  -exchange      EXHF   =         0.00000000
  -V(xc)+E(xc)   XCENC  =       986.64920773
  PAW double counting   =     17720.62864779   -18208.98945477
  entropy T*S    EENTRO =         0.00000000
  eigenvalues    EBANDS =     -3566.76080848
  atomic energy  EATOM  =     14592.26033195
  Solvation  Ediel_sol  =         0.00000000
  ---------------------------------------------------
  free energy    TOTEN  =      -408.11855014 eV

  energy without entropy =     -408.11855014  energy(sigma->0) =     -408.11855014


--------------------------------------------------------------------------------------------------------




--------------------------------------- Iteration      1(  19)  ---------------------------------------


    POTLOK:  cpu time    0.1740: real time    0.1765
    SETDIJ:  cpu time    0.0086: real time    0.0087
     EDDAV:  cpu time   11.8179: real time   11.9268
 BZINTS: Fermi energy: -4.091273;270.000000 electrons
         Band energy:***********;  BLOECHL correction:  0.000000
       DOS:  cpu time    0.0041: real time    0.0042
    CHARGE:  cpu time    0.1988: real time    0.2012
    MIXING:  cpu time    0.0075: real time    0.0075
    --------------------------------------------
      LOOP:  cpu time   12.2108: real time   12.3249

 eigenvalue-minimisations  :  3640
 total energy-change (2. order) : 0.1299509E-03  (-0.3330090E-03)
 number of electron     270.0000012 magnetization      -0.0000000
 augmentation part       14.7427339 magnetization      -0.0001845

 Broyden mixing:
  rms(total) = 0.11241E-01    rms(broyden)= 0.11184E-01
  rms(prec ) = 0.11833E-01
  weight for this iteration     100.00

 eigenvalues of (default mixing * dielectric matrix)
  average eigenvalue GAMMA=   1.1873
  3.7902  2.5074  2.5074  0.8504  1.0057  1.0057  0.9626  0.6729  0.6729  0.7760
  0.5502  0.5502  0.3699  0.4010

 Free energy of the ion-electron system (eV)
  ---------------------------------------------------
  alpha Z        PSCENC =        87.80935103
  Ewald energy   TEWEN  =     23206.21574047
  -Hartree energ DENC   =    -35226.19062292
  -exchange      EXHF   =         0.00000000
  -V(xc)+E(xc)   XCENC  =       986.66476663
  PAW double counting   =     17717.62436221   -18205.99430911
  entropy T*S    EENTRO =         0.00000000
  eigenvalues    EBANDS =     -3566.50804045
  atomic energy  EATOM  =     14592.26033195
  Solvation  Ediel_sol  =         0.00000000
  ---------------------------------------------------
  free energy    TOTEN  =      -408.11842019 eV

  energy without entropy =     -408.11842019  energy(sigma->0) =     -408.11842019


--------------------------------------------------------------------------------------------------------




--------------------------------------- Iteration      1(  20)  ---------------------------------------


    POTLOK:  cpu time    0.2192: real time    0.2220
    SETDIJ:  cpu time    0.0082: real time    0.0088
     EDDAV:  cpu time   10.3767: real time   10.4685
 BZINTS: Fermi energy: -4.091273;270.000000 electrons
         Band energy:***********;  BLOECHL correction:  0.000000
       DOS:  cpu time    0.0038: real time    0.0038
    CHARGE:  cpu time    0.1997: real time    0.2015
    MIXING:  cpu time    0.0078: real time    0.0078
    --------------------------------------------
      LOOP:  cpu time   10.8154: real time   10.9124

 eigenvalue-minimisations  :  2936
 total energy-change (2. order) :-0.4397435E-03  (-0.9935222E-04)
 number of electron     270.0000012 magnetization      -0.0000000
 augmentation part       14.7419470 magnetization       0.0003224

 Broyden mixing:
  rms(total) = 0.72978E-02    rms(broyden)= 0.72771E-02
  rms(prec ) = 0.88165E-02
  weight for this iteration     100.00

 eigenvalues of (default mixing * dielectric matrix)
  average eigenvalue GAMMA=   1.2655
  3.9198  3.4062  2.7738  0.8608  1.0502  1.0502  1.0088  1.0088  0.6727  0.6727
  0.6622  0.5627  0.5627  0.3698  0.4012

 Free energy of the ion-electron system (eV)
  ---------------------------------------------------
  alpha Z        PSCENC =        87.80935103
  Ewald energy   TEWEN  =     23206.21574047
  -Hartree energ DENC   =    -35226.61357893
  -exchange      EXHF   =         0.00000000
  -V(xc)+E(xc)   XCENC  =       986.69202562
  PAW double counting   =     17713.90197019   -18202.27790089
  entropy T*S    EENTRO =         0.00000000
  eigenvalues    EBANDS =     -3566.10679938
  atomic energy  EATOM  =     14592.26033195
  Solvation  Ediel_sol  =         0.00000000
  ---------------------------------------------------
  free energy    TOTEN  =      -408.11885993 eV

  energy without entropy =     -408.11885993  energy(sigma->0) =     -408.11885993


--------------------------------------------------------------------------------------------------------




--------------------------------------- Iteration      1(  21)  ---------------------------------------


    POTLOK:  cpu time    0.1970: real time    0.1994
    SETDIJ:  cpu time    0.0086: real time    0.0087
     EDDAV:  cpu time    8.5317: real time    8.6222
 BZINTS: Fermi energy: -4.091273;270.000000 electrons
         Band energy:***********;  BLOECHL correction:  0.000000
       DOS:  cpu time    0.0040: real time    0.0040
    --------------------------------------------
      LOOP:  cpu time    8.7413: real time    8.8343

 eigenvalue-minimisations  :  2200
 total energy-change (2. order) :-0.3151063E-04  (-0.7758516E-04)
 number of electron     270.0000012 magnetization      -0.0000000
 augmentation part       14.7419470 magnetization       0.0003224

 Free energy of the ion-electron system (eV)
  ---------------------------------------------------
  alpha Z        PSCENC =        87.80935103
  Ewald energy   TEWEN  =     23206.21574047
  -Hartree energ DENC   =    -35226.60890216
  -exchange      EXHF   =         0.00000000
  -V(xc)+E(xc)   XCENC  =       986.69573397
  PAW double counting   =     17708.83519402   -18197.20093333
  entropy T*S    EENTRO =         0.00000000
  eigenvalues    EBANDS =     -3566.12540738
  atomic energy  EATOM  =     14592.26033195
  Solvation  Ediel_sol  =         0.00000000
  ---------------------------------------------------
  free energy    TOTEN  =      -408.11889144 eV

  energy without entropy =     -408.11889144  energy(sigma->0) =     -408.11889144


--------------------------------------------------------------------------------------------------------




 average (electrostatic) potential at core
  the test charge radii are     0.6991  0.7089  0.9911
  (the norm of the test charge is              1.0000)
       1 -62.3902       2 -62.6283       3 -62.5837       4 -62.1945       5 -62.2510
       6 -62.2223       7 -62.4611       8 -62.3912       9 -62.3178      10 -62.5544
      11 -62.2540      12 -62.5248      13 -62.3352      14 -62.1973      15 -62.1476
      16 -62.1963      17 -62.1711      18 -62.1875      19 -62.5038      20 -62.3096
      21 -62.3704      22 -62.2161      23 -62.2664      24 -62.2075      25 -75.8191
      26 -74.0460      27 -73.9898      28 -74.2374      29 -74.3617      30 -74.0030
      31 -74.0395      32 -75.3566      33 -75.6073      34 -74.2137      35 -74.8000
      36 -74.0219      37 -74.0298      38 -74.2511      39 -74.7485      40 -75.3825
      41 -75.6489      42 -74.0575      43 -73.9864      44 -74.3047      45 -74.1812
      46 -74.0253      47 -74.0154      48 -75.2572      49 -75.6795      50 -74.1596
      51 -74.0290      52 -74.0616      53 -74.0229      54 -74.1513      55 -74.1153
      56 -75.4351      57 -84.9850
 
 
 
 E-fermi :  -4.0913     XC(G=0):  -2.2706     alpha+bet : -1.3699


 spin component 1

 k-point     1 :       0.0000    0.0000    0.0000
  band No.  band energies     occupation 
      1     -30.3007      1.00000
      2     -30.2962      1.00000
      3     -30.2447      1.00000
      4     -30.2194      1.00000
      5     -30.2080      1.00000
      6     -23.2218      1.00000
      7     -23.0986      1.00000
      8     -22.9838      1.00000
      9     -22.9167      1.00000
     10     -22.5514      1.00000
     11     -22.4926      1.00000
     12     -22.4640      1.00000
     13     -21.8712      1.00000
     14     -21.7271      1.00000
     15     -21.7021      1.00000
     16     -21.6348      1.00000
     17     -21.6172      1.00000
     18     -21.5570      1.00000
     19     -21.1289      1.00000
     20     -21.0730      1.00000
     21     -21.0341      1.00000
     22     -20.5698      1.00000
     23     -20.5353      1.00000
     24     -20.4682      1.00000
     25     -20.4390      1.00000
     26     -20.3909      1.00000
     27     -20.3652      1.00000
     28     -20.3240      1.00000
     29     -20.3094      1.00000
     30     -19.9668      1.00000
     31     -19.8702      1.00000
     32     -19.8340      1.00000
     33     -19.7995      1.00000
     34     -19.6015      1.00000
     35     -19.5421      1.00000
     36     -19.4257      1.00000
     37     -19.3480      1.00000
     38     -16.3570      1.00000
     39     -16.3001      1.00000
     40     -16.1943      1.00000
     41     -15.9380      1.00000
     42     -15.8743      1.00000
     43     -15.8400      1.00000
     44     -15.7243      1.00000
     45     -15.5752      1.00000
     46     -15.1441      1.00000
     47     -15.0759      1.00000
     48     -14.9738      1.00000
     49     -14.8186      1.00000
     50     -14.0770      1.00000
     51     -14.0539      1.00000
     52     -13.7351      1.00000
     53     -13.6004      1.00000
     54     -13.5045      1.00000
     55     -13.0824      1.00000
     56     -12.5038      1.00000
     57     -12.4551      1.00000
     58     -12.2850      1.00000
     59     -12.2453      1.00000
     60     -12.1896      1.00000
     61     -12.0060      1.00000
     62     -11.9806      1.00000
     63     -11.9678      1.00000
     64     -11.9275      1.00000
     65     -11.9094      1.00000
     66     -11.8765      1.00000
     67     -11.5275      1.00000
     68     -11.4450      1.00000
     69     -11.3644      1.00000
     70     -11.3183      1.00000
     71     -11.2703      1.00000
     72     -11.2111      1.00000
     73     -10.9411      1.00000
     74     -10.4512      1.00000
     75     -10.3456      1.00000
     76     -10.2245      1.00000
     77     -10.1845      1.00000
     78      -9.9989      1.00000
     79      -9.8965      1.00000
     80      -9.7813      1.00000
     81      -9.6549      1.00000
     82      -9.6201      1.00000
     83      -9.1888      1.00000
     84      -9.1115      1.00000
     85      -9.0040      1.00000
     86      -8.9324      1.00000
     87      -8.8902      1.00000
     88      -8.7657      1.00000
     89      -8.6696      1.00000
     90      -8.5183      1.00000
     91      -8.4427      1.00000
     92      -8.4357      1.00000
     93      -8.4263      1.00000
     94      -8.3866      1.00000
     95      -8.3472      1.00000
     96      -8.3023      1.00000
     97      -8.1726      1.00000
     98      -8.1365      1.00000
     99      -8.0148      1.00000
    100      -7.9529      1.00000
    101      -7.9094      1.00000
    102      -7.8628      1.00000
    103      -7.8469      1.00000
    104      -7.6510      1.00000
[...]
   -.139E+02 0.223E+02 0.856E+02   0.851E+01 -.213E+02 -.856E+02   0.278E+01 -.639E+00 0.155E+00   0.281E-01 -.172E-03 -.475E-02
   0.478E+02 -.383E+02 -.593E+02   -.485E+02 0.389E+02 0.590E+02   0.161E+01 -.882E+00 -.317E+00   -.728E-02 -.255E-02 0.504E-02
   -.888E+01 0.370E+02 0.136E+03   0.966E+01 -.379E+02 -.136E+03   -.491E+00 0.125E+01 0.134E+01   -.652E-02 0.975E-02 0.117E-01
   -.445E+02 -.127E+02 0.656E+02   0.453E+02 0.133E+02 -.656E+02   -.175E+01 -.720E+00 0.612E+00   0.819E-04 0.440E-02 0.126E-02
   0.268E+02 -.232E+02 -.245E+02   -.275E+02 0.179E+02 0.228E+02   0.391E+00 0.328E+01 0.599E+00   0.177E-02 0.126E-01 0.262E-02
   0.216E+02 -.785E+01 -.336E+02   -.161E+02 0.112E+02 0.330E+02   -.341E+01 -.173E+01 0.285E+00   -.536E-02 -.473E-02 0.524E-02
   -.951E+01 0.222E+01 -.408E+02   0.410E+01 0.109E+01 0.403E+02   0.337E+01 -.166E+01 -.153E-01   -.387E-03 -.653E-03 0.282E-02
   -.153E+02 0.126E+02 -.488E+02   0.156E+02 -.110E+02 0.495E+02   0.964E+00 -.146E+01 -.141E+01   0.425E-02 -.102E-01 -.710E-02
   -.236E+01 0.160E+02 0.329E+02   0.231E+01 -.170E+02 -.318E+02   -.485E-01 0.233E+01 -.200E+00   0.272E-02 -.120E-01 0.583E-02
   0.208E+02 0.117E+02 -.449E+02   -.208E+02 -.984E+01 0.446E+02   -.104E+01 -.162E+01 -.119E+01   0.170E-01 0.114E-01 0.104E-01
   -.276E+01 -.154E+02 -.792E+01   0.276E+01 0.972E+01 0.100E+02   -.119E+00 0.365E+01 -.107E+01   -.116E-01 0.215E-02 -.165E-03
   0.297E+02 0.219E+02 0.130E+03   -.249E+02 -.190E+02 -.130E+03   -.279E+01 -.181E+01 0.764E+00   -.174E-01 -.321E-02 0.631E-02
   -.127E+02 0.179E+02 0.600E+02   0.766E+01 -.149E+02 -.586E+02   0.303E+01 -.138E+01 -.787E+00   -.287E-01 0.877E-02 0.402E-02
   0.461E+02 -.119E+02 0.452E+02   -.470E+02 0.125E+02 -.450E+02   0.184E+01 -.677E+00 0.338E+00   0.807E-03 -.341E-02 0.209E-02
   0.879E+00 0.521E+02 0.146E+03   -.163E+01 -.531E+02 -.146E+03   0.162E+00 0.156E+01 0.118E+01   0.120E-01 -.676E-02 -.463E-02
   -.458E+02 -.406E+02 -.671E+02   0.465E+02 0.411E+02 0.671E+02   -.172E+01 -.962E+00 -.473E+00   0.640E-02 -.821E-02 0.656E-02
   -.222E+02 -.227E+02 -.967E+02   0.227E+02 0.175E+02 0.954E+02   0.168E-01 0.294E+01 0.917E-01   0.241E-02 -.507E-02 -.262E-03
   0.118E+02 0.112E+01 -.752E+02   -.642E+01 0.209E+01 0.738E+02   -.312E+01 -.155E+01 0.152E+00   -.376E-02 -.975E-02 0.267E-02
   -.234E+02 -.490E+01 -.617E+02   0.181E+02 0.830E+01 0.600E+02   0.308E+01 -.172E+01 0.760E+00   0.994E-02 -.132E-01 0.578E-02
   0.495E+02 -.495E+02 0.942E+02   -.510E+02 0.495E+02 -.937E+02   0.163E+01 -.124E+01 0.286E-01   -.146E-02 0.214E-01 0.778E-03
   -.734E+01 0.305E+02 -.129E+03   0.728E+01 -.319E+02 0.129E+03   0.156E-01 0.215E+01 -.127E+01   -.381E-02 -.310E-02 0.140E-02
   -.580E+02 -.182E+02 -.414E+02   0.593E+02 0.183E+02 0.417E+02   -.184E+01 -.429E+00 -.631E+00   -.155E-01 -.875E-02 -.320E-02
   -.996E+01 0.250E+02 0.115E+03   0.100E+02 -.256E+02 -.116E+03   -.272E+00 0.136E+00 0.172E+01   0.397E-01 0.853E-02 -.147E-02
   -.132E+03 -.211E+02 0.152E+03   0.157E+03 0.349E+02 -.162E+03   -.285E+02 -.159E+02 0.113E+02   0.701E-02 0.115E-01 0.413E-02
   0.106E+03 -.104E+03 -.161E+03   -.131E+03 0.117E+03 0.170E+03   0.285E+02 -.150E+02 -.112E+02   -.108E-01 0.131E-02 0.386E-02
   0.377E+01 0.116E+03 0.267E+03   -.168E+01 -.140E+03 -.286E+03   -.267E+01 0.267E+02 0.215E+02   -.206E-01 0.247E-01 0.227E-01
   -.259E+02 0.941E+02 0.282E+03   0.231E+02 -.116E+03 -.303E+03   0.267E+01 0.243E+02 0.237E+02   0.122E-01 0.173E-01 0.230E-01
   0.131E+03 -.665E+02 -.769E+02   -.156E+03 0.831E+02 0.768E+02   0.278E+02 -.195E+02 -.545E+00   -.261E-01 0.864E-02 0.334E-03
   -.991E+02 -.554E+02 0.171E+03   0.123E+03 0.625E+02 -.187E+03   -.276E+02 -.821E+01 0.187E+02   -.346E-02 0.551E-02 0.285E-02
   -.317E+01 -.965E+00 -.163E+02   0.325E+01 0.119E+01 0.172E+02   -.160E+00 -.121E+00 -.109E+01   -.184E-03 -.225E-03 0.133E-02
   0.104E+02 -.155E+02 -.644E+02   -.108E+02 0.157E+02 0.690E+02   0.129E+00 -.377E+00 -.512E+01   -.349E-02 0.248E-02 0.597E-02
   -.758E+00 -.420E+02 -.206E+03   0.181E+02 0.519E+02 0.224E+03   -.194E+02 -.116E+02 -.219E+02   0.193E-01 0.535E-02 0.271E-02
   0.504E+01 0.467E+02 -.503E+02   -.210E+02 -.430E+02 0.595E+02   0.188E+02 -.393E+01 -.105E+02   0.114E-01 0.172E-02 0.517E-03
   -.104E+02 0.763E+02 0.834E+02   0.132E+02 -.104E+03 -.917E+02   -.321E+01 0.316E+02 0.991E+01   0.517E-02 -.216E-01 0.102E-01
   -.737E+00 0.742E+02 0.932E+02   -.114E+01 -.102E+03 -.102E+03   0.225E+01 0.315E+02 0.100E+02   0.693E-02 -.147E-01 0.106E-01
   0.275E+02 -.409E+02 -.226E+03   -.483E+02 0.513E+02 0.240E+03   0.233E+02 -.122E+02 -.172E+02   -.313E-02 -.116E-01 -.129E-01
   -.864E+00 0.531E+02 -.716E+02   0.153E+02 -.499E+02 0.837E+02   -.170E+02 -.320E+01 -.142E+02   0.259E-01 0.182E-01 0.119E-01
   0.330E+02 0.120E+02 0.519E+02   -.366E+02 -.145E+02 -.510E+02   0.475E+01 0.313E+01 -.474E+00   0.146E-01 0.194E-01 0.133E-01
   0.954E+01 0.260E+02 0.997E+02   -.113E+02 -.279E+02 -.105E+03   0.195E+01 0.209E+01 0.551E+01   -.595E-01 0.470E-02 0.403E-02
   -.129E+03 -.700E+02 -.839E+02   0.154E+03 0.862E+02 0.842E+02   -.283E+02 -.188E+02 -.760E+00   0.122E-01 -.898E-02 0.937E-02
   0.101E+03 -.474E+02 0.133E+03   -.127E+03 0.540E+02 -.146E+03   0.288E+02 -.765E+01 0.165E+02   0.222E-02 -.638E-02 0.493E-02
   0.811E+01 0.109E+03 0.292E+03   -.346E+01 -.132E+03 -.311E+03   -.480E+01 0.250E+02 0.225E+02   0.297E-01 -.160E-01 -.112E-01
   0.164E+01 0.160E+03 0.244E+03   -.308E+01 -.188E+03 -.253E+03   0.219E+01 0.323E+02 0.105E+02   0.167E-01 -.303E-01 -.121E-01
   0.133E+03 -.218E+02 0.928E+02   -.159E+03 0.368E+02 -.971E+02   0.293E+02 -.172E+02 0.530E+01   0.836E-02 -.413E-02 0.470E-02
   -.959E+02 -.107E+03 -.197E+03   0.120E+03 0.120E+03 0.209E+03   -.270E+02 -.148E+02 -.144E+02   0.111E-01 -.912E-02 0.472E-02
   0.578E+00 -.221E+02 -.921E+01   -.467E+00 0.231E+02 0.700E+01   -.109E+00 -.139E+01 0.257E+01   0.268E-03 -.986E-02 0.714E-02
   -.100E+02 -.173E+02 -.126E+03   0.101E+02 0.188E+02 0.133E+03   0.218E+00 -.172E+01 -.697E+01   0.339E-02 -.169E-01 0.661E-02
   -.152E+03 -.429E+02 -.637E+02   0.178E+03 0.587E+02 0.638E+02   -.287E+02 -.179E+02 -.345E+00   -.132E-01 -.121E-01 -.266E-02
   0.120E+03 -.101E+03 0.208E+03   -.145E+03 0.114E+03 -.213E+03   0.298E+02 -.143E+02 0.746E+01   -.265E-01 0.390E-01 0.379E-02
   0.349E+00 0.100E+03 -.260E+03   0.347E+01 -.124E+03 0.278E+03   -.441E+01 0.262E+02 -.217E+02   -.541E-02 0.501E-03 -.309E-04
   -.243E+02 0.770E+02 -.292E+03   0.229E+02 -.983E+02 0.313E+03   0.160E+01 0.238E+02 -.249E+02   -.507E-02 -.818E-02 -.370E-02
   0.128E+03 -.856E+02 0.159E+03   -.148E+03 0.105E+03 -.170E+03   0.226E+02 -.215E+02 0.125E+02   -.297E-02 0.222E-01 0.396E-02
   -.114E+03 -.503E+02 -.125E+03   0.140E+03 0.572E+02 0.137E+03   -.300E+02 -.764E+01 -.141E+02   -.406E-01 0.170E-02 -.497E-02
   -.313E+02 0.145E+02 0.304E+02   0.336E+02 -.160E+02 -.320E+02   -.324E+01 0.218E+01 0.231E+01   -.188E-02 -.109E-01 -.173E-02
   0.319E+02 -.825E+02 -.683E+03   -.324E+02 0.902E+02 0.692E+03   0.597E+00 -.923E+01 -.102E+02   0.767E-01 -.173E-02 -.116E-01
 -----------------------------------------------------------------------------------------------
   0.416E+00 -.867E+01 -.406E+01   0.782E-13 0.227E-12 0.455E-12   -.498E+00 0.868E+01 0.390E+01   0.863E-01 0.244E-02 0.160E+00
 
 
 POSITION                                       TOTAL-FORCE (eV/Angst)
 -----------------------------------------------------------------------------------
     -0.01765      2.92285      7.54842         0.013879     -2.424149      0.878693
      1.44032      5.43697      7.66690         2.602535      0.362917      0.524916
     -1.50437      5.38324      7.56299        -2.605134      0.336400      0.156574
      6.78580      0.78032      8.95078         0.910545     -0.318429     -0.572638
      4.11590      5.43550      7.30170         0.281941      0.408032      1.044879
      1.39936      0.70260      7.94166        -0.864588     -0.160306      0.625928
     -4.24022      9.80291      8.56505        -0.255957     -2.069033     -1.122202
     -2.62495     12.21917      8.87126         2.047558      1.617054     -0.362080
     -5.52577     12.33183      8.81682        -2.044205      1.650713     -0.524791
      2.83890      7.46550      8.88370         1.237707      0.091830     -0.720449
      0.04651     12.11581      8.65477        -0.091108      1.337790      0.831155
     -3.00803      7.46166      8.50788        -1.066171      0.254798     -1.401291
      8.24415      2.93778      8.36687        -0.131980     -2.062198      1.026281
      9.56258      5.20214      7.07792         2.090924      1.031918      0.452470
      6.74998      5.30441      7.70767        -2.058078      1.637222      0.686908
     14.92008      0.51027      8.15439         0.968123     -0.071656      0.517566
     12.20984      5.12249      6.97168        -0.580066      0.583422      0.986235
      9.63768      0.76487      9.06296        -1.017976     -0.473118     -0.515990
      4.20856      9.67656      9.40310         0.515904     -2.315868     -1.150112
      5.57378     12.20488      9.25498         2.273339      1.640718     -1.202073
      2.66594     12.17938      9.22749        -2.241365      1.663386     -0.905055
     10.73067      7.55610      7.44302         0.110308     -1.214330      0.469216
      8.22481     12.22921      9.46356        -0.047560      0.741478     -1.278804
      5.61896      7.51458      8.67053        -0.585629     -0.363165     -0.385345
     -0.01694      4.59183      7.52300        -0.191719     -0.479181      0.320534
      1.37632      2.18436      7.45085        -3.303378     -2.052786      1.727909
      5.47823     -0.05075      9.24219         3.247308     -1.898498     -2.140487
      5.48085      4.74900      6.94523        -0.596654      3.050124      3.137856
      2.68461      4.90082      6.89863        -0.106157      2.502318      3.369837
      6.81653      2.32519      8.72879         3.255912     -2.921511     -0.622995
     -5.47847     13.60202      7.90582        -3.343009     -1.132850      2.885888
      0.01985      0.02524      8.54630        -0.075482      0.099314     -0.185589
     -4.09670     11.42868      8.85459        -0.281086     -0.156889     -0.506381
     -3.08126      8.87475      9.16485        -2.122204     -1.684474     -3.601825
      1.43966      6.70309      8.70045         2.871134     -0.233556     -1.360224
      1.42922     11.35187      8.66810        -0.483249      3.747412      1.615219
     -1.33282     11.37003      8.48491         0.381689      3.775091      1.639299
      2.85876      8.83074      9.64356         2.547996     -1.871955     -3.175063
     -1.63494      6.64258      8.58656        -2.571448     -0.042518     -2.035365
     12.09489      6.62189      7.71699         1.243383      0.624419      0.437373
      8.20499      4.40602      7.59892         0.156947      0.198584      0.597810
      9.64908      2.30377      8.76571        -3.369396     -2.679467     -0.444563
      5.45743     13.42404      8.28093         3.521864     -0.994056      2.662670
     -2.66392      4.80142      6.70480        -0.117340      2.739374      3.357685
     10.86942      4.36947      6.71766         0.770962      4.112889      2.118802
     14.90513      1.99862      7.70182         3.437354     -2.295706      0.996441
     10.88328     -0.07817      9.54881        -2.943361     -1.897386     -2.424416
      8.21511     -0.06004      8.82007         0.001824     -0.367140      0.368353
      4.11918     11.33527      9.45533         0.308746     -0.264708     -0.710489
      5.59657      9.03231      9.07062        -3.653049     -2.109726     -0.240819
      9.45450      6.80491      7.00472         4.086507     -1.135628      2.208681
     -6.70813     11.76804      9.71159        -0.595855      3.025695     -3.110020
      6.85200     11.67113     10.01908         0.175156      2.388951     -3.657127
     -5.46234      9.34551      7.69162         3.068296     -2.357378      1.954258
      6.89172      6.62955      8.56363        -3.973717     -0.726796     -2.127378
      4.16152      6.81114      8.26875        -0.929945      0.612311      0.762716
     -0.15805      8.11742      9.87297         0.119021     -1.459700     -1.878581
 -----------------------------------------------------------------------------------
    total drift:                                0.004288      0.008714      0.002933


--------------------------------------------------------------------------------------------------------



  FREE ENERGIE OF THE ION-ELECTRON SYSTEM (eV)
  ---------------------------------------------------
  free  energy   TOTEN  =      -411.22040033 eV

  energy  without entropy=     -411.22040033  energy(sigma->0) =     -411.22040033
 


--------------------------------------------------------------------------------------------------------


    POTLOK:  cpu time    0.1923: real time    0.1932


--------------------------------------------------------------------------------------------------------


 stress matrix after NEB project (eV)
   -332.79160      5.70114     -8.60514
      5.70114   -302.37197    -15.64902
     -8.60514    -15.64902    -73.16423
  FORCES: max atom, RMS     4.781994    3.135166
  FORCE total and by dimension   23.669981    4.112889
  Stress total and by dimension  456.327678  332.791602
     LOOP+:  cpu time  298.7012: real time  301.5778
    4ORBIT:  cpu time    0.0000: real time    0.0000
 


 total charge     
 
# of ion       s       p       d       tot
------------------------------------------
    1        0.807   1.310   0.000   2.117
    2        0.804   1.298   0.000   2.101
    3        0.804   1.303   0.000   2.107
    4        0.822   1.308   0.000   2.130
    5        0.818   1.307   0.000   2.125
    6        0.822   1.314   0.000   2.136
    7        0.807   1.306   0.000   2.113
    8        0.809   1.302   0.000   2.111
    9        0.811   1.304   0.000   2.115
   10        0.815   1.329   0.000   2.145
   11        0.821   1.311   0.000   2.133
   12        0.815   1.336   0.000   2.151
   13        0.810   1.302   0.000   2.111
   14        0.806   1.311   0.000   2.116
   15        0.804   1.309   0.000   2.113
   16        0.821   1.317   0.000   2.139
   17        0.817   1.315   0.000   2.132
   18        0.821   1.306   0.000   2.127
   19        0.810   1.303   0.000   2.113
   20        0.812   1.302   0.000   2.114
   21        0.811   1.296   0.000   2.107
   22        0.823   1.307   0.000   2.130
   23        0.824   1.299   0.000   2.123
   24        0.820   1.319   0.000   2.138
   25        1.190   2.303   0.000   3.492
   26        1.291   2.223   0.000   3.514
   27        1.288   2.223   0.000   3.512
   28        1.294   2.202   0.000   3.496
   29        1.289   2.216   0.000   3.506
   30        1.290   2.219   0.000   3.509
   31        1.293   2.221   0.000   3.514
   32        1.222   2.316   0.000   3.538
   33        1.191   2.315   0.000   3.506
   34        1.280   2.243   0.000   3.523
   35        1.253   2.256   0.000   3.509
   36        1.290   2.220   0.000   3.510
   37        1.288   2.222   0.000   3.510
   38        1.281   2.235   0.000   3.516
   39        1.253   2.260   0.000   3.513
   40        1.218   2.330   0.000   3.548
   41        1.194   2.301   0.000   3.495
   42        1.292   2.211   0.000   3.503
   43        1.291   2.225   0.000   3.516
   44        1.289   2.217   0.000   3.506
   45        1.293   2.207   0.000   3.500
   46        1.290   2.227   0.000   3.517
   47        1.290   2.217   0.000   3.507
   48        1.221   2.318   0.000   3.538
   49        1.200   2.288   0.000   3.488
   50        1.287   2.228   0.000   3.515
   51        1.291   2.219   0.000   3.509
   52        1.295   2.204   0.000   3.500
   53        1.295   2.207   0.000   3.501
   54        1.290   2.214   0.000   3.503
   55        1.294   2.215   0.000   3.509
   56        1.218   2.325   0.000   3.543
   57        1.367   0.520   9.981  11.869
--------------------------------------------------
tot         61.439 103.759   9.981 175.180
 


 magnetization (x)
 
# of ion       s       p       d       tot
------------------------------------------
    1        0.000   0.000   0.000   0.000
    2        0.000   0.000   0.000   0.001
    3       -0.000  -0.000   0.000  -0.000
    4        0.000   0.000   0.000   0.000
    5        0.000   0.000   0.000   0.001
    6        0.000   0.000   0.000   0.000
    7       -0.000  -0.000   0.000  -0.000
    8       -0.000   0.000   0.000  -0.000
    9        0.000   0.000   0.000   0.000
   10        0.000  -0.000   0.000  -0.000
   11       -0.000   0.000   0.000   0.000
   12        0.000  -0.000   0.000  -0.000
   13        0.000   0.000   0.000   0.000
   14        0.000   0.000   0.000   0.000
   15        0.000   0.001   0.000   0.001
   16        0.000   0.000   0.000   0.000
   17       -0.000  -0.000   0.000  -0.000
   18        0.000   0.000   0.000   0.000
   19        0.000   0.000   0.000   0.001
   20        0.000   0.000   0.000   0.000
   21        0.000   0.000   0.000   0.000
   22        0.000  -0.000   0.000   0.000
   23        0.000   0.000   0.000   0.000
   24        0.000   0.000   0.000   0.000
   25        0.000  -0.000   0.000  -0.000
   26        0.000  -0.000   0.000   0.000
   27        0.000   0.000   0.000   0.000
   28        0.000  -0.000   0.000  -0.000
   29       -0.000  -0.000   0.000  -0.000
   30        0.000   0.000   0.000   0.000
   31        0.000   0.000   0.000   0.000
   32        0.000   0.000   0.000   0.000
   33       -0.000   0.000   0.000   0.000
   34       -0.000   0.000   0.000   0.000
   35        0.000   0.000   0.000   0.000
   36       -0.000   0.000   0.000   0.000
   37       -0.000   0.000   0.000  -0.000
   38        0.000   0.000   0.000   0.000
   39        0.000   0.000   0.000   0.000
   40        0.000   0.000   0.000   0.000
   41        0.000  -0.000   0.000  -0.000
   42        0.000  -0.000   0.000  -0.000
   43        0.000  -0.000   0.000  -0.000
   44        0.000   0.000   0.000   0.000
   45        0.000   0.000   0.000   0.000
   46        0.000   0.000   0.000   0.000
   47        0.000  -0.000   0.000  -0.000
   48        0.000   0.000   0.000   0.000
   49        0.000  -0.000   0.000  -0.000
   50        0.000  -0.000   0.000  -0.000
   51        0.000   0.000   0.000   0.000
   52        0.000   0.000   0.000   0.000
   53        0.000   0.000   0.000   0.000
   54        0.000   0.000   0.000   0.000
   55        0.000  -0.000   0.000  -0.000
   56        0.000   0.001   0.000   0.001
   57       -0.000  -0.003  -0.000  -0.003
--------------------------------------------------
tot          0.000   0.001  -0.000   0.001
 
 BZINTS: Fermi energy: -4.091273;270.000000 electrons
         Band energy:***********;  BLOECHL correction:  0.000000

 total amount of memory used by VASP MPI-rank0   120251. kBytes
=======================================================================

   base      :      30000. kBytes
   nonl-proj :      21270. kBytes
   fftplans  :       5963. kBytes
   grid      :      15985. kBytes
   one-center:        155. kBytes
   wavefun   :      46878. kBytes
 
  
  
 General timing and accounting informations for this job:
 ========================================================
  
                  Total CPU time used (sec):      315.438
                            User time (sec):      306.211
                          System time (sec):        9.227
                         Elapsed time (sec):      325.688
  
                   Maximum memory used (kb):      459340.
                   Average memory used (kb):           0.
  
                          Minor page faults:      1631802
                          Major page faults:            0
                 Voluntary context switches:         8823
