       N       E                     dE             d eps       ncg     rms          rms(c)
DAV:   1     0.253639763928E+04    0.25364E+04   -0.11161E+05  4344   0.106E+03
DAV:   2    -0.237675078616E+03   -0.27741E+04   -0.26472E+04  5512   0.279E+02
DAV:   3    -0.702392751263E+03   -0.46472E+03   -0.46130E+03  4584   0.120E+02
DAV:   4    -0.719205052150E+03   -0.16812E+02   -0.16666E+02  4616   0.282E+01
DAV:   5    -0.719750924371E+03   -0.54587E+00   -0.54410E+00  5224   0.429E+00    0.477E+01
DAV:   6    -0.719611605576E+03    0.13932E+00   -0.89623E+01  4888   0.274E+01    0.745E+01
DAV:   7    -0.673278859051E+03    0.46333E+02   -0.64055E+01  4944   0.535E+01    0.267E+01
DAV:   8    -0.669937577761E+03    0.33413E+01   -0.38323E+01  4864   0.135E+01    0.265E+01
DAV:   9    -0.664697110764E+03    0.52405E+01   -0.25774E+01  4600   0.142E+01    0.212E+01
DAV:  10    -0.662025718762E+03    0.26714E+01   -0.20391E+01  5192   0.137E+01    0.112E+01
DAV:  11    -0.661479833732E+03    0.54589E+00   -0.12456E+00  5320   0.321E+00    0.711E+00
DAV:  12    -0.661804671902E+03   -0.32484E+00   -0.65524E-01  4560   0.182E+00    0.652E+00
DAV:  13    -0.661936893729E+03   -0.13222E+00   -0.34000E-01  5056   0.142E+00    0.444E+00
DAV:  14    -0.661978115144E+03   -0.41221E-01   -0.13413E-01  4664   0.810E-01    0.354E+00
DAV:  15    -0.661955059322E+03    0.23056E-01   -0.64562E-02  4840   0.551E-01    0.252E+00
DAV:  16    -0.661944480188E+03    0.10579E-01   -0.89569E-03  4664   0.235E-01    0.213E+00
DAV:  17    -0.661929362694E+03    0.15117E-01   -0.68206E-03  5272   0.233E-01    0.174E+00
DAV:  18    -0.661914447699E+03    0.14915E-01   -0.93238E-03  5232   0.285E-01    0.119E+00
DAV:  19    -0.661907381951E+03    0.70657E-02   -0.67412E-03  5160   0.224E-01    0.697E-01
DAV:  20    -0.661905523985E+03    0.18580E-02   -0.17542E-03  4480   0.112E-01    0.438E-01
DAV:  21    -0.661904676203E+03    0.84778E-03   -0.15173E-03  3976   0.117E-01    0.194E-01
DAV:  22    -0.661904751968E+03   -0.75765E-04   -0.49921E-04  3680   0.518E-02
   1 F= -.66833014E+03 E0= -.66833014E+03  d E =0.000000E+00  mag=    -1.0246
