       N       E                     dE             d eps       ncg     rms          ort
DAV:   1     0.257121644888E+04    0.25712E+04   -0.10423E+05   688   0.117E+03
DAV:   2     0.497055756613E+02   -0.25215E+04   -0.24219E+04   688   0.285E+02
DAV:   3    -0.490694666615E+03   -0.54040E+03   -0.53615E+03   688   0.146E+02
DAV:   4    -0.513628461407E+03   -0.22934E+02   -0.22335E+02   688   0.408E+01
DAV:   5    -0.514726231742E+03   -0.10978E+01   -0.10865E+01   688   0.741E+00
SDA:   6    -0.443433444833E+03    0.71293E+02   -0.10865E+01   688   0.205E+03 0.000E+00
CGA:   7    -0.479507881360E+03   -0.36074E+02   -0.36183E+02   688   0.304E+02 0.215E+01
CGA:   8    -0.483943598203E+03   -0.44357E+01   -0.45410E+01   688   0.120E+02-0.569E+00
CGA:   9    -0.485945668660E+03   -0.20021E+01   -0.20036E+01   688   0.301E+01-0.166E-01
CGA:  10    -0.486680682286E+03   -0.73501E+00   -0.73521E+00   688   0.994E+00-0.183E-02
CGA:  11    -0.486964927770E+03   -0.28425E+00   -0.28605E+00   688   0.364E+00-0.171E-01
CGA:  12    -0.487054225931E+03   -0.89298E-01   -0.89614E-01   688   0.212E+00-0.450E-02
CGA:  13    -0.487094508093E+03   -0.40282E-01   -0.40281E-01   688   0.914E-01-0.480E-04
CGA:  14    -0.487117019527E+03   -0.22511E-01   -0.22479E-01   688   0.514E-01 0.497E-03
CGA:  15    -0.487128126326E+03   -0.11107E-01   -0.11107E-01   688   0.247E-01-0.420E-04
CGA:  16    -0.487135665851E+03   -0.75395E-02   -0.75467E-02   688   0.107E-01-0.807E-04
CGA:  17    -0.487139387310E+03   -0.37215E-02   -0.37021E-02   688   0.656E-02 0.121E-03
CGA:  18    -0.487141213824E+03   -0.18265E-02   -0.18191E-02   688   0.434E-02 0.849E-04
CGA:  19    -0.487142461949E+03   -0.12481E-02   -0.12475E-02   688   0.308E-02 0.670E-05
CGA:  20    -0.487143313286E+03   -0.85134E-03   -0.84876E-03   688   0.264E-02 0.347E-04
CGA:  21    -0.487144199373E+03   -0.88609E-03   -0.88381E-03   688   0.225E-02 0.170E-04
CGA:  22    -0.487145274278E+03   -0.10749E-02   -0.10979E-02   688   0.266E-02-0.926E-04
CGA:  23    -0.487146466306E+03   -0.11920E-02   -0.12044E-02   688   0.249E-02-0.541E-04
CGA:  24    -0.487147500616E+03   -0.10343E-02   -0.10293E-02   688   0.189E-02 0.287E-04
CGA:  25    -0.487148214024E+03   -0.71341E-03   -0.72076E-03   688   0.137E-02-0.397E-04
CGA:  26    -0.487148703604E+03   -0.48958E-03   -0.48957E-03   688   0.878E-03 0.241E-04
CGA:  27    -0.487149014980E+03   -0.31138E-03   -0.31038E-03   688   0.610E-03 0.376E-04
CGA:  28    -0.487149236730E+03   -0.22175E-03   -0.22052E-03   688   0.399E-03 0.307E-04
CGA:  29    -0.487149395115E+03   -0.15838E-03   -0.15912E-03   688   0.323E-03 0.591E-05
CGA:  30    -0.487149505189E+03   -0.11007E-03   -0.11081E-03   688   0.225E-03-0.641E-05
CGA:  31    -0.487149593241E+03   -0.88052E-04   -0.88514E-04   688   0.165E-03-0.129E-05
   1 F= -.49113561E+03 E0= -.49111283E+03  d E =-.491136E+03  mag=     0.6139
       N       E                     dE             d eps       ncg     rms          ort
SDA:   1    -0.452787397902E+03    0.34362E+02    0.00000E+00   688   0.896E+02 0.000E+00
CGA:   2    -0.478296417346E+03   -0.25509E+02   -0.25557E+02   688   0.299E+02 0.154E+01
CGA:   3    -0.485390376178E+03   -0.70940E+01   -0.71028E+01   688   0.848E+01 0.979E-01
CGA:   4    -0.486972362567E+03   -0.15820E+01   -0.15941E+01   688   0.182E+01 0.244E-01
CGA:   5    -0.487366506297E+03   -0.39414E+00   -0.39484E+00   688   0.389E+00 0.210E-02
CGA:   6    -0.487460308632E+03   -0.93802E-01   -0.93765E-01   688   0.109E+00-0.194E-03
CGA:   7    -0.487492150050E+03   -0.31841E-01   -0.31840E-01   688   0.406E-01 0.109E-03
CGA:   8    -0.487505584814E+03   -0.13435E-01   -0.13430E-01   688   0.175E-01 0.704E-04
CGA:   9    -0.487511451872E+03   -0.58671E-02   -0.58666E-02   688   0.678E-02 0.975E-05
CGA:  10    -0.487513647212E+03   -0.21953E-02   -0.21946E-02   688   0.246E-02 0.186E-04
CGA:  11    -0.487514445917E+03   -0.79870E-03   -0.79852E-03   688   0.101E-02 0.516E-05
CGA:  12    -0.487514775137E+03   -0.32922E-03   -0.32912E-03   688   0.509E-03 0.279E-05
CGA:  13    -0.487514951046E+03   -0.17591E-03   -0.17601E-03   688   0.303E-03-0.261E-05
CGA:  14    -0.487515076678E+03   -0.12563E-03   -0.12585E-03   688   0.231E-03-0.167E-05
CGA:  15    -0.487515186643E+03   -0.10997E-03   -0.10980E-03   688   0.268E-03 0.831E-06
CGA:  16    -0.487515340867E+03   -0.15422E-03   -0.15596E-03   688   0.471E-03-0.606E-05
CGA:  17    -0.487515728412E+03   -0.38755E-03   -0.46028E-03   688   0.189E-02-0.132E-03
CGA:  18    -0.487516032991E+03   -0.30458E-03   -0.25438E-03   688   0.257E-02 0.124E-03
CGA:  19    -0.487516437024E+03   -0.40403E-03   -0.36846E-03   688   0.224E-02 0.163E-03
CGA:  20    -0.487516725195E+03   -0.28817E-03   -0.28411E-03   688   0.198E-02 0.161E-04
CGA:  21    -0.487516944562E+03   -0.21937E-03   -0.22078E-03   688   0.179E-02-0.123E-04
CGA:  22    -0.487517123214E+03   -0.17865E-03   -0.18018E-03   688   0.155E-02-0.101E-04
CGA:  23    -0.487517271891E+03   -0.14868E-03   -0.14958E-03   688   0.138E-02-0.278E-05
CGA:  24    -0.487517402369E+03   -0.13048E-03   -0.13118E-03   688   0.121E-02-0.287E-06
CGA:  25    -0.487517511862E+03   -0.10949E-03   -0.11005E-03   688   0.978E-03 0.490E-06
CGA:  26    -0.487517599539E+03   -0.87677E-04   -0.88055E-04   688   0.811E-03 0.181E-05
   2 F= -.49151256E+03 E0= -.49150352E+03  d E =-.376954E+00  mag=     0.0422
       N       E                     dE             d eps       ncg     rms          ort
SDA:   1    -0.482466281480E+03    0.50512E+01    0.00000E+00   688   0.151E+02 0.000E+00
CGA:   2    -0.486625593398E+03   -0.41593E+01   -0.41637E+01   688   0.517E+01-0.137E+00
CGA:   3    -0.487841628603E+03   -0.12160E+01   -0.12176E+01   688   0.125E+01 0.309E-01
CGA:   4    -0.488089634862E+03   -0.24801E+00   -0.24802E+00   688   0.286E+00 0.135E-03
CGA:   5    -0.488149276463E+03   -0.59642E-01   -0.59620E-01   688   0.620E-01-0.144E-04
CGA:   6    -0.488163826000E+03   -0.14550E-01   -0.14550E-01   688   0.161E-01 0.421E-05
CGA:   7    -0.488168703058E+03   -0.48771E-02   -0.48780E-02   688   0.660E-02-0.137E-04
CGA:   8    -0.488170910964E+03   -0.22079E-02   -0.22074E-02   688   0.330E-02 0.781E-05
CGA:   9    -0.488172060498E+03   -0.11495E-02   -0.11496E-02   688   0.144E-02-0.105E-06
CGA:  10    -0.488172545673E+03   -0.48517E-03   -0.48513E-03   688   0.590E-03 0.738E-06
CGA:  11    -0.488172750344E+03   -0.20467E-03   -0.20520E-03   688   0.286E-03-0.647E-05
CGA:  12    -0.488172854334E+03   -0.10399E-03   -0.10397E-03   688   0.177E-03 0.290E-06
CGA:  13    -0.488172920197E+03   -0.65863E-04   -0.65932E-04   688   0.118E-03-0.708E-06
   3 F= -.49216481E+03 E0= -.49215117E+03  d E =-.102920E+01  mag=     0.1334
       N       E                     dE             d eps       ncg     rms          ort
SDA:   1    -0.473925062681E+03    0.14248E+02    0.00000E+00   688   0.413E+02 0.000E+00
CGA:   2    -0.485131899304E+03   -0.11207E+02   -0.11222E+02   688   0.123E+02 0.439E+00
CGA:   3    -0.488342591743E+03   -0.32107E+01   -0.31884E+01   688   0.278E+01-0.254E+00
CGA:   4    -0.488942642903E+03   -0.60005E+00   -0.59995E+00   688   0.569E+00 0.132E-03
CGA:   5    -0.489068634840E+03   -0.12599E+00   -0.12603E+00   688   0.123E+00 0.222E-03
CGA:   6    -0.489098386938E+03   -0.29752E-01   -0.29753E-01   688   0.411E-01 0.562E-04
CGA:   7    -0.489110309441E+03   -0.11923E-01   -0.11922E-01   688   0.167E-01 0.193E-04
CGA:   8    -0.489116126684E+03   -0.58172E-02   -0.58181E-02   688   0.796E-02-0.102E-04
CGA:   9    -0.489118556225E+03   -0.24295E-02   -0.24293E-02   688   0.335E-02 0.125E-04
CGA:  10    -0.489119455472E+03   -0.89925E-03   -0.89910E-03   688   0.118E-02-0.566E-05
CGA:  11    -0.489119802622E+03   -0.34715E-03   -0.34706E-03   688   0.397E-03 0.595E-05
CGA:  12    -0.489119938666E+03   -0.13604E-03   -0.13624E-03   688   0.173E-03-0.334E-05
CGA:  13    -0.489119995853E+03   -0.57187E-04   -0.57229E-04   688   0.873E-04-0.931E-06
   4 F= -.49311352E+03 E0= -.49310018E+03  d E =-.948709E+00  mag=     0.1264
       N       E                     dE             d eps       ncg     rms          ort
SDA:   1    -0.486305587152E+03    0.28144E+01    0.00000E+00   688   0.796E+01 0.000E+00
CGA:   2    -0.488423941062E+03   -0.21184E+01   -0.21209E+01   688   0.259E+01 0.471E-01
CGA:   3    -0.489046387389E+03   -0.62245E+00   -0.61396E+00   688   0.645E+00-0.420E-01
CGA:   4    -0.489176346068E+03   -0.12996E+00   -0.13017E+00   688   0.137E+00 0.342E-03
CGA:   5    -0.489205506316E+03   -0.29160E-01   -0.29161E-01   688   0.321E-01-0.318E-04
CGA:   6    -0.489212459296E+03   -0.69530E-02   -0.69530E-02   688   0.934E-02 0.274E-04
CGA:   7    -0.489215188563E+03   -0.27293E-02   -0.27291E-02   688   0.352E-02 0.991E-05
CGA:   8    -0.489216429277E+03   -0.12407E-02   -0.12410E-02   688   0.181E-02-0.325E-05
CGA:   9    -0.489216974064E+03   -0.54479E-03   -0.54472E-03   688   0.812E-03 0.352E-05
CGA:  10    -0.489217195709E+03   -0.22165E-03   -0.22161E-03   688   0.289E-03-0.359E-05
CGA:  11    -0.489217277130E+03   -0.81420E-04   -0.81414E-04   688   0.104E-03 0.276E-05
   5 F= -.49321080E+03 E0= -.49319772E+03  d E =-.104599E+01  mag=     0.1183
       N       E                     dE             d eps       ncg     rms          ort
SDA:   1    -0.487014242649E+03    0.22030E+01    0.00000E+00   688   0.666E+01 0.000E+00
CGA:   2    -0.488797042040E+03   -0.17828E+01   -0.17836E+01   688   0.214E+01 0.269E-01
CGA:   3    -0.489345351645E+03   -0.54831E+00   -0.54663E+00   688   0.536E+00-0.235E-01
CGA:   4    -0.489456120035E+03   -0.11077E+00   -0.11103E+00   688   0.108E+00 0.648E-03
CGA:   5    -0.489482884518E+03   -0.26764E-01   -0.26760E-01   688   0.266E-01-0.694E-04
CGA:   6    -0.489490418696E+03   -0.75342E-02   -0.75340E-02   688   0.109E-01 0.220E-04
CGA:   7    -0.489493813402E+03   -0.33947E-02   -0.33953E-02   688   0.562E-02-0.165E-04
CGA:   8    -0.489495590634E+03   -0.17772E-02   -0.17775E-02   688   0.222E-02-0.712E-05
CGA:   9    -0.489496298121E+03   -0.70749E-03   -0.70787E-03   688   0.733E-03-0.953E-05
CGA:  10    -0.489496527006E+03   -0.22889E-03   -0.22892E-03   688   0.283E-03-0.110E-05
CGA:  11    -0.489496611569E+03   -0.84563E-04   -0.84602E-04   688   0.142E-03-0.242E-05
   6 F= -.49348907E+03 E0= -.49347548E+03  d E =-.278276E+00  mag=     0.1279
       N       E                     dE             d eps       ncg     rms          ort
SDA:   1    -0.484883006860E+03    0.46135E+01    0.00000E+00   688   0.127E+02 0.000E+00
CGA:   2    -0.488298601994E+03   -0.34156E+01   -0.34177E+01   688   0.406E+01 0.614E-01
CGA:   3    -0.489348332623E+03   -0.10497E+01   -0.10467E+01   688   0.997E+00-0.436E-01
CGA:   4    -0.489556386939E+03   -0.20805E+00   -0.20833E+00   688   0.205E+00 0.721E-03
CGA:   5    -0.489605967593E+03   -0.49581E-01   -0.49577E-01   688   0.544E-01-0.120E-04
CGA:   6    -0.489620057193E+03   -0.14090E-01   -0.14090E-01   688   0.234E-01-0.379E-05
CGA:   7    -0.489626656487E+03   -0.65993E-02   -0.65991E-02   688   0.116E-01 0.226E-04
CGA:   8    -0.489630229579E+03   -0.35731E-02   -0.35743E-02   688   0.501E-02-0.349E-04
CGA:   9    -0.489631690850E+03   -0.14613E-02   -0.14613E-02   688   0.186E-02-0.401E-05
CGA:  10    -0.489632221363E+03   -0.53051E-03   -0.53056E-03   688   0.693E-03-0.699E-05
CGA:  11    -0.489632429517E+03   -0.20815E-03   -0.20818E-03   688   0.310E-03-0.776E-06
CGA:  12    -0.489632528463E+03   -0.98946E-04   -0.99053E-04   688   0.152E-03-0.247E-05
   7 F= -.49362148E+03 E0= -.49360692E+03  d E =-.410682E+00  mag=     0.1466
       N       E                     dE             d eps       ncg     rms          ort
SDA:   1    -0.487756868692E+03    0.18756E+01    0.00000E+00   688   0.498E+01 0.000E+00
CGA:   2    -0.489251549992E+03   -0.14947E+01   -0.14947E+01   688   0.164E+01-0.906E-03
CGA:   3    -0.489624809634E+03   -0.37326E+00   -0.37316E+00   688   0.449E+00-0.522E-03
CGA:   4    -0.489707263607E+03   -0.82454E-01   -0.82544E-01   688   0.926E-01-0.736E-04
CGA:   5    -0.489727278796E+03   -0.20015E-01   -0.20012E-01   688   0.255E-01 0.289E-04
CGA:   6    -0.489733320558E+03   -0.60418E-02   -0.60393E-02   688   0.820E-02-0.324E-04
CGA:   7    -0.489735705621E+03   -0.23851E-02   -0.23850E-02   688   0.378E-02 0.135E-05
CGA:   8    -0.489736936356E+03   -0.12307E-02   -0.12311E-02   688   0.167E-02-0.583E-05
CGA:   9    -0.489737483117E+03   -0.54676E-03   -0.54698E-03   688   0.658E-03-0.412E-05
CGA:  10    -0.489737673153E+03   -0.19004E-03   -0.19008E-03   688   0.270E-03-0.384E-05
CGA:  11    -0.489737745244E+03   -0.72091E-04   -0.72077E-04   688   0.104E-03-0.120E-05
   8 F= -.49372442E+03 E0= -.49371023E+03  d E =-.102935E+00  mag=     0.1434
       N       E                     dE             d eps       ncg     rms          ort
SDA:   1    -0.489704864238E+03    0.32809E-01    0.00000E+00   688   0.867E-01 0.000E+00
CGA:   2    -0.489731171315E+03   -0.26307E-01   -0.26307E-01   688   0.274E-01-0.752E-05
CGA:   3    -0.489737735293E+03   -0.65640E-02   -0.65636E-02   688   0.668E-02-0.874E-05
CGA:   4    -0.489739047363E+03   -0.13121E-02   -0.13121E-02   688   0.132E-02 0.550E-06
CGA:   5    -0.489739357995E+03   -0.31063E-03   -0.31074E-03   688   0.336E-03 0.257E-05
CGA:   6    -0.489739446336E+03   -0.88341E-04   -0.88316E-04   688   0.125E-03-0.209E-05
   9 F= -.49372578E+03 E0= -.49371168E+03  d E =-.104301E+00  mag=     0.1416
       N       E                     dE             d eps       ncg     rms          ort
SDA:   1    -0.488695895176E+03    0.10435E+01    0.00000E+00   688   0.295E+01 0.000E+00
CGA:   2    -0.489581506657E+03   -0.88561E+00   -0.88556E+00   688   0.914E+00 0.106E-02
CGA:   3    -0.489777576250E+03   -0.19607E+00   -0.19640E+00   688   0.280E+00 0.112E-02
CGA:   4    -0.489827452907E+03   -0.49877E-01   -0.49887E-01   688   0.539E-01-0.778E-04
CGA:   5    -0.489839517303E+03   -0.12064E-01   -0.12063E-01   688   0.134E-01 0.170E-05
CGA:   6    -0.489842923927E+03   -0.34066E-02   -0.34065E-02   688   0.441E-02-0.699E-05
CGA:   7    -0.489844220231E+03   -0.12963E-02   -0.12964E-02   688   0.222E-02-0.614E-05
CGA:   8    -0.489844897678E+03   -0.67745E-03   -0.67720E-03   688   0.103E-02 0.638E-05
CGA:   9    -0.489845228097E+03   -0.33042E-03   -0.33066E-03   688   0.406E-03-0.502E-05
CGA:  10    -0.489845355207E+03   -0.12711E-03   -0.12710E-03   688   0.142E-03 0.341E-06
CGA:  11    -0.489845403406E+03   -0.48198E-04   -0.48210E-04   688   0.624E-04-0.207E-06
  10 F= -.49383153E+03 E0= -.49381835E+03  d E =-.105748E+00  mag=     0.1309
       N       E                     dE             d eps       ncg     rms          ort
SDA:   1    -0.483763611860E+03    0.60817E+01    0.00000E+00   688   0.160E+02 0.000E+00
CGA:   2    -0.488425457587E+03   -0.46618E+01   -0.46614E+01   688   0.563E+01 0.247E-01
CGA:   3    -0.489521876008E+03   -0.10964E+01   -0.10994E+01   688   0.170E+01 0.235E-02
CGA:   4    -0.489843898840E+03   -0.32202E+00   -0.32276E+00   688   0.288E+00 0.223E-03
CGA:   5    -0.489911685577E+03   -0.67787E-01   -0.67779E-01   688   0.713E-01-0.565E-04
CGA:   6    -0.489929651122E+03   -0.17966E-01   -0.17965E-01   688   0.229E-01-0.822E-05
CGA:   7    -0.489936446341E+03   -0.67952E-02   -0.67947E-02   688   0.107E-01 0.426E-05
CGA:   8    -0.489939956254E+03   -0.35099E-02   -0.35089E-02   688   0.487E-02 0.165E-04
CGA:   9    -0.489941578577E+03   -0.16223E-02   -0.16223E-02   688   0.193E-02-0.260E-05
CGA:  10    -0.489942188921E+03   -0.61034E-03   -0.61029E-03   688   0.699E-03 0.750E-06
CGA:  11    -0.489942420299E+03   -0.23138E-03   -0.23126E-03   688   0.322E-03 0.167E-05
CGA:  12    -0.489942528353E+03   -0.10805E-03   -0.10807E-03   688   0.177E-03-0.434E-06
CGA:  13    -0.489942593318E+03   -0.64966E-04   -0.64904E-04   688   0.933E-04 0.590E-06
  11 F= -.49392755E+03 E0= -.49391712E+03  d E =-.201767E+00  mag=     0.0946
       N       E                     dE             d eps       ncg     rms          ort
SDA:   1    -0.489254818376E+03    0.68771E+00    0.00000E+00   688   0.201E+01 0.000E+00
CGA:   2    -0.489845849210E+03   -0.59103E+00   -0.59103E+00   688   0.580E+00 0.364E-03
CGA:   3    -0.489979103287E+03   -0.13325E+00   -0.13333E+00   688   0.169E+00 0.271E-03
CGA:   4    -0.490008884454E+03   -0.29781E-01   -0.29804E-01   688   0.347E-01-0.752E-04
CGA:   5    -0.490016357851E+03   -0.74734E-02   -0.74730E-02   688   0.803E-02 0.134E-04
CGA:   6    -0.490018383622E+03   -0.20258E-02   -0.20257E-02   688   0.243E-02-0.324E-05
CGA:   7    -0.490019098755E+03   -0.71513E-03   -0.71516E-03   688   0.112E-02-0.175E-05
CGA:   8    -0.490019449245E+03   -0.35049E-03   -0.35028E-03   688   0.504E-03 0.658E-05
CGA:   9    -0.490019619569E+03   -0.17032E-03   -0.17045E-03   688   0.190E-03-0.228E-05
CGA:  10    -0.490019682288E+03   -0.62720E-04   -0.62694E-04   688   0.633E-04 0.571E-06
  12 F= -.49400539E+03 E0= -.49399553E+03  d E =-.778382E-01  mag=     0.0857
       N       E                     dE             d eps       ncg     rms          ort
SDA:   1    -0.483293516085E+03    0.67261E+01    0.00000E+00   688   0.184E+02 0.000E+00
CGA:   2    -0.488511842242E+03   -0.52183E+01   -0.52187E+01   688   0.611E+01 0.245E-01
CGA:   3    -0.489745939552E+03   -0.12341E+01   -0.12331E+01   688   0.190E+01-0.367E-03
CGA:   4    -0.490095351184E+03   -0.34941E+00   -0.35065E+00   688   0.324E+00-0.569E-03
CGA:   5    -0.490170745604E+03   -0.75394E-01   -0.75376E-01   688   0.757E-01-0.762E-04
CGA:   6    -0.490189613799E+03   -0.18868E-01   -0.18868E-01   688   0.233E-01-0.492E-05
CGA:   7    -0.490196431146E+03   -0.68173E-02   -0.68172E-02   688   0.101E-01 0.218E-05
CGA:   8    -0.490199791520E+03   -0.33604E-02   -0.33594E-02   688   0.442E-02 0.186E-04
CGA:   9    -0.490201299409E+03   -0.15079E-02   -0.15080E-02   688   0.172E-02-0.150E-05
CGA:  10    -0.490201833737E+03   -0.53433E-03   -0.53431E-03   688   0.638E-03 0.823E-06
CGA:  11    -0.490202009292E+03   -0.17556E-03   -0.17556E-03   688   0.321E-03 0.511E-06
CGA:  12    -0.490202089189E+03   -0.79897E-04   -0.79879E-04   688   0.143E-03-0.505E-06
  13 F= -.49419008E+03 E0= -.49418104E+03  d E =-.262527E+00  mag=     0.0772
       N       E                     dE             d eps       ncg     rms          ort
SDA:   1    -0.462402966262E+03    0.27799E+02    0.00000E+00   688   0.776E+02 0.000E+00
CGA:   2    -0.482183385376E+03   -0.19780E+02   -0.19819E+02   688   0.302E+02 0.515E+00
CGA:   3    -0.488392775838E+03   -0.62094E+01   -0.61667E+01   688   0.724E+01-0.312E-01
CGA:   4    -0.489932462026E+03   -0.15397E+01   -0.15434E+01   688   0.116E+01 0.127E-01
CGA:   5    -0.490215980498E+03   -0.28352E+00   -0.28348E+00   688   0.302E+00-0.319E-03
CGA:   6    -0.490287433833E+03   -0.71453E-01   -0.71454E-01   688   0.898E-01-0.118E-04
CGA:   7    -0.490314960148E+03   -0.27526E-01   -0.27526E-01   688   0.368E-01 0.158E-04
CGA:   8    -0.490327779160E+03   -0.12819E-01   -0.12818E-01   688   0.160E-01 0.223E-04
CGA:   9    -0.490333270763E+03   -0.54916E-02   -0.54910E-02   688   0.589E-02 0.903E-05
CGA:  10    -0.490335196162E+03   -0.19254E-02   -0.19253E-02   688   0.181E-02 0.297E-05
CGA:  11    -0.490335846205E+03   -0.65004E-03   -0.65008E-03   688   0.657E-03-0.563E-06
CGA:  12    -0.490336096489E+03   -0.25028E-03   -0.25049E-03   688   0.291E-03-0.213E-05
CGA:  13    -0.490336203467E+03   -0.10698E-03   -0.10695E-03   688   0.135E-03 0.325E-06
CGA:  14    -0.490336249119E+03   -0.45652E-04   -0.45714E-04   688   0.599E-04-0.142E-05
  14 F= -.49432964E+03 E0= -.49432206E+03  d E =-.402092E+00  mag=     0.0609
       N       E                     dE             d eps       ncg     rms          ort
SDA:   1    -0.486525868182E+03    0.38103E+01    0.00000E+00   688   0.103E+02 0.000E+00
CGA:   2    -0.489579790432E+03   -0.30539E+01   -0.30540E+01   688   0.302E+01 0.855E-02
CGA:   3    -0.490265899013E+03   -0.68611E+00   -0.68599E+00   688   0.893E+00-0.180E-03
CGA:   4    -0.490424354162E+03   -0.15846E+00   -0.15893E+00   688   0.182E+00-0.682E-03
CGA:   5    -0.490463849829E+03   -0.39496E-01   -0.39479E-01   688   0.416E-01-0.118E-04
CGA:   6    -0.490474505889E+03   -0.10656E-01   -0.10656E-01   688   0.128E-01 0.121E-05
CGA:   7    -0.490478435091E+03   -0.39292E-02   -0.39292E-02   688   0.599E-02-0.913E-06
CGA:   8    -0.490480399029E+03   -0.19639E-02   -0.19634E-02   688   0.271E-02 0.139E-04
CGA:   9    -0.490481299444E+03   -0.90042E-03   -0.90055E-03   688   0.966E-03-0.311E-05
CGA:  10    -0.490481608978E+03   -0.30953E-03   -0.30949E-03   688   0.295E-03 0.131E-05
CGA:  11    -0.490481708627E+03   -0.99649E-04   -0.99584E-04   688   0.110E-03 0.143E-05
  15 F= -.49447885E+03 E0= -.49447131E+03  d E =-.149205E+00  mag=     0.0603
       N       E                     dE             d eps       ncg     rms          ort
SDA:   1    -0.481781894216E+03    0.86997E+01    0.00000E+00   688   0.230E+02 0.000E+00
CGA:   2    -0.488490237340E+03   -0.67083E+01   -0.67087E+01   688   0.708E+01 0.350E-01
CGA:   3    -0.490021336183E+03   -0.15311E+01   -0.15290E+01   688   0.219E+01-0.263E-02
CGA:   4    -0.490410146977E+03   -0.38881E+00   -0.39082E+00   688   0.414E+00-0.207E-02
CGA:   5    -0.490503044001E+03   -0.92897E-01   -0.92857E-01   688   0.942E-01-0.984E-04
CGA:   6    -0.490527227120E+03   -0.24183E-01   -0.24184E-01   688   0.289E-01 0.826E-05
CGA:   7    -0.490536112981E+03   -0.88859E-02   -0.88855E-02   688   0.134E-01 0.542E-05
CGA:   8    -0.490540606827E+03   -0.44938E-02   -0.44929E-02   688   0.602E-02 0.198E-04
CGA:   9    -0.490542644387E+03   -0.20376E-02   -0.20376E-02   688   0.216E-02-0.165E-05
CGA:  10    -0.490543341395E+03   -0.69701E-03   -0.69696E-03   688   0.663E-03 0.125E-05
CGA:  11    -0.490543567594E+03   -0.22620E-03   -0.22608E-03   688   0.247E-03 0.234E-05
CGA:  12    -0.490543655631E+03   -0.88037E-04   -0.88140E-04   688   0.116E-03-0.166E-05
  16 F= -.49454606E+03 E0= -.49453839E+03  d E =-.216418E+00  mag=     0.0609
       N       E                     dE             d eps       ncg     rms          ort
SDA:   1    -0.486429860061E+03    0.41137E+01    0.00000E+00   688   0.109E+02 0.000E+00
CGA:   2    -0.489698841763E+03   -0.32690E+01   -0.32689E+01   688   0.302E+01 0.927E-02
CGA:   3    -0.490441452003E+03   -0.74261E+00   -0.74259E+00   688   0.741E+00-0.529E-04
CGA:   4    -0.490585062109E+03   -0.14361E+00   -0.14373E+00   688   0.166E+00-0.295E-04
CGA:   5    -0.490620108449E+03   -0.35046E-01   -0.35027E-01   688   0.413E-01 0.149E-04
CGA:   6    -0.490630521284E+03   -0.10413E-01   -0.10413E-01   688   0.128E-01-0.534E-05
CGA:   7    -0.490634702085E+03   -0.41808E-02   -0.41806E-02   688   0.605E-02 0.508E-05
CGA:   8    -0.490636752263E+03   -0.20502E-02   -0.20498E-02   688   0.279E-02 0.733E-05
CGA:   9    -0.490637639865E+03   -0.88760E-03   -0.88773E-03   688   0.967E-03-0.436E-05
CGA:  10    -0.490637940109E+03   -0.30024E-03   -0.30019E-03   688   0.292E-03 0.250E-05
CGA:  11    -0.490638039726E+03   -0.99616E-04   -0.99665E-04   688   0.110E-03-0.101E-05
  17 F= -.49464475E+03 E0= -.49463690E+03  d E =-.986955E-01  mag=     0.0612
       N       E                     dE             d eps       ncg     rms          ort
SDA:   1    -0.489550322058E+03    0.10876E+01    0.00000E+00   688   0.284E+01 0.000E+00
CGA:   2    -0.490403261528E+03   -0.85294E+00   -0.85293E+00   688   0.778E+00 0.117E-02
CGA:   3    -0.490597730529E+03   -0.19447E+00   -0.19446E+00   688   0.177E+00-0.353E-04
CGA:   4    -0.490634072868E+03   -0.36342E-01   -0.36340E-01   688   0.370E-01-0.145E-04
CGA:   5    -0.490642262957E+03   -0.81901E-02   -0.81901E-02   688   0.972E-02 0.123E-04
CGA:   6    -0.490644641740E+03   -0.23788E-02   -0.23786E-02   688   0.332E-02-0.526E-05
CGA:   7    -0.490645678668E+03   -0.10369E-02   -0.10368E-02   688   0.156E-02 0.600E-05
CGA:   8    -0.490646216637E+03   -0.53797E-03   -0.53795E-03   688   0.705E-03 0.377E-06
CGA:   9    -0.490646445368E+03   -0.22873E-03   -0.22877E-03   688   0.246E-03-0.118E-05
CGA:  10    -0.490646520411E+03   -0.75042E-04   -0.75028E-04   688   0.771E-04 0.101E-05
  18 F= -.49465536E+03 E0= -.49464736E+03  d E =-.109306E+00  mag=     0.0618
       N       E                     dE             d eps       ncg     rms          ort
SDA:   1    -0.489284679987E+03    0.13618E+01    0.00000E+00   688   0.375E+01 0.000E+00
CGA:   2    -0.490407335043E+03   -0.11227E+01   -0.11226E+01   688   0.104E+01 0.232E-02
CGA:   3    -0.490668091278E+03   -0.26076E+00   -0.26071E+00   688   0.219E+00-0.342E-03
CGA:   4    -0.490715640362E+03   -0.47549E-01   -0.47548E-01   688   0.416E-01-0.248E-04
CGA:   5    -0.490725520412E+03   -0.98800E-02   -0.98802E-02   688   0.107E-01 0.646E-05
CGA:   6    -0.490728267510E+03   -0.27471E-02   -0.27470E-02   688   0.385E-02-0.362E-05
CGA:   7    -0.490729469908E+03   -0.12024E-02   -0.12023E-02   688   0.185E-02 0.345E-05
CGA:   8    -0.490730084870E+03   -0.61496E-03   -0.61508E-03   688   0.778E-03-0.251E-05
CGA:   9    -0.490730335420E+03   -0.25055E-03   -0.25056E-03   688   0.256E-03-0.272E-06
CGA:  10    -0.490730413218E+03   -0.77798E-04   -0.77792E-04   688   0.835E-04 0.451E-06
  19 F= -.49474129E+03 E0= -.49473306E+03  d E =-.859238E-01  mag=     0.0643
       N       E                     dE             d eps       ncg     rms          ort
SDA:   1    -0.480391915603E+03    0.10338E+02    0.00000E+00   688   0.271E+02 0.000E+00
CGA:   2    -0.488460232358E+03   -0.80683E+01   -0.80678E+01   688   0.770E+01 0.430E-01
CGA:   3    -0.490320934290E+03   -0.18607E+01   -0.18603E+01   688   0.194E+01-0.171E-02
CGA:   4    -0.490685093595E+03   -0.36416E+00   -0.36516E+00   688   0.444E+00-0.173E-03
CGA:   5    -0.490777151824E+03   -0.92058E-01   -0.91971E-01   688   0.105E+00-0.800E-04
CGA:   6    -0.490804337531E+03   -0.27186E-01   -0.27185E-01   688   0.313E-01-0.191E-04
CGA:   7    -0.490814502034E+03   -0.10165E-01   -0.10164E-01   688   0.150E-01 0.376E-05
CGA:   8    -0.490819385305E+03   -0.48833E-02   -0.48832E-02   688   0.680E-02 0.618E-05
CGA:   9    -0.490821485464E+03   -0.21002E-02   -0.21003E-02   688   0.240E-02-0.657E-05
CGA:  10    -0.490822206900E+03   -0.72144E-03   -0.72140E-03   688   0.741E-03 0.281E-05
CGA:  11    -0.490822450891E+03   -0.24399E-03   -0.24399E-03   688   0.273E-03 0.129E-06
CGA:  12    -0.490822551072E+03   -0.10018E-03   -0.10029E-03   688   0.120E-03-0.136E-05
CGA:  13    -0.490822595587E+03   -0.44515E-04   -0.44597E-04   688   0.592E-04-0.999E-06
  20 F= -.49483857E+03 E0= -.49482989E+03  d E =-.183210E+00  mag=     0.0677
       N       E                     dE             d eps       ncg     rms          ort
SDA:   1    -0.489050766115E+03    0.17718E+01    0.00000E+00   688   0.475E+01 0.000E+00
CGA:   2    -0.490475063949E+03   -0.14243E+01   -0.14243E+01   688   0.136E+01-0.288E-04
CGA:   3    -0.490809641631E+03   -0.33458E+00   -0.33457E+00   688   0.313E+00-0.573E-04
CGA:   4    -0.490873810130E+03   -0.64168E-01   -0.64171E-01   688   0.662E-01-0.159E-04
CGA:   5    -0.490888092172E+03   -0.14282E-01   -0.14281E-01   688   0.181E-01 0.244E-04
CGA:   6    -0.490892490210E+03   -0.43980E-02   -0.43975E-02   688   0.574E-02-0.108E-04
CGA:   7    -0.490894292025E+03   -0.18018E-02   -0.18017E-02   688   0.264E-02 0.422E-05
CGA:   8    -0.490895179135E+03   -0.88711E-03   -0.88722E-03   688   0.115E-02-0.208E-05
CGA:   9    -0.490895540271E+03   -0.36114E-03   -0.36120E-03   688   0.417E-03-0.215E-05
CGA:  10    -0.490895660805E+03   -0.12053E-03   -0.12053E-03   688   0.140E-03 0.486E-06
CGA:  11    -0.490895703953E+03   -0.43148E-04   -0.43173E-04   688   0.546E-04-0.132E-05
  21 F= -.49491294E+03 E0= -.49490357E+03  d E =-.743690E-01  mag=     0.0740
       N       E                     dE             d eps       ncg     rms          ort
SDA:   1    -0.488778093235E+03    0.21176E+01    0.00000E+00   688   0.551E+01 0.000E+00
CGA:   2    -0.490430325328E+03   -0.16522E+01   -0.16522E+01   688   0.159E+01-0.430E-03
CGA:   3    -0.490817913510E+03   -0.38759E+00   -0.38758E+00   688   0.366E+00-0.727E-04
CGA:   4    -0.490892624023E+03   -0.74711E-01   -0.74717E-01   688   0.774E-01-0.119E-04
CGA:   5    -0.490909280819E+03   -0.16657E-01   -0.16654E-01   688   0.213E-01 0.249E-04
CGA:   6    -0.490914385091E+03   -0.51043E-02   -0.51035E-02   688   0.684E-02-0.139E-04
CGA:   7    -0.490916500782E+03   -0.21157E-02   -0.21156E-02   688   0.312E-02 0.441E-05
CGA:   8    -0.490917558092E+03   -0.10573E-02   -0.10574E-02   688   0.135E-02-0.181E-05
CGA:   9    -0.490917985962E+03   -0.42787E-03   -0.42797E-03   688   0.512E-03-0.302E-05
CGA:  10    -0.490918129071E+03   -0.14311E-03   -0.14311E-03   688   0.175E-03 0.837E-06
CGA:  11    -0.490918182272E+03   -0.53201E-04   -0.53228E-04   688   0.657E-04-0.145E-05
  22 F= -.49493665E+03 E0= -.49492643E+03  d E =-.980768E-01  mag=     0.0825
       N       E                     dE             d eps       ncg     rms          ort
SDA:   1    -0.488396483291E+03    0.25216E+01    0.00000E+00   688   0.663E+01 0.000E+00
CGA:   2    -0.490395506579E+03   -0.19990E+01   -0.19990E+01   688   0.192E+01-0.861E-03
CGA:   3    -0.490855003350E+03   -0.45950E+00   -0.45944E+00   688   0.501E+00-0.299E-03
CGA:   4    -0.490948391344E+03   -0.93388E-01   -0.93505E-01   688   0.112E+00-0.118E-03
CGA:   5    -0.490971627158E+03   -0.23236E-01   -0.23226E-01   688   0.281E-01 0.112E-04
CGA:   6    -0.490978860920E+03   -0.72338E-02   -0.72336E-02   688   0.870E-02-0.889E-05
CGA:   7    -0.490981636578E+03   -0.27757E-02   -0.27758E-02   688   0.426E-02-0.282E-05
CGA:   8    -0.490982997201E+03   -0.13606E-02   -0.13606E-02   688   0.195E-02 0.230E-05
CGA:   9    -0.490983600605E+03   -0.60340E-03   -0.60353E-03   688   0.723E-03-0.441E-05
CGA:  10    -0.490983816538E+03   -0.21593E-03   -0.21593E-03   688   0.236E-03 0.187E-06
CGA:  11    -0.490983892604E+03   -0.76065E-04   -0.76085E-04   688   0.903E-04-0.526E-06
  23 F= -.49500271E+03 E0= -.49499114E+03  d E =-.660640E-01  mag=     0.0967
       N       E                     dE             d eps       ncg     rms          ort
SDA:   1    -0.490367417666E+03    0.61640E+00    0.00000E+00   688   0.160E+01 0.000E+00
CGA:   2    -0.490851268751E+03   -0.48385E+00   -0.48386E+00   688   0.453E+00-0.280E-03
CGA:   3    -0.490963132439E+03   -0.11186E+00   -0.11187E+00   688   0.104E+00 0.170E-04
CGA:   4    -0.490984404111E+03   -0.21272E-01   -0.21271E-01   688   0.214E-01-0.231E-04
CGA:   5    -0.490989110812E+03   -0.47067E-02   -0.47069E-02   688   0.612E-02 0.110E-04
CGA:   6    -0.490990584908E+03   -0.14741E-02   -0.14738E-02   688   0.207E-02-0.771E-05
CGA:   7    -0.490991226745E+03   -0.64184E-03   -0.64178E-03   688   0.999E-03 0.206E-05
CGA:   8    -0.490991551885E+03   -0.32514E-03   -0.32519E-03   688   0.461E-03-0.115E-05
CGA:   9    -0.490991691564E+03   -0.13968E-03   -0.13972E-03   688   0.175E-03-0.186E-05
CGA:  10    -0.490991741309E+03   -0.49744E-04   -0.49744E-04   688   0.593E-04 0.243E-06
  24 F= -.49501066E+03 E0= -.49499828E+03  d E =-.740089E-01  mag=     0.1055
       N       E                     dE             d eps       ncg     rms          ort
SDA:   1    -0.490451673264E+03    0.54002E+00    0.00000E+00   688   0.148E+01 0.000E+00
CGA:   2    -0.490902244733E+03   -0.45057E+00   -0.45058E+00   688   0.422E+00-0.286E-03
CGA:   3    -0.491005153305E+03   -0.10291E+00   -0.10291E+00   688   0.106E+00 0.694E-04
CGA:   4    -0.491025477138E+03   -0.20324E-01   -0.20328E-01   688   0.240E-01-0.232E-04
CGA:   5    -0.491030423815E+03   -0.49467E-02   -0.49467E-02   688   0.648E-02 0.178E-04
CGA:   6    -0.491032087224E+03   -0.16634E-02   -0.16633E-02   688   0.211E-02-0.556E-05
CGA:   7    -0.491032758331E+03   -0.67111E-03   -0.67102E-03   688   0.106E-02 0.211E-05
CGA:   8    -0.491033084199E+03   -0.32587E-03   -0.32579E-03   688   0.480E-03 0.272E-05
CGA:   9    -0.491033231736E+03   -0.14754E-03   -0.14758E-03   688   0.176E-03-0.143E-05
CGA:  10    -0.491033285515E+03   -0.53780E-04   -0.53771E-04   688   0.577E-04 0.347E-06
  25 F= -.49505267E+03 E0= -.49503998E+03  d E =-.420141E-01  mag=     0.1096
       N       E                     dE             d eps       ncg     rms          ort
SDA:   1    -0.488972453755E+03    0.20608E+01    0.00000E+00   688   0.533E+01 0.000E+00
CGA:   2    -0.490584599923E+03   -0.16121E+01   -0.16122E+01   688   0.158E+01-0.144E-02
CGA:   3    -0.490949731472E+03   -0.36513E+00   -0.36511E+00   688   0.463E+00-0.120E-03
CGA:   4    -0.491031934732E+03   -0.82203E-01   -0.82349E-01   688   0.987E-01-0.191E-03
CGA:   5    -0.491053085456E+03   -0.21151E-01   -0.21145E-01   688   0.237E-01 0.105E-04
CGA:   6    -0.491059453749E+03   -0.63683E-02   -0.63683E-02   688   0.792E-02-0.295E-05
CGA:   7    -0.491061871897E+03   -0.24181E-02   -0.24183E-02   688   0.406E-02-0.258E-05
CGA:   8    -0.491063119065E+03   -0.12472E-02   -0.12470E-02   688   0.175E-02 0.749E-05
CGA:   9    -0.491063688190E+03   -0.56913E-03   -0.56925E-03   688   0.635E-03-0.241E-05
CGA:  10    -0.491063887958E+03   -0.19977E-03   -0.19976E-03   688   0.212E-03 0.117E-06
CGA:  11    -0.491063958840E+03   -0.70882E-04   -0.70902E-04   688   0.862E-04-0.346E-06
  26 F= -.49508412E+03 E0= -.49507073E+03  d E =-.734573E-01  mag=     0.1173
       N       E                     dE             d eps       ncg     rms          ort
SDA:   1    -0.490158560383E+03    0.90533E+00    0.00000E+00   688   0.241E+01 0.000E+00
CGA:   2    -0.490875744522E+03   -0.71718E+00   -0.71717E+00   688   0.731E+00 0.750E-03
CGA:   3    -0.491050080560E+03   -0.17434E+00   -0.17433E+00   688   0.196E+00 0.276E-04
CGA:   4    -0.491086066934E+03   -0.35986E-01   -0.36015E-01   688   0.443E-01-0.426E-04
CGA:   5    -0.491095374913E+03   -0.93080E-02   -0.93069E-02   688   0.109E-01 0.219E-04
CGA:   6    -0.491098251404E+03   -0.28765E-02   -0.28764E-02   688   0.384E-02-0.618E-05
CGA:   7    -0.491099368866E+03   -0.11175E-02   -0.11175E-02   688   0.189E-02 0.235E-05
CGA:   8    -0.491099941160E+03   -0.57229E-03   -0.57218E-03   688   0.815E-03 0.511E-05
CGA:   9    -0.491100199647E+03   -0.25849E-03   -0.25851E-03   688   0.311E-03-0.536E-06
CGA:  10    -0.491100294641E+03   -0.94994E-04   -0.94967E-04   688   0.110E-03 0.107E-05
  27 F= -.49512253E+03 E0= -.49510791E+03  d E =-.384123E-01  mag=     0.1343
       N       E                     dE             d eps       ncg     rms          ort
SDA:   1    -0.490231362481E+03    0.86884E+00    0.00000E+00   688   0.224E+01 0.000E+00
CGA:   2    -0.490901321599E+03   -0.66996E+00   -0.66994E+00   688   0.680E+00 0.764E-03
CGA:   3    -0.491064065724E+03   -0.16274E+00   -0.16274E+00   688   0.180E+00 0.974E-05
CGA:   4    -0.491097246896E+03   -0.33181E-01   -0.33206E-01   688   0.413E-01-0.352E-04
CGA:   5    -0.491105878622E+03   -0.86317E-02   -0.86309E-02   688   0.100E-01 0.215E-04
CGA:   6    -0.491108579559E+03   -0.27009E-02   -0.27009E-02   688   0.354E-02-0.611E-05
CGA:   7    -0.491109623110E+03   -0.10436E-02   -0.10435E-02   688   0.180E-02 0.285E-05
CGA:   8    -0.491110154259E+03   -0.53115E-03   -0.53108E-03   688   0.797E-03 0.421E-05
CGA:   9    -0.491110402104E+03   -0.24784E-03   -0.24786E-03   688   0.309E-03-0.276E-06
CGA:  10    -0.491110496466E+03   -0.94363E-04   -0.94343E-04   688   0.112E-03 0.735E-06
  28 F= -.49513467E+03 E0= -.49511873E+03  d E =-.505551E-01  mag=     0.1564
       N       E                     dE             d eps       ncg     rms          ort
SDA:   1    -0.490104050781E+03    0.10064E+01    0.00000E+00   688   0.263E+01 0.000E+00
CGA:   2    -0.490877779708E+03   -0.77373E+00   -0.77365E+00   688   0.824E+00 0.332E-02
CGA:   3    -0.491073028964E+03   -0.19525E+00   -0.19518E+00   688   0.217E+00-0.409E-03
CGA:   4    -0.491113905908E+03   -0.40877E-01   -0.40903E-01   688   0.476E-01-0.329E-04
CGA:   5    -0.491123947639E+03   -0.10042E-01   -0.10040E-01   688   0.117E-01 0.989E-05
CGA:   6    -0.491126949927E+03   -0.30023E-02   -0.30021E-02   688   0.391E-02-0.107E-04
CGA:   7    -0.491128081015E+03   -0.11311E-02   -0.11310E-02   688   0.180E-02 0.385E-05
CGA:   8    -0.491128627353E+03   -0.54634E-03   -0.54627E-03   688   0.827E-03 0.256E-05
CGA:   9    -0.491128871905E+03   -0.24455E-03   -0.24455E-03   688   0.337E-03 0.217E-06
CGA:  10    -0.491128969376E+03   -0.97471E-04   -0.97457E-04   688   0.116E-03 0.103E-05
  29 F= -.49515600E+03 E0= -.49513936E+03  d E =-.213254E-01  mag=     0.1752
       N       E                     dE             d eps       ncg     rms          ort
SDA:   1    -0.491121982612E+03    0.68893E-02    0.00000E+00   688   0.193E-01 0.000E+00
CGA:   2    -0.491127597049E+03   -0.56144E-02   -0.56145E-02   688   0.615E-02 0.168E-07
CGA:   3    -0.491129048035E+03   -0.14510E-02   -0.14509E-02   688   0.160E-02-0.345E-05
CGA:   4    -0.491129363339E+03   -0.31530E-03   -0.31530E-03   688   0.323E-03 0.473E-07
CGA:   5    -0.491129437386E+03   -0.74047E-04   -0.74072E-04   688   0.902E-04 0.596E-06
  30 F= -.49515622E+03 E0= -.49513950E+03  d E =-.215525E-01  mag=     0.1787
       N       E                     dE             d eps       ncg     rms          ort
SDA:   1    -0.490577442980E+03    0.55192E+00    0.00000E+00   688   0.146E+01 0.000E+00
CGA:   2    -0.491012317011E+03   -0.43487E+00   -0.43483E+00   688   0.435E+00 0.942E-03
CGA:   3    -0.491119849168E+03   -0.10753E+00   -0.10752E+00   688   0.102E+00-0.196E-03
CGA:   4    -0.491140683267E+03   -0.20834E-01   -0.20835E-01   688   0.216E-01 0.318E-05
CGA:   5    -0.491145389831E+03   -0.47066E-02   -0.47067E-02   688   0.616E-02 0.123E-04
CGA:   6    -0.491146898724E+03   -0.15089E-02   -0.15088E-02   688   0.220E-02-0.723E-05
CGA:   7    -0.491147541438E+03   -0.64271E-03   -0.64255E-03   688   0.101E-02 0.531E-05
CGA:   8    -0.491147859079E+03   -0.31764E-03   -0.31767E-03   688   0.470E-03-0.644E-06
CGA:   9    -0.491147992383E+03   -0.13330E-03   -0.13331E-03   688   0.199E-03-0.345E-06
CGA:  10    -0.491148045168E+03   -0.52785E-04   -0.52786E-04   688   0.662E-04 0.427E-06
  31 F= -.49517725E+03 E0= -.49516062E+03  d E =-.210273E-01  mag=     0.1826
       N       E                     dE             d eps       ncg     rms          ort
SDA:   1    -0.490868175918E+03    0.27982E+00    0.00000E+00   688   0.722E+00 0.000E+00
CGA:   2    -0.491083616008E+03   -0.21544E+00   -0.21543E+00   688   0.214E+00 0.312E-03
CGA:   3    -0.491136903066E+03   -0.53287E-01   -0.53283E-01   688   0.488E-01-0.722E-04
CGA:   4    -0.491147211982E+03   -0.10309E-01   -0.10309E-01   688   0.983E-02 0.567E-05
CGA:   5    -0.491149475834E+03   -0.22639E-02   -0.22640E-02   688   0.278E-02 0.581E-05
CGA:   6    -0.491150185787E+03   -0.70995E-03   -0.70992E-03   688   0.106E-02-0.381E-05
CGA:   7    -0.491150499925E+03   -0.31414E-03   -0.31401E-03   688   0.497E-03 0.380E-05
CGA:   8    -0.491150661861E+03   -0.16194E-03   -0.16203E-03   688   0.217E-03-0.159E-05
CGA:   9    -0.491150728801E+03   -0.66939E-04   -0.66918E-04   688   0.862E-04 0.545E-06
  32 F= -.49518160E+03 E0= -.49516508E+03  d E =-.253759E-01  mag=     0.1828
       N       E                     dE             d eps       ncg     rms          ort
SDA:   1    -0.490925483528E+03    0.22518E+00    0.00000E+00   688   0.604E+00 0.000E+00
CGA:   2    -0.491107052922E+03   -0.18157E+00   -0.18156E+00   688   0.177E+00 0.834E-04
CGA:   3    -0.491150895011E+03   -0.43842E-01   -0.43840E-01   688   0.398E-01-0.389E-04
CGA:   4    -0.491159301403E+03   -0.84064E-02   -0.84065E-02   688   0.762E-02 0.505E-05
CGA:   5    -0.491161161851E+03   -0.18604E-02   -0.18604E-02   688   0.220E-02-0.115E-05
CGA:   6    -0.491161730424E+03   -0.56857E-03   -0.56859E-03   688   0.849E-03 0.194E-05
CGA:   7    -0.491161995883E+03   -0.26546E-03   -0.26549E-03   688   0.410E-03-0.740E-06
CGA:   8    -0.491162134773E+03   -0.13889E-03   -0.13893E-03   688   0.171E-03-0.542E-06
CGA:   9    -0.491162190973E+03   -0.56200E-04   -0.56214E-04   688   0.607E-04-0.251E-06
  33 F= -.49519351E+03 E0= -.49517656E+03  d E =-.119068E-01  mag=     0.1893
       N       E                     dE             d eps       ncg     rms          ort
SDA:   1    -0.490539646789E+03    0.62249E+00    0.00000E+00   688   0.161E+01 0.000E+00
CGA:   2    -0.491022457893E+03   -0.48281E+00   -0.48279E+00   688   0.469E+00 0.412E-03
CGA:   3    -0.491138966475E+03   -0.11651E+00   -0.11650E+00   688   0.104E+00-0.107E-03
CGA:   4    -0.491161146534E+03   -0.22180E-01   -0.22180E-01   688   0.200E-01 0.423E-05
CGA:   5    -0.491166039132E+03   -0.48926E-02   -0.48926E-02   688   0.582E-02 0.269E-05
CGA:   6    -0.491167519215E+03   -0.14801E-02   -0.14801E-02   688   0.232E-02-0.344E-06
CGA:   7    -0.491168211513E+03   -0.69230E-03   -0.69226E-03   688   0.113E-02 0.178E-05
CGA:   8    -0.491168585694E+03   -0.37418E-03   -0.37431E-03   688   0.471E-03-0.227E-05
CGA:   9    -0.491168739208E+03   -0.15351E-03   -0.15350E-03   688   0.171E-03 0.275E-06
CGA:  10    -0.491168788743E+03   -0.49535E-04   -0.49543E-04   688   0.690E-04-0.785E-06
  34 F= -.49520077E+03 E0= -.49518296E+03  d E =-.191652E-01  mag=     0.2043
       N       E                     dE             d eps       ncg     rms          ort
SDA:   1    -0.490887452153E+03    0.28129E+00    0.00000E+00   688   0.771E+00 0.000E+00
CGA:   2    -0.491112319831E+03   -0.22487E+00   -0.22486E+00   688   0.214E+00 0.121E-03
CGA:   3    -0.491166521380E+03   -0.54202E-01   -0.54200E-01   688   0.492E-01-0.285E-04
CGA:   4    -0.491176764585E+03   -0.10243E-01   -0.10243E-01   688   0.984E-02 0.237E-05
CGA:   5    -0.491179065618E+03   -0.23010E-02   -0.23009E-02   688   0.271E-02-0.269E-05
CGA:   6    -0.491179753820E+03   -0.68820E-03   -0.68825E-03   688   0.984E-03 0.289E-05
CGA:   7    -0.491180057809E+03   -0.30399E-03   -0.30400E-03   688   0.491E-03-0.409E-06
CGA:   8    -0.491180216025E+03   -0.15822E-03   -0.15821E-03   688   0.215E-03 0.113E-06
CGA:   9    -0.491180284850E+03   -0.68825E-04   -0.68836E-04   688   0.762E-04-0.253E-06
  35 F= -.49521223E+03 E0= -.49519411E+03  d E =-.114660E-01  mag=     0.2135
       N       E                     dE             d eps       ncg     rms          ort
SDA:   1    -0.489801232497E+03    0.13790E+01    0.00000E+00   688   0.366E+01 0.000E+00
CGA:   2    -0.490867711222E+03   -0.10665E+01   -0.10664E+01   688   0.102E+01 0.153E-02
CGA:   3    -0.491124317578E+03   -0.25661E+00   -0.25660E+00   688   0.239E+00-0.624E-04
CGA:   4    -0.491173671016E+03   -0.49353E-01   -0.49343E-01   688   0.473E-01-0.138E-04
CGA:   5    -0.491184833760E+03   -0.11163E-01   -0.11162E-01   688   0.129E-01-0.234E-05
CGA:   6    -0.491188186241E+03   -0.33525E-02   -0.33525E-02   688   0.455E-02 0.105E-05
CGA:   7    -0.491189647330E+03   -0.14611E-02   -0.14609E-02   688   0.220E-02 0.487E-05
CGA:   8    -0.491190380517E+03   -0.73319E-03   -0.73338E-03   688   0.950E-03-0.337E-05
CGA:   9    -0.491190685249E+03   -0.30473E-03   -0.30464E-03   688   0.324E-03 0.225E-05
CGA:  10    -0.491190786199E+03   -0.10095E-03   -0.10098E-03   688   0.107E-03-0.968E-06
CGA:  11    -0.491190820885E+03   -0.34686E-04   -0.34655E-04   688   0.460E-04 0.701E-06
  36 F= -.49522263E+03 E0= -.49520401E+03  d E =-.218695E-01  mag=     0.2248
       N       E                     dE             d eps       ncg     rms          ort
SDA:   1    -0.490722463778E+03    0.46832E+00    0.00000E+00   688   0.127E+01 0.000E+00
CGA:   2    -0.491090035147E+03   -0.36757E+00   -0.36757E+00   688   0.351E+00 0.124E-03
CGA:   3    -0.491179214579E+03   -0.89179E-01   -0.89179E-01   688   0.828E-01-0.724E-05
CGA:   4    -0.491196205412E+03   -0.16991E-01   -0.16990E-01   688   0.166E-01 0.262E-05
CGA:   5    -0.491200121418E+03   -0.39160E-02   -0.39159E-02   688   0.461E-02 0.493E-05
CGA:   6    -0.491201307818E+03   -0.11864E-02   -0.11864E-02   688   0.166E-02-0.220E-05
CGA:   7    -0.491201834984E+03   -0.52717E-03   -0.52705E-03   688   0.818E-03 0.295E-05
CGA:   8    -0.491202106241E+03   -0.27126E-03   -0.27133E-03   688   0.359E-03-0.133E-05
CGA:   9    -0.491202222015E+03   -0.11577E-03   -0.11576E-03   688   0.123E-03 0.355E-06
CGA:  10    -0.491202261081E+03   -0.39067E-04   -0.39078E-04   688   0.405E-04-0.328E-06
  37 F= -.49523400E+03 E0= -.49521501E+03  d E =-.113669E-01  mag=     0.2326
       N       E                     dE             d eps       ncg     rms          ort
SDA:   1    -0.491014140755E+03    0.18808E+00    0.00000E+00   688   0.503E+00 0.000E+00
CGA:   2    -0.491159848798E+03   -0.14571E+00   -0.14571E+00   688   0.139E+00 0.279E-04
CGA:   3    -0.491195219499E+03   -0.35371E-01   -0.35370E-01   688   0.330E-01-0.974E-05
CGA:   4    -0.491201963668E+03   -0.67442E-02   -0.67438E-02   688   0.666E-02 0.235E-05
CGA:   5    -0.491203523644E+03   -0.15600E-02   -0.15600E-02   688   0.183E-02 0.258E-05
CGA:   6    -0.491203999306E+03   -0.47566E-03   -0.47565E-03   688   0.663E-03-0.437E-06
CGA:   7    -0.491204208582E+03   -0.20928E-03   -0.20924E-03   688   0.340E-03 0.927E-06
CGA:   8    -0.491204317872E+03   -0.10929E-03   -0.10930E-03   688   0.155E-03-0.273E-06
CGA:   9    -0.491204368014E+03   -0.50142E-04   -0.50155E-04   688   0.544E-04-0.333E-06
  38 F= -.49523604E+03 E0= -.49521673E+03  d E =-.134057E-01  mag=     0.2401
       N       E                     dE             d eps       ncg     rms          ort
SDA:   1    -0.490886769915E+03    0.31755E+00    0.00000E+00   688   0.866E+00 0.000E+00
CGA:   2    -0.491135429954E+03   -0.24866E+00   -0.24866E+00   688   0.242E+00 0.761E-04
CGA:   3    -0.491195872828E+03   -0.60443E-01   -0.60442E-01   688   0.607E-01 0.150E-04
CGA:   4    -0.491207991009E+03   -0.12118E-01   -0.12118E-01   688   0.121E-01-0.142E-04
CGA:   5    -0.491210743662E+03   -0.27527E-02   -0.27527E-02   688   0.349E-02 0.631E-05
CGA:   6    -0.491211599461E+03   -0.85580E-03   -0.85562E-03   688   0.120E-02-0.566E-05
CGA:   7    -0.491211976925E+03   -0.37746E-03   -0.37738E-03   688   0.564E-03 0.221E-05
CGA:   8    -0.491212167165E+03   -0.19024E-03   -0.19026E-03   688   0.263E-03-0.352E-06
CGA:   9    -0.491212245640E+03   -0.78475E-04   -0.78481E-04   688   0.106E-03-0.363E-06
  39 F= -.49524417E+03 E0= -.49522461E+03  d E =-.812976E-02  mag=     0.2493
       N       E                     dE             d eps       ncg     rms          ort
SDA:   1    -0.491131934335E+03    0.80233E-01    0.00000E+00   688   0.216E+00 0.000E+00
CGA:   2    -0.491193935560E+03   -0.62001E-01   -0.62001E-01   688   0.605E-01 0.554E-05
CGA:   3    -0.491208997037E+03   -0.15061E-01   -0.15061E-01   688   0.153E-01 0.614E-05
CGA:   4    -0.491212053617E+03   -0.30566E-02   -0.30562E-02   688   0.300E-02-0.696E-05
CGA:   5    -0.491212739849E+03   -0.68623E-03   -0.68633E-03   688   0.881E-03 0.280E-05
CGA:   6    -0.491212958547E+03   -0.21870E-03   -0.21863E-03   688   0.305E-03-0.273E-05
CGA:   7    -0.491213057713E+03   -0.99166E-04   -0.99113E-04   688   0.144E-03 0.998E-06
  40 F= -.49524510E+03 E0= -.49522538E+03  d E =-.906069E-02  mag=     0.2556
       N       E                     dE             d eps       ncg     rms          ort
SDA:   1    -0.490980835942E+03    0.23212E+00    0.00000E+00   688   0.647E+00 0.000E+00
CGA:   2    -0.491164304701E+03   -0.18347E+00   -0.18347E+00   688   0.174E+00-0.210E-05
CGA:   3    -0.491208543430E+03   -0.44239E-01   -0.44243E-01   688   0.429E-01 0.783E-04
CGA:   4    -0.491217116501E+03   -0.85731E-02   -0.85722E-02   688   0.907E-02-0.102E-04
CGA:   5    -0.491219135986E+03   -0.20195E-02   -0.20199E-02   688   0.266E-02 0.106E-04
CGA:   6    -0.491219789627E+03   -0.65364E-03   -0.65351E-03   688   0.902E-03-0.528E-05
CGA:   7    -0.491220087606E+03   -0.29798E-03   -0.29786E-03   688   0.421E-03 0.198E-05
CGA:   8    -0.491220232593E+03   -0.14499E-03   -0.14491E-03   688   0.198E-03 0.113E-05
CGA:   9    -0.491220289467E+03   -0.56874E-04   -0.56883E-04   688   0.800E-04-0.937E-06
  41 F= -.49525310E+03 E0= -.49523333E+03  d E =-.799509E-02  mag=     0.2628
       N       E                     dE             d eps       ncg     rms          ort
SDA:   1    -0.489074534327E+03    0.21457E+01    0.00000E+00   688   0.582E+01 0.000E+00
CGA:   2    -0.490722666529E+03   -0.16481E+01   -0.16481E+01   688   0.159E+01-0.116E-03
CGA:   3    -0.491118173107E+03   -0.39551E+00   -0.39562E+00   688   0.415E+00 0.173E-02
CGA:   4    -0.491198129172E+03   -0.79956E-01   -0.79971E-01   688   0.894E-01-0.426E-05
CGA:   5    -0.491217285042E+03   -0.19156E-01   -0.19151E-01   688   0.245E-01 0.124E-04
CGA:   6    -0.491223426389E+03   -0.61413E-02   -0.61414E-02   688   0.771E-02-0.617E-05
CGA:   7    -0.491225984404E+03   -0.25580E-02   -0.25578E-02   688   0.372E-02 0.360E-05
CGA:   8    -0.491227179324E+03   -0.11949E-02   -0.11946E-02   688   0.188E-02 0.674E-05
CGA:   9    -0.491227690432E+03   -0.51111E-03   -0.51111E-03   688   0.745E-03-0.134E-05
CGA:  10    -0.491227890026E+03   -0.19959E-03   -0.19960E-03   688   0.241E-03 0.664E-06
CGA:  11    -0.491227961105E+03   -0.71079E-04   -0.71055E-04   688   0.894E-04 0.109E-05
  42 F= -.49526305E+03 E0= -.49524355E+03  d E =-.179439E-01  mag=     0.2699
       N       E                     dE             d eps       ncg     rms          ort
SDA:   1    -0.490689796602E+03    0.53809E+00    0.00000E+00   688   0.149E+01 0.000E+00
CGA:   2    -0.491110618414E+03   -0.42082E+00   -0.42082E+00   688   0.391E+00-0.379E-04
CGA:   3    -0.491212104156E+03   -0.10149E+00   -0.10149E+00   688   0.942E-01 0.196E-03
CGA:   4    -0.491231026419E+03   -0.18922E-01   -0.18921E-01   688   0.204E-01-0.162E-04
CGA:   5    -0.491235414012E+03   -0.43876E-02   -0.43879E-02   688   0.589E-02 0.154E-04
CGA:   6    -0.491236830895E+03   -0.14169E-02   -0.14167E-02   688   0.193E-02-0.665E-05
CGA:   7    -0.491237465578E+03   -0.63468E-03   -0.63442E-03   688   0.902E-03 0.439E-05
CGA:   8    -0.491237775524E+03   -0.30995E-03   -0.30975E-03   688   0.417E-03 0.283E-05
CGA:   9    -0.491237900172E+03   -0.12465E-03   -0.12467E-03   688   0.158E-03-0.121E-05
CGA:  10    -0.491237942346E+03   -0.42174E-04   -0.42186E-04   688   0.540E-04 0.136E-05
  43 F= -.49527386E+03 E0= -.49525424E+03  d E =-.108110E-01  mag=     0.2727
       N       E                     dE             d eps       ncg     rms          ort
SDA:   1    -0.489603535392E+03    0.16344E+01    0.00000E+00   688   0.447E+01 0.000E+00
CGA:   2    -0.490861691330E+03   -0.12582E+01   -0.12582E+01   688   0.118E+01-0.263E-03
CGA:   3    -0.491164121289E+03   -0.30243E+00   -0.30248E+00   688   0.297E+00 0.110E-02
CGA:   4    -0.491221860465E+03   -0.57739E-01   -0.57744E-01   688   0.660E-01-0.157E-04
CGA:   5    -0.491235792147E+03   -0.13932E-01   -0.13929E-01   688   0.181E-01 0.193E-04
CGA:   6    -0.491240308744E+03   -0.45166E-02   -0.45166E-02   688   0.569E-02-0.689E-05
CGA:   7    -0.491242229040E+03   -0.19203E-02   -0.19199E-02   688   0.268E-02 0.610E-05
CGA:   8    -0.491243141924E+03   -0.91288E-03   -0.91243E-03   688   0.124E-02 0.664E-05
CGA:   9    -0.491243509466E+03   -0.36754E-03   -0.36758E-03   688   0.469E-03-0.215E-05
CGA:  10    -0.491243634091E+03   -0.12463E-03   -0.12465E-03   688   0.162E-03 0.246E-05
CGA:  11    -0.491243678793E+03   -0.44702E-04   -0.44701E-04   688   0.663E-04 0.395E-06
  44 F= -.49528103E+03 E0= -.49526119E+03  d E =-.179801E-01  mag=     0.2745
       N       E                     dE             d eps       ncg     rms          ort
SDA:   1    -0.490308706456E+03    0.93493E+00    0.00000E+00   688   0.257E+01 0.000E+00
CGA:   2    -0.491037086081E+03   -0.72838E+00   -0.72837E+00   688   0.664E+00 0.365E-03
CGA:   3    -0.491210840607E+03   -0.17375E+00   -0.17375E+00   688   0.154E+00 0.176E-05
CGA:   4    -0.491242690553E+03   -0.31850E-01   -0.31850E-01   688   0.308E-01-0.143E-04
CGA:   5    -0.491249754657E+03   -0.70641E-02   -0.70643E-02   688   0.877E-02 0.116E-04
CGA:   6    -0.491251832631E+03   -0.20780E-02   -0.20777E-02   688   0.313E-02-0.902E-05
CGA:   7    -0.491252797440E+03   -0.96481E-03   -0.96456E-03   688   0.146E-02 0.647E-05
CGA:   8    -0.491253298798E+03   -0.50136E-03   -0.50139E-03   688   0.630E-03-0.482E-06
CGA:   9    -0.491253503080E+03   -0.20428E-03   -0.20428E-03   688   0.203E-03-0.658E-07
CGA:  10    -0.491253565425E+03   -0.62345E-04   -0.62314E-04   688   0.613E-04 0.103E-05
  45 F= -.49529137E+03 E0= -.49527140E+03  d E =-.103398E-01  mag=     0.2749
       N       E                     dE             d eps       ncg     rms          ort
SDA:   1    -0.491153672071E+03    0.99831E-01    0.00000E+00   688   0.273E+00 0.000E+00
CGA:   2    -0.491231088231E+03   -0.77416E-01   -0.77416E-01   688   0.705E-01 0.827E-06
CGA:   3    -0.491249572319E+03   -0.18484E-01   -0.18484E-01   688   0.162E-01 0.138E-06
CGA:   4    -0.491252935255E+03   -0.33629E-02   -0.33627E-02   688   0.326E-02-0.423E-05
CGA:   5    -0.491253680907E+03   -0.74565E-03   -0.74572E-03   688   0.907E-03 0.152E-05
CGA:   6    -0.491253902413E+03   -0.22151E-03   -0.22146E-03   688   0.326E-03-0.149E-05
CGA:   7    -0.491254005233E+03   -0.10282E-03   -0.10278E-03   688   0.158E-03 0.950E-06
CGA:   8    -0.491254058496E+03   -0.53263E-04   -0.53269E-04   688   0.715E-04-0.110E-06
  46 F= -.49529200E+03 E0= -.49527197E+03  d E =-.109754E-01  mag=     0.2758
       N       E                     dE             d eps       ncg     rms          ort
SDA:   1    -0.491022701098E+03    0.23130E+00    0.00000E+00   688   0.653E+00 0.000E+00
CGA:   2    -0.491206374771E+03   -0.18367E+00   -0.18367E+00   688   0.167E+00 0.490E-04
CGA:   3    -0.491250034537E+03   -0.43660E-01   -0.43659E-01   688   0.385E-01-0.278E-04
CGA:   4    -0.491258114346E+03   -0.80798E-02   -0.80801E-02   688   0.730E-02 0.420E-05
CGA:   5    -0.491259871029E+03   -0.17567E-02   -0.17568E-02   688   0.200E-02 0.202E-05
CGA:   6    -0.491260360336E+03   -0.48931E-03   -0.48930E-03   688   0.771E-03-0.378E-06
CGA:   7    -0.491260588493E+03   -0.22816E-03   -0.22813E-03   688   0.377E-03 0.127E-05
CGA:   8    -0.491260711943E+03   -0.12345E-03   -0.12348E-03   688   0.164E-03-0.575E-06
CGA:   9    -0.491260764439E+03   -0.52496E-04   -0.52488E-04   688   0.519E-04 0.165E-06
  47 F= -.49529884E+03 E0= -.49527875E+03  d E =-.684002E-02  mag=     0.2768
       N       E                     dE             d eps       ncg     rms          ort
SDA:   1    -0.489641674423E+03    0.16190E+01    0.00000E+00   688   0.446E+01 0.000E+00
CGA:   2    -0.490896308201E+03   -0.12546E+01   -0.12546E+01   688   0.114E+01 0.954E-03
CGA:   3    -0.491194472624E+03   -0.29816E+00   -0.29816E+00   688   0.262E+00-0.111E-03
CGA:   4    -0.491249617201E+03   -0.55145E-01   -0.55145E-01   688   0.504E-01 0.828E-05
CGA:   5    -0.491261506728E+03   -0.11890E-01   -0.11890E-01   688   0.140E-01 0.152E-04
CGA:   6    -0.491264859107E+03   -0.33524E-02   -0.33522E-02   688   0.521E-02-0.834E-05
CGA:   7    -0.491266418936E+03   -0.15598E-02   -0.15596E-02   688   0.245E-02 0.904E-05
CGA:   8    -0.491267244804E+03   -0.82587E-03   -0.82601E-03   688   0.105E-02-0.211E-05
CGA:   9    -0.491267586728E+03   -0.34192E-03   -0.34190E-03   688   0.338E-03 0.543E-06
CGA:  10    -0.491267692553E+03   -0.10582E-03   -0.10582E-03   688   0.100E-03 0.235E-06
CGA:  11    -0.491267727855E+03   -0.35302E-04   -0.35328E-04   688   0.375E-04-0.363E-06
  48 F= -.49530613E+03 E0= -.49528577E+03  d E =-.141243E-01  mag=     0.2814
       N       E                     dE             d eps       ncg     rms          ort
SDA:   1    -0.490992347040E+03    0.27535E+00    0.00000E+00   688   0.787E+00 0.000E+00
CGA:   2    -0.491210816245E+03   -0.21847E+00   -0.21847E+00   688   0.196E+00 0.958E-04
CGA:   3    -0.491262614030E+03   -0.51798E-01   -0.51796E-01   688   0.446E-01-0.316E-04
CGA:   4    -0.491272112207E+03   -0.94982E-02   -0.94982E-02   688   0.815E-02 0.131E-05
CGA:   5    -0.491274127790E+03   -0.20156E-02   -0.20156E-02   688   0.206E-02 0.136E-05
CGA:   6    -0.491274648917E+03   -0.52113E-03   -0.52108E-03   688   0.813E-03-0.152E-05
CGA:   7    -0.491274883483E+03   -0.23457E-03   -0.23456E-03   688   0.405E-03 0.138E-05
CGA:   8    -0.491275016460E+03   -0.13298E-03   -0.13303E-03   688   0.177E-03-0.112E-05
CGA:   9    -0.491275074158E+03   -0.57698E-04   -0.57694E-04   688   0.627E-04 0.948E-07
  49 F= -.49531353E+03 E0= -.49529316E+03  d E =-.740153E-02  mag=     0.2849
       N       E                     dE             d eps       ncg     rms          ort
SDA:   1    -0.488742719540E+03    0.25323E+01    0.00000E+00   688   0.708E+01 0.000E+00
CGA:   2    -0.490710429386E+03   -0.19677E+01   -0.19678E+01   688   0.176E+01 0.276E-02
CGA:   3    -0.491175579859E+03   -0.46515E+00   -0.46514E+00   688   0.406E+00-0.826E-04
CGA:   4    -0.491261095939E+03   -0.85516E-01   -0.85523E-01   688   0.780E-01 0.240E-04
CGA:   5    -0.491279233760E+03   -0.18138E-01   -0.18137E-01   688   0.221E-01 0.141E-04
CGA:   6    -0.491284344599E+03   -0.51108E-02   -0.51108E-02   688   0.789E-02-0.115E-04
CGA:   7    -0.491286744453E+03   -0.23999E-02   -0.23996E-02   688   0.359E-02 0.988E-05
CGA:   8    -0.491288007696E+03   -0.12632E-02   -0.12634E-02   688   0.155E-02-0.150E-05
CGA:   9    -0.491288519862E+03   -0.51217E-03   -0.51218E-03   688   0.503E-03-0.292E-06
CGA:  10    -0.491288675160E+03   -0.15530E-03   -0.15528E-03   688   0.148E-03 0.800E-06
CGA:  11    -0.491288725882E+03   -0.50722E-04   -0.50743E-04   688   0.535E-04-0.359E-06
  50 F= -.49532729E+03 E0= -.49530719E+03  d E =-.211687E-01  mag=     0.2815
       N       E                     dE             d eps       ncg     rms          ort
SDA:   1    -0.481091047559E+03    0.10198E+02    0.00000E+00   688   0.284E+02 0.000E+00
CGA:   2    -0.488961862361E+03   -0.78708E+01   -0.78714E+01   688   0.708E+01 0.177E-01
CGA:   3    -0.490809829254E+03   -0.18480E+01   -0.18482E+01   688   0.172E+01 0.488E-02
CGA:   4    -0.491157031128E+03   -0.34720E+00   -0.34749E+00   688   0.362E+00 0.567E-03
CGA:   5    -0.491235047743E+03   -0.78017E-01   -0.77964E-01   688   0.101E+00-0.482E-04
CGA:   6    -0.491258834031E+03   -0.23786E-01   -0.23788E-01   688   0.314E-01-0.723E-05
CGA:   7    -0.491269062817E+03   -0.10229E-01   -0.10228E-01   688   0.143E-01 0.193E-04
CGA:   8    -0.491274143439E+03   -0.50806E-02   -0.50802E-02   688   0.626E-02 0.603E-05
CGA:   9    -0.491276204751E+03   -0.20613E-02   -0.20613E-02   688   0.204E-02-0.771E-06
CGA:  10    -0.491276839755E+03   -0.63500E-03   -0.63494E-03   688   0.616E-03 0.261E-05
CGA:  11    -0.491277037020E+03   -0.19727E-03   -0.19730E-03   688   0.277E-03-0.108E-05
CGA:  12    -0.491277109382E+03   -0.72361E-04   -0.72340E-04   688   0.142E-03-0.775E-06
  51 F= -.49531568E+03 E0= -.49529621E+03  d E =-.955294E-02  mag=     0.2654
       N       E                     dE             d eps       ncg     rms          ort
SDA:   1    -0.486308025688E+03    0.49690E+01    0.00000E+00   688   0.139E+02 0.000E+00
CGA:   2    -0.490149717176E+03   -0.38417E+01   -0.38415E+01   688   0.351E+01-0.908E-02
CGA:   3    -0.491058117468E+03   -0.90840E+00   -0.90867E+00   688   0.857E+00 0.412E-02
CGA:   4    -0.491231478820E+03   -0.17336E+00   -0.17346E+00   688   0.178E+00 0.154E-03
CGA:   5    -0.491270119390E+03   -0.38641E-01   -0.38627E-01   688   0.489E-01 0.127E-04
CGA:   6    -0.491281831914E+03   -0.11713E-01   -0.11714E-01   688   0.151E-01 0.695E-06
CGA:   7    -0.491286816036E+03   -0.49841E-02   -0.49835E-02   688   0.685E-02 0.121E-04
CGA:   8    -0.491289290390E+03   -0.24744E-02   -0.24737E-02   688   0.304E-02 0.743E-05
CGA:   9    -0.491290293668E+03   -0.10033E-02   -0.10032E-02   688   0.103E-02 0.240E-05
CGA:  10    -0.491290602435E+03   -0.30877E-03   -0.30874E-03   688   0.332E-03 0.217E-05
CGA:  11    -0.491290699649E+03   -0.97213E-04   -0.97217E-04   688   0.152E-03-0.620E-06
  52 F= -.49532930E+03 E0= -.49530949E+03  d E =-.231751E-01  mag=     0.2663
       N       E                     dE             d eps       ncg     rms          ort
SDA:   1    -0.490468173063E+03    0.82243E+00    0.00000E+00   688   0.231E+01 0.000E+00
CGA:   2    -0.491113803746E+03   -0.64563E+00   -0.64564E+00   688   0.572E+00 0.388E-03
CGA:   3    -0.491265479924E+03   -0.15168E+00   -0.15167E+00   688   0.129E+00-0.232E-04
CGA:   4    -0.491292999326E+03   -0.27519E-01   -0.27519E-01   688   0.240E-01-0.513E-06
CGA:   5    -0.491298775594E+03   -0.57763E-02   -0.57765E-02   688   0.650E-02 0.886E-05
CGA:   6    -0.491300312516E+03   -0.15369E-02   -0.15367E-02   688   0.247E-02-0.591E-05
CGA:   7    -0.491301030052E+03   -0.71754E-03   -0.71747E-03   688   0.113E-02 0.535E-05
CGA:   8    -0.491301417846E+03   -0.38779E-03   -0.38782E-03   688   0.482E-03-0.399E-06
CGA:   9    -0.491301576549E+03   -0.15870E-03   -0.15870E-03   688   0.158E-03-0.140E-07
CGA:  10    -0.491301622649E+03   -0.46100E-04   -0.46092E-04   688   0.525E-04 0.908E-06
  53 F= -.49534067E+03 E0= -.49532071E+03  d E =-.113660E-01  mag=     0.2721
       N       E                     dE             d eps       ncg     rms          ort
SDA:   1    -0.486308536709E+03    0.49930E+01    0.00000E+00   688   0.139E+02 0.000E+00
CGA:   2    -0.490184198151E+03   -0.38757E+01   -0.38757E+01   688   0.344E+01 0.528E-02
CGA:   3    -0.491090989816E+03   -0.90679E+00   -0.90684E+00   688   0.800E+00 0.151E-02
CGA:   4    -0.491257175018E+03   -0.16619E+00   -0.16621E+00   688   0.159E+00 0.109E-03
CGA:   5    -0.491292953703E+03   -0.35779E-01   -0.35772E-01   688   0.448E-01 0.941E-05
CGA:   6    -0.491303326832E+03   -0.10373E-01   -0.10374E-01   688   0.149E-01-0.114E-04
CGA:   7    -0.491308054043E+03   -0.47272E-02   -0.47265E-02   688   0.677E-02 0.155E-04
CGA:   8    -0.491310479114E+03   -0.24251E-02   -0.24248E-02   688   0.297E-02 0.298E-05
CGA:   9    -0.491311460387E+03   -0.98127E-03   -0.98121E-03   688   0.963E-03 0.104E-05
CGA:  10    -0.491311758357E+03   -0.29797E-03   -0.29792E-03   688   0.279E-03 0.199E-05
CGA:  11    -0.491311855112E+03   -0.96755E-04   -0.96787E-04   688   0.993E-04-0.518E-06
  54 F= -.49535193E+03 E0= -.49533149E+03  d E =-.226315E-01  mag=     0.2912
       N       E                     dE             d eps       ncg     rms          ort
SDA:   1    -0.490012708220E+03    0.12991E+01    0.00000E+00   688   0.363E+01 0.000E+00
CGA:   2    -0.491026264174E+03   -0.10136E+01   -0.10136E+01   688   0.904E+00 0.167E-03
CGA:   3    -0.491264110851E+03   -0.23785E+00   -0.23785E+00   688   0.207E+00 0.104E-03
CGA:   4    -0.491307824832E+03   -0.43714E-01   -0.43713E-01   688   0.389E-01 0.154E-04
CGA:   5    -0.491317157230E+03   -0.93324E-02   -0.93330E-02   688   0.983E-02 0.142E-04
CGA:   6    -0.491319607467E+03   -0.24502E-02   -0.24501E-02   688   0.364E-02-0.517E-05
CGA:   7    -0.491320697183E+03   -0.10897E-02   -0.10896E-02   688   0.178E-02 0.854E-05
CGA:   8    -0.491321283848E+03   -0.58667E-03   -0.58673E-03   688   0.789E-03-0.140E-05
CGA:   9    -0.491321538222E+03   -0.25437E-03   -0.25428E-03   688   0.250E-03 0.232E-05
CGA:  10    -0.491321617015E+03   -0.78794E-04   -0.78801E-04   688   0.755E-04-0.260E-06
  55 F= -.49536295E+03 E0= -.49534231E+03  d E =-.110203E-01  mag=     0.3016
       N       E                     dE             d eps       ncg     rms          ort
SDA:   1    -0.491081804356E+03    0.23973E+00    0.00000E+00   688   0.666E+00 0.000E+00
CGA:   2    -0.491268028002E+03   -0.18622E+00   -0.18622E+00   688   0.166E+00 0.174E-04
CGA:   3    -0.491311781574E+03   -0.43754E-01   -0.43753E-01   688   0.378E-01-0.537E-05
CGA:   4    -0.491319783857E+03   -0.80023E-02   -0.80026E-02   688   0.705E-02 0.625E-05
CGA:   5    -0.491321495964E+03   -0.17121E-02   -0.17122E-02   688   0.169E-02 0.309E-05
CGA:   6    -0.491321949158E+03   -0.45319E-03   -0.45319E-03   688   0.605E-03-0.581E-06
CGA:   7    -0.491322148022E+03   -0.19886E-03   -0.19876E-03   688   0.307E-03 0.230E-05
CGA:   8    -0.491322248271E+03   -0.10025E-03   -0.10028E-03   688   0.148E-03-0.647E-06
CGA:   9    -0.491322292010E+03   -0.43739E-04   -0.43729E-04   688   0.477E-04 0.906E-06
  56 F= -.49536416E+03 E0= -.49534340E+03  d E =-.122303E-01  mag=     0.3091
       N       E                     dE             d eps       ncg     rms          ort
SDA:   1    -0.490150434108E+03    0.11718E+01    0.00000E+00   688   0.327E+01 0.000E+00
CGA:   2    -0.491067188592E+03   -0.91675E+00   -0.91675E+00   688   0.814E+00-0.115E-03
CGA:   3    -0.491282467701E+03   -0.21528E+00   -0.21529E+00   688   0.182E+00 0.178E-03
CGA:   4    -0.491321515213E+03   -0.39048E-01   -0.39047E-01   688   0.345E-01 0.180E-05
CGA:   5    -0.491329807182E+03   -0.82920E-02   -0.82924E-02   688   0.905E-02 0.130E-04
CGA:   6    -0.491332035166E+03   -0.22280E-02   -0.22278E-02   688   0.348E-02-0.848E-05
CGA:   7    -0.491333070893E+03   -0.10357E-02   -0.10356E-02   688   0.166E-02 0.837E-05
CGA:   8    -0.491333634187E+03   -0.56329E-03   -0.56333E-03   688   0.717E-03-0.691E-06
CGA:   9    -0.491333866252E+03   -0.23207E-03   -0.23201E-03   688   0.237E-03 0.144E-05
CGA:  10    -0.491333933616E+03   -0.67364E-04   -0.67364E-04   688   0.875E-04 0.459E-06
  57 F= -.49537728E+03 E0= -.49535635E+03  d E =-.131135E-01  mag=     0.3184
       N       E                     dE             d eps       ncg     rms          ort
SDA:   1    -0.488563482961E+03    0.27704E+01    0.00000E+00   688   0.768E+01 0.000E+00
CGA:   2    -0.490713133415E+03   -0.21497E+01   -0.21496E+01   688   0.191E+01-0.700E-03
CGA:   3    -0.491217487583E+03   -0.50435E+00   -0.50439E+00   688   0.432E+00 0.983E-03
CGA:   4    -0.491309306262E+03   -0.91819E-01   -0.91817E-01   688   0.838E-01 0.160E-04
CGA:   5    -0.491328897489E+03   -0.19591E-01   -0.19591E-01   688   0.228E-01 0.199E-04
CGA:   6    -0.491334316634E+03   -0.54191E-02   -0.54190E-02   688   0.837E-02-0.118E-04
CGA:   7    -0.491336854839E+03   -0.25382E-02   -0.25379E-02   688   0.391E-02 0.122E-04
CGA:   8    -0.491338209575E+03   -0.13547E-02   -0.13546E-02   688   0.170E-02 0.135E-05
CGA:   9    -0.491338760899E+03   -0.55132E-03   -0.55125E-03   688   0.588E-03 0.168E-05
CGA:  10    -0.491338922116E+03   -0.16122E-03   -0.16123E-03   688   0.223E-03 0.110E-05
CGA:  11    -0.491338977709E+03   -0.55593E-04   -0.55589E-04   688   0.904E-04-0.125E-06
  58 F= -.49538454E+03 E0= -.49536342E+03  d E =-.203788E-01  mag=     0.3305
       N       E                     dE             d eps       ncg     rms          ort
SDA:   1    -0.490003699218E+03    0.13352E+01    0.00000E+00   688   0.371E+01 0.000E+00
CGA:   2    -0.491047144459E+03   -0.10434E+01   -0.10434E+01   688   0.926E+00-0.392E-03
CGA:   3    -0.491291657239E+03   -0.24451E+00   -0.24452E+00   688   0.207E+00 0.315E-03
CGA:   4    -0.491335962149E+03   -0.44305E-01   -0.44303E-01   688   0.398E-01 0.721E-05
CGA:   5    -0.491345433947E+03   -0.94718E-02   -0.94720E-02   688   0.105E-01 0.136E-04
CGA:   6    -0.491347973461E+03   -0.25395E-02   -0.25393E-02   688   0.408E-02-0.877E-05
CGA:   7    -0.491349164551E+03   -0.11911E-02   -0.11910E-02   688   0.194E-02 0.683E-05
CGA:   8    -0.491349822681E+03   -0.65813E-03   -0.65807E-03   688   0.857E-03 0.923E-06
CGA:   9    -0.491350098538E+03   -0.27586E-03   -0.27586E-03   688   0.316E-03 0.720E-07
CGA:  10    -0.491350182420E+03   -0.83883E-04   -0.83899E-04   688   0.125E-03 0.117E-05
  59 F= -.49539693E+03 E0= -.49537537E+03  d E =-.123883E-01  mag=     0.3495
       N       E                     dE             d eps       ncg     rms          ort
SDA:   1    -0.486611628204E+03    0.47385E+01    0.00000E+00   688   0.131E+02 0.000E+00
CGA:   2    -0.490287309820E+03   -0.36757E+01   -0.36757E+01   688   0.328E+01-0.395E-02
CGA:   3    -0.491147589156E+03   -0.86028E+00   -0.86038E+00   688   0.745E+00 0.339E-02
CGA:   4    -0.491305222465E+03   -0.15763E+00   -0.15763E+00   688   0.150E+00 0.557E-04
CGA:   5    -0.491339139487E+03   -0.33917E-01   -0.33909E-01   688   0.419E-01-0.757E-05
CGA:   6    -0.491348925779E+03   -0.97863E-02   -0.97867E-02   688   0.145E-01-0.103E-04
CGA:   7    -0.491353473631E+03   -0.45479E-02   -0.45475E-02   688   0.666E-02 0.109E-04
CGA:   8    -0.491355837005E+03   -0.23634E-02   -0.23630E-02   688   0.300E-02 0.484E-05
CGA:   9    -0.491356786292E+03   -0.94929E-03   -0.94931E-03   688   0.119E-02 0.315E-06
CGA:  10    -0.491357082261E+03   -0.29597E-03   -0.29602E-03   688   0.477E-03 0.141E-05
CGA:  11    -0.491357209388E+03   -0.12713E-03   -0.12712E-03   688   0.186E-03-0.177E-06
CGA:  12    -0.491357277175E+03   -0.67787E-04   -0.67851E-04   688   0.996E-04-0.733E-06
  60 F= -.49540616E+03 E0= -.49538373E+03  d E =-.216212E-01  mag=     0.3975
       N       E                     dE             d eps       ncg     rms          ort
SDA:   1    -0.490782658412E+03    0.57455E+00    0.00000E+00   688   0.158E+01 0.000E+00
CGA:   2    -0.491234616708E+03   -0.45196E+00   -0.45196E+00   688   0.406E+00-0.906E-05
CGA:   3    -0.491339882217E+03   -0.10527E+00   -0.10527E+00   688   0.900E-01-0.980E-05
CGA:   4    -0.491359171868E+03   -0.19290E-01   -0.19290E-01   688   0.169E-01 0.152E-04
CGA:   5    -0.491363295330E+03   -0.41235E-02   -0.41234E-02   688   0.442E-02-0.807E-06
CGA:   6    -0.491364377634E+03   -0.10823E-02   -0.10823E-02   688   0.177E-02 0.232E-05
CGA:   7    -0.491364891889E+03   -0.51425E-03   -0.51428E-03   688   0.905E-03-0.230E-05
CGA:   8    -0.491365187851E+03   -0.29596E-03   -0.29596E-03   688   0.443E-03 0.275E-06
CGA:   9    -0.491365328827E+03   -0.14098E-03   -0.14094E-03   688   0.197E-03 0.107E-05
CGA:  10    -0.491365385901E+03   -0.57074E-04   -0.57079E-04   688   0.951E-04-0.873E-06
  61 F= -.49541456E+03 E0= -.49539188E+03  d E =-.840232E-02  mag=     0.4369
       N       E                     dE             d eps       ncg     rms          ort
SDA:   1    -0.490707581607E+03    0.65775E+00    0.00000E+00   688   0.179E+01 0.000E+00
CGA:   2    -0.491219904062E+03   -0.51232E+00   -0.51232E+00   688   0.461E+00-0.205E-04
CGA:   3    -0.491339268039E+03   -0.11936E+00   -0.11936E+00   688   0.103E+00 0.478E-05
CGA:   4    -0.491361160550E+03   -0.21893E-01   -0.21889E-01   688   0.202E-01 0.955E-05
CGA:   5    -0.491365843718E+03   -0.46832E-02   -0.46833E-02   688   0.552E-02 0.309E-07
CGA:   6    -0.491367149702E+03   -0.13060E-02   -0.13059E-02   688   0.203E-02 0.190E-05
CGA:   7    -0.491367768854E+03   -0.61915E-03   -0.61920E-03   688   0.101E-02-0.179E-05
CGA:   8    -0.491368111606E+03   -0.34275E-03   -0.34276E-03   688   0.517E-03 0.848E-07
CGA:   9    -0.491368271986E+03   -0.16038E-03   -0.16035E-03   688   0.241E-03 0.108E-05
CGA:  10    -0.491368339500E+03   -0.67513E-04   -0.67511E-04   688   0.108E-03-0.604E-06
  62 F= -.49541782E+03 E0= -.49539494E+03  d E =-.116538E-01  mag=     0.4770
       N       E                     dE             d eps       ncg     rms          ort
SDA:   1    -0.490729353756E+03    0.63892E+00    0.00000E+00   688   0.174E+01 0.000E+00
CGA:   2    -0.491230002479E+03   -0.50065E+00   -0.50065E+00   688   0.461E+00 0.678E-04
CGA:   3    -0.491347337597E+03   -0.11734E+00   -0.11733E+00   688   0.104E+00-0.655E-04
CGA:   4    -0.491369251700E+03   -0.21914E-01   -0.21909E-01   688   0.210E-01 0.305E-05
CGA:   5    -0.491373964919E+03   -0.47132E-02   -0.47132E-02   688   0.574E-02-0.413E-05
CGA:   6    -0.491375317775E+03   -0.13529E-02   -0.13529E-02   688   0.194E-02 0.400E-05
CGA:   7    -0.491375922457E+03   -0.60468E-03   -0.60476E-03   688   0.953E-03-0.215E-05
CGA:   8    -0.491376240138E+03   -0.31768E-03   -0.31773E-03   688   0.498E-03-0.576E-06
CGA:   9    -0.491376388541E+03   -0.14840E-03   -0.14839E-03   688   0.234E-03 0.819E-06
CGA:  10    -0.491376454238E+03   -0.65697E-04   -0.65696E-04   688   0.102E-03-0.410E-06
  63 F= -.49542556E+03 E0= -.49540246E+03  d E =-.774366E-02  mag=     0.5140
       N       E                     dE             d eps       ncg     rms          ort
SDA:   1    -0.491158892918E+03    0.21750E+00    0.00000E+00   688   0.590E+00 0.000E+00
CGA:   2    -0.491328269572E+03   -0.16938E+00   -0.16938E+00   688   0.156E+00 0.481E-05
CGA:   3    -0.491367959981E+03   -0.39690E-01   -0.39689E-01   688   0.358E-01-0.281E-04
CGA:   4    -0.491375397113E+03   -0.74371E-02   -0.74359E-02   688   0.741E-02 0.492E-05
CGA:   5    -0.491377018962E+03   -0.16218E-02   -0.16217E-02   688   0.202E-02-0.402E-05
CGA:   6    -0.491377500109E+03   -0.48115E-03   -0.48123E-03   688   0.666E-03 0.277E-05
CGA:   7    -0.491377716276E+03   -0.21617E-03   -0.21623E-03   688   0.345E-03-0.126E-05
CGA:   8    -0.491377834410E+03   -0.11813E-03   -0.11817E-03   688   0.202E-03-0.521E-06
CGA:   9    -0.491377896294E+03   -0.61884E-04   -0.61871E-04   688   0.111E-03 0.474E-06
  64 F= -.49542677E+03 E0= -.49540346E+03  d E =-.895626E-02  mag=     0.5466
       N       E                     dE             d eps       ncg     rms          ort
SDA:   1    -0.491187958436E+03    0.18988E+00    0.00000E+00   688   0.519E+00 0.000E+00
CGA:   2    -0.491338571895E+03   -0.15061E+00   -0.15061E+00   688   0.140E+00-0.110E-04
CGA:   3    -0.491373617890E+03   -0.35046E-01   -0.35043E-01   688   0.321E-01-0.409E-04
CGA:   4    -0.491380328100E+03   -0.67102E-02   -0.67106E-02   688   0.630E-02 0.117E-04
CGA:   5    -0.491381750138E+03   -0.14220E-02   -0.14220E-02   688   0.175E-02-0.164E-05
CGA:   6    -0.491382163488E+03   -0.41335E-03   -0.41346E-03   688   0.604E-03 0.335E-05
CGA:   7    -0.491382353339E+03   -0.18985E-03   -0.18988E-03   688   0.315E-03-0.893E-06
CGA:   8    -0.491382459456E+03   -0.10612E-03   -0.10614E-03   688   0.181E-03-0.265E-06
CGA:   9    -0.491382516130E+03   -0.56675E-04   -0.56651E-04   688   0.100E-03 0.647E-06
  65 F= -.49543133E+03 E0= -.49540781E+03  d E =-.455748E-02  mag=     0.5794
       N       E                     dE             d eps       ncg     rms          ort
SDA:   1    -0.490966415196E+03    0.41604E+00    0.00000E+00   688   0.112E+01 0.000E+00
CGA:   2    -0.491290490968E+03   -0.32408E+00   -0.32408E+00   688   0.301E+00-0.262E-04
CGA:   3    -0.491365890682E+03   -0.75400E-01   -0.75394E-01   688   0.687E-01-0.809E-04
CGA:   4    -0.491380288674E+03   -0.14398E-01   -0.14397E-01   688   0.135E-01 0.154E-04
CGA:   5    -0.491383335094E+03   -0.30464E-02   -0.30465E-02   688   0.374E-02-0.142E-05
CGA:   6    -0.491384208996E+03   -0.87390E-03   -0.87403E-03   688   0.128E-02 0.447E-05
CGA:   7    -0.491384603257E+03   -0.39426E-03   -0.39430E-03   688   0.630E-03-0.106E-05
CGA:   8    -0.491384813191E+03   -0.20993E-03   -0.20997E-03   688   0.330E-03-0.455E-06
CGA:   9    -0.491384912742E+03   -0.99550E-04   -0.99525E-04   688   0.161E-03 0.100E-05
  66 F= -.49543363E+03 E0= -.49540995E+03  d E =-.685362E-02  mag=     0.6070
       N       E                     dE             d eps       ncg     rms          ort
SDA:   1    -0.491263377342E+03    0.12144E+00    0.00000E+00   688   0.327E+00 0.000E+00
CGA:   2    -0.491360800920E+03   -0.97424E-01   -0.97424E-01   688   0.880E-01-0.277E-04
CGA:   3    -0.491383178403E+03   -0.22377E-01   -0.22377E-01   688   0.188E-01-0.273E-05
CGA:   4    -0.491387239227E+03   -0.40608E-02   -0.40610E-02   688   0.361E-02 0.388E-05
CGA:   5    -0.491388109685E+03   -0.87046E-03   -0.87047E-03   688   0.102E-02 0.291E-06
CGA:   6    -0.491388359509E+03   -0.24982E-03   -0.24983E-03   688   0.427E-03 0.429E-06
CGA:   7    -0.491388489124E+03   -0.12962E-03   -0.12962E-03   688   0.231E-03-0.342E-06
CGA:   8    -0.491388567111E+03   -0.77986E-04   -0.77982E-04   688   0.132E-03 0.119E-06
  67 F= -.49543760E+03 E0= -.49541374E+03  d E =-.397078E-02  mag=     0.6372
       N       E                     dE             d eps       ncg     rms          ort
SDA:   1    -0.490267183633E+03    0.11213E+01    0.00000E+00   688   0.295E+01 0.000E+00
CGA:   2    -0.491142963759E+03   -0.87578E+00   -0.87579E+00   688   0.794E+00-0.561E-03
CGA:   3    -0.491344150182E+03   -0.20119E+00   -0.20120E+00   688   0.172E+00 0.171E-03
CGA:   4    -0.491380702773E+03   -0.36553E-01   -0.36542E-01   688   0.343E-01-0.118E-04
CGA:   5    -0.491388732224E+03   -0.80295E-02   -0.80297E-02   688   0.952E-02 0.653E-05
CGA:   6    -0.491391015211E+03   -0.22830E-02   -0.22828E-02   688   0.364E-02-0.309E-05
CGA:   7    -0.491392096336E+03   -0.10811E-02   -0.10811E-02   688   0.178E-02 0.170E-05
CGA:   8    -0.491392680009E+03   -0.58367E-03   -0.58365E-03   688   0.837E-03 0.729E-06
CGA:   9    -0.491392941186E+03   -0.26118E-03   -0.26115E-03   688   0.361E-03 0.448E-06
CGA:  10    -0.491393038362E+03   -0.97176E-04   -0.97182E-04   688   0.152E-03 0.741E-06
  68 F= -.49544300E+03 E0= -.49541894E+03  d E =-.937491E-02  mag=     0.6812
       N       E                     dE             d eps       ncg     rms          ort
SDA:   1    -0.491258993889E+03    0.13395E+00    0.00000E+00   688   0.359E+00 0.000E+00
CGA:   2    -0.491365843583E+03   -0.10685E+00   -0.10685E+00   688   0.992E-01-0.668E-04
CGA:   3    -0.491390838675E+03   -0.24995E-01   -0.24996E-01   688   0.219E-01 0.241E-04
CGA:   4    -0.491395411199E+03   -0.45725E-02   -0.45725E-02   688   0.476E-02-0.285E-05
CGA:   5    -0.491396456535E+03   -0.10453E-02   -0.10456E-02   688   0.133E-02 0.666E-05
CGA:   6    -0.491396790429E+03   -0.33389E-03   -0.33381E-03   688   0.481E-03-0.410E-05
CGA:   7    -0.491396950761E+03   -0.16033E-03   -0.16027E-03   688   0.251E-03 0.952E-06
CGA:   8    -0.491397036488E+03   -0.85727E-04   -0.85681E-04   688   0.142E-03 0.654E-06
  69 F= -.49544737E+03 E0= -.49542327E+03  d E =-.437374E-02  mag=     0.7056
       N       E                     dE             d eps       ncg     rms          ort
SDA:   1    -0.490827934199E+03    0.56902E+00    0.00000E+00   688   0.149E+01 0.000E+00
CGA:   2    -0.491270347137E+03   -0.44241E+00   -0.44243E+00   688   0.414E+00-0.527E-03
CGA:   3    -0.491373584409E+03   -0.10324E+00   -0.10324E+00   688   0.947E-01 0.101E-03
CGA:   4    -0.491392873812E+03   -0.19289E-01   -0.19293E-01   688   0.204E-01 0.257E-05
CGA:   5    -0.491397397673E+03   -0.45239E-02   -0.45233E-02   688   0.569E-02 0.825E-05
CGA:   6    -0.491398805241E+03   -0.14076E-02   -0.14074E-02   688   0.197E-02-0.742E-05
CGA:   7    -0.491399447364E+03   -0.64212E-03   -0.64204E-03   688   0.946E-03 0.164E-05
CGA:   8    -0.491399765109E+03   -0.31774E-03   -0.31766E-03   688   0.460E-03 0.130E-05
CGA:   9    -0.491399896462E+03   -0.13135E-03   -0.13136E-03   688   0.205E-03-0.699E-06
CGA:  10    -0.491399949743E+03   -0.53281E-04   -0.53287E-04   688   0.781E-04 0.327E-06
  70 F= -.49545103E+03 E0= -.49542695E+03  d E =-.803258E-02  mag=     0.7224
       N       E                     dE             d eps       ncg     rms          ort
SDA:   1    -0.491292638974E+03    0.10726E+00    0.00000E+00   688   0.285E+00 0.000E+00
CGA:   2    -0.491377535168E+03   -0.84896E-01   -0.84898E-01   688   0.820E-01-0.592E-04
CGA:   3    -0.491397458208E+03   -0.19923E-01   -0.19924E-01   688   0.197E-01 0.196E-04
CGA:   4    -0.491401353134E+03   -0.38949E-02   -0.38954E-02   688   0.428E-02 0.786E-06
CGA:   5    -0.491402280224E+03   -0.92709E-03   -0.92746E-03   688   0.111E-02 0.826E-05
CGA:   6    -0.491402564485E+03   -0.28426E-03   -0.28421E-03   688   0.371E-03-0.299E-05
CGA:   7    -0.491402687386E+03   -0.12290E-03   -0.12284E-03   688   0.182E-03 0.103E-05
CGA:   8    -0.491402749182E+03   -0.61795E-04   -0.61745E-04   688   0.933E-04 0.761E-06
  71 F= -.49545420E+03 E0= -.49543015E+03  d E =-.317108E-02  mag=     0.7292
       N       E                     dE             d eps       ncg     rms          ort
SDA:   1    -0.491300410380E+03    0.10228E+00    0.00000E+00   688   0.267E+00 0.000E+00
CGA:   2    -0.491379872260E+03   -0.79462E-01   -0.79464E-01   688   0.766E-01-0.512E-04
CGA:   3    -0.491398472069E+03   -0.18600E-01   -0.18601E-01   688   0.185E-01 0.145E-04
CGA:   4    -0.491402135256E+03   -0.36632E-02   -0.36636E-02   688   0.388E-02 0.253E-05
CGA:   5    -0.491403001144E+03   -0.86589E-03   -0.86616E-03   688   0.108E-02 0.696E-05
CGA:   6    -0.491403268504E+03   -0.26736E-03   -0.26730E-03   688   0.370E-03-0.272E-05
CGA:   7    -0.491403387248E+03   -0.11874E-03   -0.11870E-03   688   0.179E-03 0.901E-06
CGA:   8    -0.491403447087E+03   -0.59839E-04   -0.59792E-04   688   0.868E-04 0.762E-06
  72 F= -.49545526E+03 E0= -.49543125E+03  d E =-.422480E-02  mag=     0.7302
       N       E                     dE             d eps       ncg     rms          ort
SDA:   1    -0.491323202161E+03    0.80185E-01    0.00000E+00   688   0.212E+00 0.000E+00
CGA:   2    -0.491387162875E+03   -0.63961E-01   -0.63963E-01   688   0.626E-01-0.553E-04
CGA:   3    -0.491402110206E+03   -0.14947E-01   -0.14951E-01   688   0.151E-01 0.414E-04
CGA:   4    -0.491405073779E+03   -0.29636E-02   -0.29637E-02   688   0.323E-02-0.301E-05
CGA:   5    -0.491405784383E+03   -0.71060E-03   -0.71082E-03   688   0.920E-03 0.536E-05
CGA:   6    -0.491406013103E+03   -0.22872E-03   -0.22866E-03   688   0.310E-03-0.282E-05
CGA:   7    -0.491406115618E+03   -0.10251E-03   -0.10248E-03   688   0.149E-03 0.482E-06
CGA:   8    -0.491406165250E+03   -0.49632E-04   -0.49550E-04   688   0.689E-04 0.135E-05
  73 F= -.49545826E+03 E0= -.49543430E+03  d E =-.300336E-02  mag=     0.7290
       N       E                     dE             d eps       ncg     rms          ort
SDA:   1    -0.491011850288E+03    0.39427E+00    0.00000E+00   688   0.101E+01 0.000E+00
CGA:   2    -0.491317227783E+03   -0.30538E+00   -0.30540E+00   688   0.299E+00-0.560E-03
CGA:   3    -0.491388605505E+03   -0.71378E-01   -0.71411E-01   688   0.725E-01 0.318E-03
CGA:   4    -0.491402711923E+03   -0.14106E-01   -0.14110E-01   688   0.158E-01-0.539E-05
CGA:   5    -0.491406139449E+03   -0.34275E-02   -0.34275E-02   688   0.435E-02 0.115E-04
CGA:   6    -0.491407226598E+03   -0.10871E-02   -0.10870E-02   688   0.142E-02-0.610E-05
CGA:   7    -0.491407697508E+03   -0.47091E-03   -0.47086E-03   688   0.673E-03 0.860E-06
CGA:   8    -0.491407919318E+03   -0.22181E-03   -0.22161E-03   688   0.304E-03 0.342E-05
CGA:   9    -0.491408011475E+03   -0.92158E-04   -0.92186E-04   688   0.110E-03-0.103E-05
  74 F= -.49546071E+03 E0= -.49543694E+03  d E =-.545624E-02  mag=     0.7168
       N       E                     dE             d eps       ncg     rms          ort
SDA:   1    -0.491337124510E+03    0.70795E-01    0.00000E+00   688   0.184E+00 0.000E+00
CGA:   2    -0.491394033308E+03   -0.56909E-01   -0.56910E-01   688   0.529E-01-0.306E-04
CGA:   3    -0.491406744859E+03   -0.12712E-01   -0.12712E-01   688   0.126E-01 0.136E-04
CGA:   4    -0.491409217084E+03   -0.24722E-02   -0.24722E-02   688   0.278E-02-0.379E-05
CGA:   5    -0.491409813497E+03   -0.59641E-03   -0.59664E-03   688   0.787E-03 0.509E-05
CGA:   6    -0.491410011389E+03   -0.19789E-03   -0.19785E-03   688   0.259E-03-0.226E-05
CGA:   7    -0.491410100187E+03   -0.88797E-04   -0.88756E-04   688   0.122E-03 0.541E-06
  75 F= -.49546275E+03 E0= -.49543902E+03  d E =-.203258E-02  mag=     0.7122
