       N       E                     dE             d eps       ncg     rms          rms(c)
DAV:   1     0.253816786130E+04    0.25382E+04   -0.11208E+05  4376   0.107E+03
DAV:   2    -0.239931233762E+03   -0.27781E+04   -0.26523E+04  5464   0.280E+02
DAV:   3    -0.700074580832E+03   -0.46014E+03   -0.45599E+03  4584   0.120E+02
DAV:   4    -0.716691541306E+03   -0.16617E+02   -0.16481E+02  4680   0.282E+01
DAV:   5    -0.717236008105E+03   -0.54447E+00   -0.54282E+00  5336   0.422E+00    0.479E+01
DAV:   6    -0.710976028664E+03    0.62600E+01   -0.71782E+01  4800   0.301E+01    0.721E+01
DAV:   7    -0.675328631082E+03    0.35647E+02   -0.77893E+01  5328   0.592E+01    0.253E+01
DAV:   8    -0.668740363729E+03    0.65883E+01   -0.31422E+01  4784   0.126E+01    0.228E+01
DAV:   9    -0.664911675208E+03    0.38287E+01   -0.21855E+01  4656   0.143E+01    0.156E+01
DAV:  10    -0.663369916973E+03    0.15418E+01   -0.10196E+01  5280   0.116E+01    0.732E+00
DAV:  11    -0.663206088423E+03    0.16383E+00   -0.11163E+00  5104   0.342E+00    0.599E+00
DAV:  12    -0.663200615364E+03    0.54731E-02   -0.47841E-01  4696   0.226E+00    0.445E+00
DAV:  13    -0.663207089134E+03   -0.64738E-02   -0.39523E-01  4672   0.159E+00    0.228E+00
DAV:  14    -0.663209612774E+03   -0.25236E-02   -0.44409E-02  4432   0.671E-01    0.202E+00
DAV:  15    -0.663209180373E+03    0.43240E-03   -0.14560E-02  4688   0.323E-01    0.159E+00
DAV:  16    -0.663207310184E+03    0.18702E-02   -0.37738E-03  4928   0.172E-01    0.115E+00
DAV:  17    -0.663206557519E+03    0.75267E-03   -0.16809E-03  4824   0.100E-01    0.800E-01
DAV:  18    -0.663206435035E+03    0.12248E-03   -0.61916E-04  3800   0.653E-02    0.601E-01
DAV:  19    -0.663206309595E+03    0.12544E-03   -0.23097E-04  3232   0.355E-02    0.420E-01
DAV:  20    -0.663206208402E+03    0.10119E-03   -0.10185E-04  2600   0.270E-02    0.265E-01
DAV:  21    -0.663206153576E+03    0.54826E-04   -0.86264E-05  2648   0.212E-02
   1 F= -.66977993E+03 E0= -.66977993E+03  d E =0.000000E+00  mag=    -0.9997
