       N       E                     dE             d eps       ncg     rms          rms(c)
DAV:   1     0.253573084726E+04    0.25357E+04   -0.11201E+05  4368   0.106E+03
DAV:   2    -0.242755066786E+03   -0.27785E+04   -0.26548E+04  5488   0.281E+02
DAV:   3    -0.700425682692E+03   -0.45767E+03   -0.45350E+03  4592   0.120E+02
DAV:   4    -0.716910913768E+03   -0.16485E+02   -0.16342E+02  4640   0.280E+01
DAV:   5    -0.717453008865E+03   -0.54210E+00   -0.54023E+00  5272   0.424E+00    0.479E+01
DAV:   6    -0.711695459653E+03    0.57575E+01   -0.69873E+01  4744   0.303E+01    0.727E+01
DAV:   7    -0.675441991194E+03    0.36253E+02   -0.75807E+01  5280   0.594E+01    0.254E+01
DAV:   8    -0.669218571166E+03    0.62234E+01   -0.33127E+01  4856   0.131E+01    0.232E+01
DAV:   9    -0.664755484915E+03    0.44631E+01   -0.22838E+01  4632   0.141E+01    0.151E+01
DAV:  10    -0.663492604767E+03    0.12629E+01   -0.94651E+00  5288   0.110E+01    0.731E+00
DAV:  11    -0.663284177439E+03    0.20843E+00   -0.84386E-01  5064   0.309E+00    0.488E+00
DAV:  12    -0.663177115706E+03    0.10706E+00   -0.58483E-01  4864   0.260E+00    0.432E+00
DAV:  13    -0.663244088057E+03   -0.66972E-01   -0.12556E-01  4608   0.782E-01    0.404E+00
DAV:  14    -0.663325525781E+03   -0.81438E-01   -0.70690E-02  5016   0.930E-01    0.319E+00
DAV:  15    -0.663300338950E+03    0.25187E-01   -0.13036E-01  4816   0.952E-01    0.180E+00
DAV:  16    -0.663307313716E+03   -0.69748E-02   -0.25299E-02  4592   0.568E-01    0.156E+00
DAV:  17    -0.663307315429E+03   -0.17125E-05   -0.46583E-03  4536   0.182E-01    0.120E+00
DAV:  18    -0.663306583322E+03    0.73211E-03   -0.14460E-03  4848   0.995E-02    0.937E-01
DAV:  19    -0.663306268357E+03    0.31496E-03   -0.54915E-04  3784   0.625E-02    0.735E-01
DAV:  20    -0.663305997259E+03    0.27110E-03   -0.32666E-04  3584   0.599E-02    0.501E-01
DAV:  21    -0.663305772837E+03    0.22442E-03   -0.28865E-04  3576   0.494E-02    0.263E-01
DAV:  22    -0.663305739793E+03    0.33044E-04   -0.87509E-05  2608   0.228E-02
   1 F= -.66987796E+03 E0= -.66987796E+03  d E =0.000000E+00  mag=    -1.0013
