 vasp.5.4.4.18Apr17-6-g9f103f2a35 (build Jan 14 2022 15:04:31) complex          
  
 executed on             LinuxIFC date 2023.01.27  22:53:27
 running on   48 total cores
 distrk:  each k-point on   48 cores,    1 groups
 distr:  one band on NCORES_PER_BAND=  12 cores,    4 groups


--------------------------------------------------------------------------------------------------------


 INCAR:
 POTCAR:    PAW_PBE C 08Apr2002                   
 POTCAR:    PAW_PBE N 08Apr2002                   
 POTCAR:    PAW_PBE C 08Apr2002                   
 POTCAR:    PAW_PBE Cr_pv 02Aug2007               
 POTCAR:    PAW_PBE C 08Apr2002                   
 POTCAR:    PAW_PBE O 08Apr2002                   
 POTCAR:    PAW_PBE C 08Apr2002                   
   SHA256 =  253f7b50bb8d59471dbedb8285d89021f4a42ed1a2c5d38a03a736e69125dd95 C/
   COPYR  = (c) Copyright 08Apr2002 Georg Kresse                                
   COPYR  = This file is part of the software VASP. Any use, copying, and all ot
   COPYR  = If you do not have a valid VASP license, you may not use, copy or di
   VRHFIN =C: s2p2                                                              
   LEXCH  = PE                                                                  
   EATOM  =   147.1560 eV,   10.8157 Ry                                         
                                                                                
   TITEL  = PAW_PBE C 08Apr2002                                                 
   LULTRA =        F    use ultrasoft PP ?                                      
   IUNSCR =        1    unscreen: 0-lin 1-nonlin 2-no                           
   RPACOR =    1.200    partial core radius                                     
   POMASS =   12.011; ZVAL   =    4.000    mass and valenz                      
   RCORE  =    1.500    outmost cutoff radius                                   
   RWIGS  =    1.630; RWIGS  =    0.863    wigner-seitz radius (au A)           
   ENMAX  =  400.000; ENMIN  =  300.000 eV                                      
   ICORE  =        2    local potential                                         
   LCOR   =        T    correct aug charges                                     
   LPAW   =        T    paw PP                                                  
   EAUG   =  644.873                                                            
   DEXC   =    0.000                                                            
   RMAX   =    1.529    core radius for proj-oper                               
   RAUG   =    1.300    factor for augmentation sphere                          
   RDEP   =    1.501    radius for radial grids                                 
   RDEPT  =    1.300    core radius for aug-charge                              
                                                                                
   Atomic configuration                                                         
    4 entries                                                                   
     n  l   j            E        occ.                                          
     1  0  0.50      -273.3789   2.0000                                         
     2  0  0.50       -13.7508   2.0000                                         
     2  1  0.50        -5.2854   2.0000                                         
     3  2  1.50        -5.4423   0.0000                                         
   Description                                                                  
     l       E           TYP  RCUT    TYP  RCUT                                 
     0    -13.7508458     23  1.200                                             
     0     -8.2022199     23  1.200                                             
     1     -5.2854383     23  1.500                                             
     1     34.0145650     23  1.500                                             
     2     -5.4423304      7  1.500                                             
  local pseudopotential read in
  partial core-charges read in
  partial kinetic energy density read in
  atomic valenz-charges read in
  non local Contribution for L=           0  read in
    real space projection operators read in
  non local Contribution for L=           0  read in
    real space projection operators read in
  non local Contribution for L=           1  read in
    real space projection operators read in
  non local Contribution for L=           1  read in
    real space projection operators read in
    PAW grid and wavefunctions read in
 
   number of l-projection  operators is LMAX  =           4
   number of lm-projection operators is LMMAX =           8
 
 POTCAR:    PAW_PBE N 08Apr2002                   
   SHA256 =  e053789ff3a61a86a1b75d8a110fcc91f86041011e7b0817c7c99e4e8a6349d7 N/
   COPYR  = (c) Copyright 08Apr2002 Georg Kresse                                
   COPYR  = This file is part of the software VASP. Any use, copying, and all ot
   COPYR  = If you do not have a valid VASP license, you may not use, copy or di
   VRHFIN =N: s2p3                                                              
   LEXCH  = PE                                                                  
   EATOM  =   264.5486 eV,   19.4438 Ry                                         
                                                                                
   TITEL  = PAW_PBE N 08Apr2002                                                 
   LULTRA =        F    use ultrasoft PP ?                                      
   IUNSCR =        1    unscreen: 0-lin 1-nonlin 2-no                           
   RPACOR =    1.200    partial core radius                                     
   POMASS =   14.001; ZVAL   =    5.000    mass and valenz                      
   RCORE  =    1.500    outmost cutoff radius                                   
   RWIGS  =    1.400; RWIGS  =    0.741    wigner-seitz radius (au A)           
   ENMAX  =  400.000; ENMIN  =  300.000 eV                                      
   ICORE  =        2    local potential                                         
   LCOR   =        T    correct aug charges                                     
   LPAW   =        T    paw PP                                                  
   EAUG   =  627.112                                                            
   DEXC   =    0.000                                                            
   RMAX   =    1.529    core radius for proj-oper                               
   RAUG   =    1.300    factor for augmentation sphere                          
   RDEP   =    1.514    radius for radial grids                                 
   RDEPT  =    1.338    core radius for aug-charge                              
                                                                                
   Atomic configuration                                                         
    4 entries                                                                   
     n  l   j            E        occ.                                          
     1  0  0.50      -384.7179   2.0000                                         
     2  0  0.50       -18.5828   2.0000                                         
     2  1  0.50        -7.0898   3.0000                                         
     3  2  1.50        -6.8029   0.0000                                         
   Description                                                                  
     l       E           TYP  RCUT    TYP  RCUT                                 
     0    -18.5828119     23  1.200                                             
     0    -13.5018863     23  1.200                                             
     1     -7.0897853     23  1.500                                             
     1      9.5240782     23  1.500                                             
     2     -6.8029130      7  1.500                                             
  local pseudopotential read in
  partial core-charges read in
  partial kinetic energy density read in
  atomic valenz-charges read in
  non local Contribution for L=           0  read in
    real space projection operators read in
  non local Contribution for L=           0  read in
    real space projection operators read in
  non local Contribution for L=           1  read in
    real space projection operators read in
  non local Contribution for L=           1  read in
    real space projection operators read in
    PAW grid and wavefunctions read in
 
   number of l-projection  operators is LMAX  =           4
   number of lm-projection operators is LMMAX =           8
 
 POTCAR:    PAW_PBE C 08Apr2002                   
   SHA256 =  253f7b50bb8d59471dbedb8285d89021f4a42ed1a2c5d38a03a736e69125dd95 C/
   COPYR  = (c) Copyright 08Apr2002 Georg Kresse                                
   COPYR  = This file is part of the software VASP. Any use, copying, and all ot
   COPYR  = If you do not have a valid VASP license, you may not use, copy or di
   VRHFIN =C: s2p2                                                              
   LEXCH  = PE                                                                  
   EATOM  =   147.1560 eV,   10.8157 Ry                                         
                                                                                
   TITEL  = PAW_PBE C 08Apr2002                                                 
   LULTRA =        F    use ultrasoft PP ?                                      
   IUNSCR =        1    unscreen: 0-lin 1-nonlin 2-no                           
   RPACOR =    1.200    partial core radius                                     
   POMASS =   12.011; ZVAL   =    4.000    mass and valenz                      
   RCORE  =    1.500    outmost cutoff radius                                   
   RWIGS  =    1.630; RWIGS  =    0.863    wigner-seitz radius (au A)           
   ENMAX  =  400.000; ENMIN  =  300.000 eV                                      
   ICORE  =        2    local potential                                         
   LCOR   =        T    correct aug charges                                     
   LPAW   =        T    paw PP                                                  
   EAUG   =  644.873                                                            
   DEXC   =    0.000                                                            
   RMAX   =    1.529    core radius for proj-oper                               
   RAUG   =    1.300    factor for augmentation sphere                          
   RDEP   =    1.501    radius for radial grids                                 
   RDEPT  =    1.300    core radius for aug-charge                              
                                                                                
   Atomic configuration                                                         
    4 entries                                                                   
     n  l   j            E        occ.                                          
     1  0  0.50      -273.3789   2.0000                                         
     2  0  0.50       -13.7508   2.0000                                         
     2  1  0.50        -5.2854   2.0000                                         
     3  2  1.50        -5.4423   0.0000                                         
   Description                                                                  
     l       E           TYP  RCUT    TYP  RCUT                                 
     0    -13.7508458     23  1.200                                             
     0     -8.2022199     23  1.200                                             
     1     -5.2854383     23  1.500                                             
     1     34.0145650     23  1.500                                             
     2     -5.4423304      7  1.500                                             
  local pseudopotential read in
  partial core-charges read in
  partial kinetic energy density read in
  atomic valenz-charges read in
  non local Contribution for L=           0  read in
    real space projection operators read in
  non local Contribution for L=           0  read in
    real space projection operators read in
  non local Contribution for L=           1  read in
    real space projection operators read in
  non local Contribution for L=           1  read in
    real space projection operators read in
    PAW grid and wavefunctions read in
 
   number of l-projection  operators is LMAX  =           4
   number of lm-projection operators is LMMAX =           8
 
 POTCAR:    PAW_PBE Cr_pv 02Aug2007               
   SHA256 =  c9a7df34d3cdbacf1090e328ef39c0b420964e11c23f63548d1ac9dd218cdba0 Cr
   COPYR  = (c) Copyright 02Aug2007 Georg Kresse                                
   COPYR  = This file is part of the software VASP. Any use, copying, and all ot
   COPYR  = If you do not have a valid VASP license, you may not use, copy or di
   VRHFIN =Cr : p6d5s1                                                          
   LEXCH  = PE                                                                  
   EATOM  =  1647.9177 eV,  121.1185 Ry                                         
                                                                                
   TITEL  = PAW_PBE Cr_pv 02Aug2007                                             
   LULTRA =        F    use ultrasoft PP ?                                      
   IUNSCR =        1    unscreen: 0-lin 1-nonlin 2-no                           
   RPACOR =    2.080    partial core radius                                     
   POMASS =   51.996; ZVAL   =   12.000    mass and valenz                      
   RCORE  =    2.300    outmost cutoff radius                                   
   RWIGS  =    2.500; RWIGS  =    1.323    wigner-seitz radius (au A)           
   ENMAX  =  265.681; ENMIN  =  199.261 eV                                      
   ICORE  =        3    local potential                                         
   LCOR   =        T    correct aug charges                                     
   LPAW   =        T    paw PP                                                  
   EAUG   =  519.424                                                            
   DEXC   =    0.000                                                            
   RMAX   =    2.356    core radius for proj-oper                               
   RAUG   =    1.300    factor for augmentation sphere                          
   RDEP   =    2.447    radius for radial grids                                 
   RDEPT  =    1.882    core radius for aug-charge                              
                                                                                
   Atomic configuration                                                         
    8 entries                                                                   
     n  l   j            E        occ.                                          
     1  0  0.50     -5880.4963   2.0000                                         
     2  0  0.50      -667.0865   2.0000                                         
     2  1  1.50      -560.6250   6.0000                                         
     3  0  0.50       -73.9860   2.0000                                         
     3  1  1.50       -45.4378   6.0000                                         
     3  2  2.50        -2.9137   5.0000                                         
     4  0  0.50        -4.0071   1.0000                                         
     4  3  2.50        -1.3606   0.0000                                         
   Description                                                                  
     l       E           TYP  RCUT    TYP  RCUT                                 
     1    -45.4377911     23  2.000                                             
     1      1.3605826     23  2.000                                             
     2     -2.9136672     23  2.300                                             
     2     -4.2742498     23  2.300                                             
     0     -4.0071320     23  2.300                                             
     0      9.4498803     23  2.300                                             
     3      2.7211652     23  2.300                                             
  local pseudopotential read in
  partial core-charges read in
  partial kinetic energy density read in
  atomic valenz-charges read in
  non local Contribution for L=           1  read in
    real space projection operators read in
  non local Contribution for L=           1  read in
    real space projection operators read in
  non local Contribution for L=           2  read in
    real space projection operators read in
  non local Contribution for L=           2  read in
    real space projection operators read in
  non local Contribution for L=           0  read in
    real space projection operators read in
  non local Contribution for L=           0  read in
    real space projection operators read in
    PAW grid and wavefunctions read in
 
   number of l-projection  operators is LMAX  =           6
   number of lm-projection operators is LMMAX =          18
 
 POTCAR:    PAW_PBE C 08Apr2002                   
   SHA256 =  253f7b50bb8d59471dbedb8285d89021f4a42ed1a2c5d38a03a736e69125dd95 C/
   COPYR  = (c) Copyright 08Apr2002 Georg Kresse                                
   COPYR  = This file is part of the software VASP. Any use, copying, and all ot
   COPYR  = If you do not have a valid VASP license, you may not use, copy or di
   VRHFIN =C: s2p2                                                              
   LEXCH  = PE                                                                  
   EATOM  =   147.1560 eV,   10.8157 Ry                                         
                                                                                
   TITEL  = PAW_PBE C 08Apr2002                                                 
   LULTRA =        F    use ultrasoft PP ?                                      
   IUNSCR =        1    unscreen: 0-lin 1-nonlin 2-no                           
   RPACOR =    1.200    partial core radius                                     
   POMASS =   12.011; ZVAL   =    4.000    mass and valenz                      
   RCORE  =    1.500    outmost cutoff radius                                   
   RWIGS  =    1.630; RWIGS  =    0.863    wigner-seitz radius (au A)           
   ENMAX  =  400.000; ENMIN  =  300.000 eV                                      
   ICORE  =        2    local potential                                         
   LCOR   =        T    correct aug charges                                     
   LPAW   =        T    paw PP                                                  
   EAUG   =  644.873                                                            
   DEXC   =    0.000                                                            
   RMAX   =    1.529    core radius for proj-oper                               
   RAUG   =    1.300    factor for augmentation sphere                          
   RDEP   =    1.501    radius for radial grids                                 
   RDEPT  =    1.300    core radius for aug-charge                              
                                                                                
   Atomic configuration                                                         
    4 entries                                                                   
     n  l   j            E        occ.                                          
     1  0  0.50      -273.3789   2.0000                                         
     2  0  0.50       -13.7508   2.0000                                         
     2  1  0.50        -5.2854   2.0000                                         
     3  2  1.50        -5.4423   0.0000                                         
   Description                                                                  
     l       E           TYP  RCUT    TYP  RCUT                                 
     0    -13.7508458     23  1.200                                             
     0     -8.2022199     23  1.200                                             
     1     -5.2854383     23  1.500                                             
     1     34.0145650     23  1.500                                             
     2     -5.4423304      7  1.500                                             
  local pseudopotential read in
  partial core-charges read in
  partial kinetic energy density read in
  atomic valenz-charges read in
  non local Contribution for L=           0  read in
    real space projection operators read in
  non local Contribution for L=           0  read in
    real space projection operators read in
  non local Contribution for L=           1  read in
    real space projection operators read in
  non local Contribution for L=           1  read in
    real space projection operators read in
    PAW grid and wavefunctions read in
 
   number of l-projection  operators is LMAX  =           4
   number of lm-projection operators is LMMAX =           8
 
 POTCAR:    PAW_PBE O 08Apr2002                   
   SHA256 =  818f92134a0a090dccd8ba1447fa70422a3b330e708bb4f08108d8ae51209ddf O/
   COPYR  = (c) Copyright 08Apr2002 Georg Kresse                                
   COPYR  = This file is part of the software VASP. Any use, copying, and all ot
   COPYR  = If you do not have a valid VASP license, you may not use, copy or di
   VRHFIN =O: s2p4                                                              
   LEXCH  = PE                                                                  
   EATOM  =   432.3788 eV,   31.7789 Ry                                         
                                                                                
   TITEL  = PAW_PBE O 08Apr2002                                                 
   LULTRA =        F    use ultrasoft PP ?                                      
   IUNSCR =        1    unscreen: 0-lin 1-nonlin 2-no                           
   RPACOR =    1.200    partial core radius                                     
   POMASS =   16.000; ZVAL   =    6.000    mass and valenz                      
   RCORE  =    1.520    outmost cutoff radius                                   
   RWIGS  =    1.550; RWIGS  =    0.820    wigner-seitz radius (au A)           
   ENMAX  =  400.000; ENMIN  =  300.000 eV                                      
   ICORE  =        2    local potential                                         
   LCOR   =        T    correct aug charges                                     
   LPAW   =        T    paw PP                                                  
   EAUG   =  605.392                                                            
   DEXC   =    0.000                                                            
   RMAX   =    1.553    core radius for proj-oper                               
   RAUG   =    1.300    factor for augmentation sphere                          
   RDEP   =    1.550    radius for radial grids                                 
   RDEPT  =    1.329    core radius for aug-charge                              
                                                                                
   Atomic configuration                                                         
    4 entries                                                                   
     n  l   j            E        occ.                                          
     1  0  0.50      -514.6923   2.0000                                         
     2  0  0.50       -23.9615   2.0000                                         
     2  1  0.50        -9.0305   4.0000                                         
     3  2  1.50        -9.5241   0.0000                                         
   Description                                                                  
     l       E           TYP  RCUT    TYP  RCUT                                 
     0    -23.9615318     23  1.200                                             
     0     -9.5240782     23  1.200                                             
     1     -9.0304911     23  1.520                                             
     1      8.1634956     23  1.520                                             
     2     -9.5240782      7  1.500                                             
  local pseudopotential read in
  partial core-charges read in
  partial kinetic energy density read in
  kinetic energy density of atom read in
  atomic valenz-charges read in
  non local Contribution for L=           0  read in
    real space projection operators read in
  non local Contribution for L=           0  read in
    real space projection operators read in
  non local Contribution for L=           1  read in
    real space projection operators read in
  non local Contribution for L=           1  read in
    real space projection operators read in
    PAW grid and wavefunctions read in
 
   number of l-projection  operators is LMAX  =           4
   number of lm-projection operators is LMMAX =           8
 

 ----------------------------------------------------------------------------- 
|                                                                             |
|  ADVICE TO THIS USER RUNNING 'VASP/VAMP'   (HEAR YOUR MASTER'S VOICE ...):  |
|                                                                             |
|      You have a (more or less) 'large supercell' and for larger cells       |
|      it might be more efficient to use real space projection opertators     |
|      So try LREAL= Auto  in the INCAR   file.                               |
|      Mind:          For very  accurate calculation you might also keep the  |
|      reciprocal projection scheme          (i.e. LREAL=.FALSE.)             |
|                                                                             |
 ----------------------------------------------------------------------------- 

  PAW_PBE C 08Apr2002                   :
 energy of atom  1       EATOM= -147.1560
 kinetic energy error for atom=    0.0132 (will be added to EATOM!!)
  PAW_PBE N 08Apr2002                   :
 energy of atom  2       EATOM= -264.5486
 kinetic energy error for atom=    0.0298 (will be added to EATOM!!)
  PAW_PBE C 08Apr2002                   :
 energy of atom  3       EATOM= -147.1560
 kinetic energy error for atom=    0.0132 (will be added to EATOM!!)
  PAW_PBE Cr_pv 02Aug2007               :
 energy of atom  4       EATOM=-1647.9177
 kinetic energy error for atom=    0.0134 (will be added to EATOM!!)
  PAW_PBE C 08Apr2002                   :
 energy of atom  5       EATOM= -147.1560
 kinetic energy error for atom=    0.0132 (will be added to EATOM!!)
  PAW_PBE O 08Apr2002                   :
 energy of atom  6       EATOM= -432.3788
 kinetic energy error for atom=    0.0458 (will be added to EATOM!!)
 
 
 POSCAR: POSCAR-clean                            
  positions in direct lattice
  velocities in cartesian coordinates
 exchange correlation table for  LEXCH =        8
   RHO(1)=    0.500       N(1)  =     2000
   RHO(2)=  100.500       N(2)  =     4000

 VTST: version 3.2, (02/03/18)

 CHAIN: initializing optimizer
 
 OPT: Using VASP Dynamics algorithm
 CHAIN: Read ICHAIN            0
 
 POSCAR: POSCAR-clean                            
  positions in direct lattice
  velocities in cartesian coordinates
 


--------------------------------------------------------------------------------------------------------


 ion  position               nearest neighbor table
   1  0.999  1.000  0.492-   2 1.42  60 1.43  70 1.44
   2  0.055  0.111  0.492-   1 1.42  13 1.42  15 1.43
   3  0.167  0.002  0.491-   4 1.42  62 1.42  60 1.43
   4  0.223  0.113  0.492-   3 1.42  15 1.43  17 1.43
   5  0.335  0.002  0.492-   6 1.42  62 1.43  64 1.43
   6  0.390  0.114  0.495-   5 1.42  19 1.43  17 1.43
   7  0.501  0.002  0.491-   8 1.42  64 1.43  66 1.43
   8  0.556  0.113  0.493-   7 1.42  21 1.42  19 1.43
   9  0.666  1.000  0.489-  10 1.41  66 1.41  68 1.42
  10  0.722  0.110  0.491-   9 1.41  23 1.42  21 1.43
  11  0.832  0.999  0.492-  12 1.41  70 1.43  68 1.43
  12  0.888  0.110  0.492-  11 1.41  13 1.43  23 1.43
  13  0.999  0.166  0.492-   2 1.42  14 1.42  12 1.43
  14  0.055  0.278  0.493-  13 1.42  27 1.42  25 1.42
  15  0.167  0.168  0.492-  16 1.42   4 1.43   2 1.43
  16  0.222  0.279  0.492-  15 1.42  27 1.43  29 1.44
  17  0.335  0.170  0.495-  18 1.42   6 1.43   4 1.43
  18  0.391  0.281  0.498-  17 1.42  29 1.43  31 1.44
  19  0.501  0.170  0.496-   8 1.43   6 1.43  20 1.43
  20  0.557  0.282  0.500-  33 1.42  19 1.43  31 1.45
  21  0.667  0.166  0.493-  22 1.42   8 1.42  10 1.43
  22  0.723  0.278  0.495-  21 1.42  35 1.42  33 1.43
  23  0.832  0.165  0.492-  10 1.42  12 1.43  24 1.43
  24  0.888  0.277  0.493-  35 1.42  23 1.43  25 1.43
  25  0.999  0.333  0.494-  26 1.42  14 1.42  24 1.43
  26  0.055  0.445  0.494-  25 1.42  37 1.42  39 1.42
  27  0.166  0.334  0.493-  28 1.42  14 1.42  16 1.43
  28  0.221  0.445  0.494-  39 1.42  27 1.42  41 1.42
  29  0.334  0.336  0.492-  30 1.41  18 1.43  16 1.44
  30  0.388  0.447  0.493-  29 1.41  41 1.42  71 1.90
  31  0.503  0.340  0.504-  32 1.43  18 1.44  20 1.45
  32  0.560  0.451  0.514-  43 1.42  31 1.43  71 2.05
  33  0.667  0.334  0.499-  20 1.42  34 1.42  22 1.43
  34  0.724  0.445  0.501-  43 1.41  33 1.42  45 1.43
  35  0.833  0.333  0.495-  24 1.42  22 1.42  36 1.42
  36  0.890  0.445  0.495-  45 1.42  37 1.42  35 1.42
  37  0.000  0.501  0.494-  36 1.42  26 1.42  38 1.42
  38  0.056  0.612  0.493-  47 1.42  37 1.42  49 1.42
  39  0.166  0.501  0.494-  28 1.42  26 1.42  40 1.42
  40  0.222  0.612  0.493-  49 1.42  51 1.42  39 1.42
  41  0.331  0.501  0.490-  28 1.42  30 1.42  42 1.43  71 2.51
  42  0.388  0.613  0.487-  51 1.42  53 1.42  41 1.43  71 2.52
  43  0.670  0.501  0.508-  34 1.41  32 1.42  44 1.42
  44  0.725  0.612  0.506-  57 1.41  55 1.42  43 1.42
  45  0.835  0.501  0.497-  46 1.42  36 1.42  34 1.43
  46  0.890  0.612  0.496-  45 1.42  47 1.42  57 1.42
  47  0.001  0.668  0.493-  38 1.42  46 1.42  48 1.42
  48  0.056  0.779  0.492-  47 1.42  61 1.42  59 1.43
  49  0.167  0.668  0.492-  40 1.42  50 1.42  38 1.42
  50  0.223  0.780  0.490-  49 1.42  61 1.42  63 1.43
  51  0.332  0.669  0.491-  42 1.42  52 1.42  40 1.42
  52  0.389  0.780  0.488-  63 1.42  51 1.42  65 1.43
  53  0.498  0.667  0.482-  54 1.40  42 1.42  71 1.94
  54  0.554  0.776  0.485-  53 1.40  67 1.43  65 1.44
  55  0.665  0.662  0.509-  44 1.42  56 1.43  71 2.05
  56  0.719  0.774  0.499-  55 1.43  69 1.44  67 1.45
  57  0.835  0.668  0.499-  44 1.41  58 1.42  46 1.42
  58  0.889  0.779  0.495-  57 1.42  69 1.42  59 1.43
  59  0.000  0.834  0.492-  60 1.42  48 1.43  58 1.43
  60  0.056  0.946  0.491-  59 1.42   1 1.43   3 1.43
  61  0.167  0.835  0.491-  62 1.42  48 1.42  50 1.42
  62  0.223  0.947  0.491-  61 1.42   3 1.42   5 1.43
  63  0.334  0.835  0.489-  64 1.42  52 1.42  50 1.43
  64  0.390  0.946  0.491-  63 1.42   7 1.43   5 1.43
  65  0.501  0.835  0.486-  66 1.41  52 1.43  54 1.44
  66  0.556  0.945  0.488-   9 1.41  65 1.41   7 1.43
  67  0.665  0.833  0.492-  68 1.41  54 1.43  56 1.45
  68  0.720  0.943  0.491-  67 1.41   9 1.42  11 1.43
  69  0.831  0.832  0.496-  70 1.42  58 1.42  56 1.44
  70  0.887  0.943  0.493-  69 1.42  11 1.43   1 1.44
  71  0.513  0.558  0.541-  30 1.90  72 1.92  53 1.94  55 2.05  32 2.05  41 2.51  42 2.52
  72  0.510  0.508  0.660-  73 1.16  71 1.92
  73  0.510  0.483  0.734-  72 1.16
 

IMPORTANT INFORMATION: All symmetrisations will be switched off!
NOSYMM: (Re-)initialisation of all symmetry stuff for point group C_1.

 
 
 KPOINTS: K-Points                                

Automatic generation of k-mesh.
Space group operators:
 irot       det(A)        alpha          n_x          n_y          n_z        tau_x        tau_y        tau_z
    1     1.000000     0.000000     1.000000     0.000000     0.000000     0.000000     0.000000     0.000000
 
 Subroutine IBZKPT returns following result:
 ===========================================
 
 Found      5 irreducible k-points:
 
 Following reciprocal coordinates:
            Coordinates               Weight
  0.000000  0.000000  0.000000      1.000000
  0.333333 -0.000000  0.000000      2.000000
 -0.000000  0.333333  0.000000      2.000000
  0.333333  0.333333  0.000000      2.000000
 -0.333333  0.333333  0.000000      2.000000
 
 Following cartesian coordinates:
            Coordinates               Weight
  0.000000  0.000000  0.000000      1.000000
  0.022429  0.013069  0.000000      2.000000
 -0.000013  0.026137  0.000000      2.000000
  0.022416  0.039206  0.000000      2.000000
 -0.022442  0.013069  0.000000      2.000000
 
 TETIRR: Found     24 inequivalent tetrahedra from       54


--------------------------------------------------------------------------------------------------------




 Dimension of arrays:
   k-points           NKPTS =      5   k-points in BZ     NKDIM =      5   number of bands    NBANDS=    192
   number of dos      NEDOS =   4000   number of ions     NIONS =     73
   non local maximal  LDIM  =      6   non local SUM 2l+1 LMDIM =     18
   total plane-waves  NPLWV = 512000
   max r-space proj   IRMAX =      1   max aug-charges    IRDMAX=   6467
   dimension x,y,z NGX =    80 NGY =   80 NGZ =   80
   dimension x,y,z NGXF=   160 NGYF=  160 NGZF=  160
   support grid    NGXF=   160 NGYF=  160 NGZF=  160
   ions per type =               8   1  61   1   1   1
   NGX,Y,Z   is equivalent  to a cutoff of   8.95,  9.01,  8.87 a.u.
   NGXF,Y,Z  is equivalent  to a cutoff of  17.90, 18.03, 17.73 a.u.

 SYSTEM =  unknown system                          
 POSCAR =  POSCAR-clean                            

 Startparameter for this run:
   NWRITE =      2    write-flag & timer
   PREC   = normal    normal or accurate (medium, high low for compatibility)
   ISTART =      0    job   : 0-new  1-cont  2-samecut
   ICHARG =      2    charge: 1-file 2-atom 10-const
   ISPIN  =      2    spin polarized calculation?
   LNONCOLLINEAR =      F non collinear calculations
   LSORBIT =      F    spin-orbit coupling
   INIWAV =      1    electr: 0-lowe 1-rand  2-diag
   LASPH  =      F    aspherical Exc in radial PAW
   METAGGA=      F    non-selfconsistent MetaGGA calc.

 Electronic Relaxation 1
   ENCUT  =  440.0 eV  32.34 Ry    5.69 a.u.  25.41 25.24 25.66*2*pi/ulx,y,z
   ENINI  =  440.0     initial cutoff
   ENAUG  =  644.9 eV  augmentation charge cutoff
   NELM   =    100;   NELMIN=  2; NELMDL= -5     # of ELM steps 
   EDIFF  = 0.1E-03   stopping-criterion for ELM
   LREAL  =      F    real-space projection
   NLSPLINE    = F    spline interpolate recip. space projectors
   LCOMPAT=      F    compatible to vasp.4.4
   GGA_COMPAT  = T    GGA compatible to vasp.4.4-vasp.4.6
   LMAXPAW     = -100 max onsite density
   LMAXMIX     =    2 max onsite mixed and CHGCAR
   VOSKOWN=      0    Vosko Wilk Nusair interpolation
   ROPT   =    0.00000   0.00000   0.00000   0.00000
   ROPT   =    0.00000   0.00000
 Ionic relaxation
   EDIFFG = -.1E-01   stopping-criterion for IOM
   NSW    =      0    number of steps for IOM
   NBLOCK =      1;   KBLOCK =      1    inner block; outer block 
   IBRION =     -1    ionic relax: 0-MD 1-quasi-New 2-CG
   NFREE  =      0    steps in history (QN), initial steepest desc. (CG)
   ISIF   =      2    stress and relaxation
   IWAVPR =     10    prediction:  0-non 1-charg 2-wave 3-comb
   ISYM   =      0    0-nonsym 1-usesym 2-fastsym
   LCORR  =      T    Harris-Foulkes like correction to forces

   POTIM  = 0.5000    time-step for ionic-motion
   TEIN   =    0.0    initial temperature
   TEBEG  =    0.0;   TEEND  =   0.0 temperature during run
   SMASS  =  -3.00    Nose mass-parameter (am)
   estimated Nose-frequenzy (Omega)   =  0.10E-29 period in steps =****** mass=  -0.504E-26a.u.
   SCALEE = 1.0000    scale energy and forces
   NPACO  =    256;   APACO  = 16.0  distance and # of slots for P.C.
   PSTRESS=    0.0 pullay stress

  Mass of Ions in am
   POMASS =  12.01 14.00 12.01 52.00 12.01 16.00
  Ionic Valenz
   ZVAL   =   4.00  5.00  4.00 12.00  4.00  6.00
  Atomic Wigner-Seitz radii
   RWIGS  =  -1.00 -1.00 -1.00 -1.00 -1.00 -1.00
  virtual crystal weights 
   VCA    =   1.00  1.00  1.00  1.00  1.00  1.00
   NELECT =     303.0000    total number of electrons
   NUPDOWN=      -1.0000    fix difference up-down

 DOS related values:
   EMIN   = -14.00;   EMAX   =  6.00  energy-range for DOS
   EFERMI =   0.00
   ISMEAR =    -5;   SIGMA  =   0.20  broadening in eV -4-tet -1-fermi 0-gaus

 Electronic relaxation 2 (details)
   IALGO  =     38    algorithm
   LDIAG  =      T    sub-space diagonalisation (order eigenvalues)
   LSUBROT=      F    optimize rotation matrix (better conditioning)
   TURBO    =      0    0=normal 1=particle mesh
   IRESTART =      0    0=no restart 2=restart with 2 vectors
   NREBOOT  =      0    no. of reboots
   NMIN     =      0    reboot dimension
   EREF     =   0.00    reference energy to select bands
   IMIX   =      4    mixing-type and parameters
     AMIX     =   0.25;   BMIX     =  0.00
     AMIX_MAG =   1.00;   BMIX_MAG =  0.00
     AMIN     =   0.10
     WC   =   100.;   INIMIX=   1;  MIXPRE=   1;  MAXMIX= -45

 Intra band minimization:
   WEIMIN = 0.0000     energy-eigenvalue tresh-hold
   EBREAK =  0.13E-06  absolut break condition
   DEPER  =   0.30     relativ break condition  

   TIME   =   0.40     timestep for ELM

  volume/ion in A,a.u.               =      38.93       262.74
  Fermi-wavevector in a.u.,A,eV,Ry     =   0.776259  1.466917  8.198571  0.602578
  Thomas-Fermi vector in A             =   1.878699
 
 Write flags
   LWAVE        =      F    write WAVECAR
   LDOWNSAMPLE  =      F    k-point downsampling of WAVECAR
   LCHARG       =      F    write CHGCAR
   LVTOT        =      F    write LOCPOT, total local potential
   LVHAR        =      F    write LOCPOT, Hartree potential only
   LELF         =      F    write electronic localiz. function (ELF)
   LORBIT       =     11    0 simple, 1 ext, 2 COOP (PROOUT), +10 PAW based schemes


 Dipole corrections
   LMONO  =      F    monopole corrections only (constant potential shift)
   LDIPOL =      F    correct potential (dipole corrections)
   IDIPOL =      0    1-x, 2-y, 3-z, 4-all directions 
   EPSILON=  1.0000000 bulk dielectric constant

 Exchange correlation treatment:
   GGA     =    --    GGA type
   LEXCH   =     8    internal setting for exchange type
   VOSKOWN=      0    Vosko Wilk Nusair interpolation
   LHFCALC =     F    Hartree Fock is set to
   LHFONE  =     F    Hartree Fock one center treatment
   AEXX    =    0.0000 exact exchange contribution

 Linear response parameters
   LEPSILON=     F    determine dielectric tensor
   LRPA    =     F    only Hartree local field effects (RPA)
   LNABLA  =     F    use nabla operator in PAW spheres
   LVEL    =     F    velocity operator in full k-point grid
   LINTERFAST=   F  fast interpolation
   KINTER  =     0    interpolate to denser k-point grid
   CSHIFT  =0.1000    complex shift for real part using Kramers Kronig
   OMEGAMAX=  -1.0    maximum frequency
   DEG_THRESHOLD= 0.2000000E-02 threshold for treating states as degnerate
   RTIME   =   -0.100 relaxation time in fs
  (WPLASMAI=    0.000 imaginary part of plasma frequency in eV, 0.658/RTIME)
   DFIELD  = 0.0000000 0.0000000 0.0000000 field for delta impulse in time
 
 Orbital magnetization related:
   ORBITALMAG=     F  switch on orbital magnetization
   LCHIMAG   =     F  perturbation theory with respect to B field
   DQ        =  0.001000  dq finite difference perturbation B field
   LLRAUG    =     F  two centre corrections for induced B field



--------------------------------------------------------------------------------------------------------


 Static calculation
 charge density and potential will be updated during run
 spin polarized calculation
 Variant of blocked Davidson
 Davidson routine will perform the subspace rotation
 perform sub-space diagonalisation
    after iterative eigenvector-optimisation
 modified Broyden-mixing scheme, WC =      100.0
 initial mixing is a Kerker type mixing with AMIX =  0.2500 and BMIX =      0.0001
 Hartree-type preconditioning will be used
 using additional bands           40
 reciprocal scheme for non local part
 use partial core corrections
 calculate Harris-corrections to forces 
   (improved forces if not selfconsistent)
 use gradient corrections 
 use of overlap-Matrix (Vanderbilt PP)
 Fermi weights with tetrahedron method with Bloechl corrections


--------------------------------------------------------------------------------------------------------


  energy-cutoff  :      440.00
  volume of cell :     2842.15
      direct lattice vectors                 reciprocal lattice vectors
    14.857142946  0.007480851  0.000000000     0.067287951  0.039205712  0.000000000
    -7.428571473 12.749503263  0.000000000    -0.000039482  0.078411424  0.000000000
     0.000000000  0.000000000 15.000000000     0.000000000  0.000000000  0.066666667

  length of vectors
    14.857144830 14.755795728 15.000000000     0.077876545  0.078411434  0.066666667


 
 k-points in units of 2pi/SCALE and weight: K-Points                                
   0.00000000  0.00000000  0.00000000       0.111
   0.02242932  0.01306857  0.00000000       0.222
  -0.00001316  0.02613714  0.00000000       0.222
   0.02241616  0.03920571  0.00000000       0.222
  -0.02244248  0.01306857  0.00000000       0.222
 
 k-points in reciprocal lattice and weights: K-Points                                
   0.00000000  0.00000000  0.00000000       0.111
   0.33333333 -0.00000000  0.00000000       0.222
  -0.00000000  0.33333333  0.00000000       0.222
   0.33333333  0.33333333  0.00000000       0.222
  -0.33333333  0.33333333  0.00000000       0.222
 
 position of ions in fractional coordinates (direct lattice) 
   0.99900788  0.99979704  0.49168601
   0.05512562  0.11124246  0.49213609
   0.16749189  0.00189955  0.49141635
   0.22331322  0.11328575  0.49240102
   0.33455365  0.00249676  0.49240698
   0.38999041  0.11366869  0.49491887
   0.50130852  0.00174805  0.49071159
   0.55586382  0.11315642  0.49333030
   0.66634523  0.99960903  0.48919008
   0.72158616  0.10992321  0.49093506
   0.83186944  0.99934146  0.49177975
   0.88815393  0.11023288  0.49154089
   0.99920563  0.16617121  0.49222443
   0.05490237  0.27775211  0.49300718
   0.16678886  0.16778438  0.49230080
   0.22248598  0.27912140  0.49167234
   0.33485614  0.16984613  0.49487569
   0.39079592  0.28149486  0.49761996
   0.50116670  0.16954956  0.49598143
   0.55693268  0.28155486  0.49970770
   0.66662897  0.16614179  0.49305772
   0.72258618  0.27768297  0.49545499
   0.83199379  0.16522081  0.49171625
   0.88793995  0.27728521  0.49326683
   0.99929846  0.33314193  0.49356620
   0.05508019  0.44468105  0.49386050
   0.16581995  0.33370495  0.49289891
   0.22073518  0.44509888  0.49375944
   0.33440114  0.33602320  0.49247795
   0.38800575  0.44652661  0.49280551
   0.50259988  0.33980527  0.50406615
   0.55960800  0.45138847  0.51390529
   0.66746340  0.33382084  0.49920212
   0.72390267  0.44517334  0.50133031
   0.83348686  0.33337615  0.49463454
   0.88960065  0.44505031  0.49505803
   0.00020861  0.50065117  0.49383729
   0.05594185  0.61225806  0.49279035
   0.16590221  0.50077432  0.49405562
   0.22169495  0.61240959  0.49287737
   0.33133931  0.50065513  0.48991944
   0.38761931  0.61309109  0.48682799
   0.66981409  0.50076683  0.50776491
   0.72533432  0.61240051  0.50551077
   0.83481972  0.50078011  0.49735764
   0.89036095  0.61186114  0.49639109
   0.00091554  0.66777855  0.49322002
   0.05637232  0.77931608  0.49179682
   0.16683397  0.66816469  0.49168010
   0.22263493  0.77951879  0.49044848
   0.33245397  0.66852556  0.49069111
   0.38914897  0.77996709  0.48798979
   0.49824401  0.66674036  0.48164138
   0.55422889  0.77623857  0.48502751
   0.66482843  0.66233816  0.50916914
   0.71900093  0.77376775  0.49905887
   0.83510503  0.66754312  0.49860545
   0.88932615  0.77855762  0.49546210
   0.00045253  0.83449005  0.49222411
   0.05581760  0.94552478  0.49120359
   0.16727455  0.83512790  0.49089529
   0.22316514  0.94662815  0.49148775
   0.33390084  0.83532439  0.48926732
   0.39005420  0.94643828  0.49052660
   0.50082235  0.83464031  0.48596652
   0.55636498  0.94548464  0.48842139
   0.66542504  0.83250811  0.49225732
   0.72039847  0.94311903  0.49104624
   0.83142132  0.83159602  0.49555557
   0.88708659  0.94315599  0.49250835
   0.51330373  0.55824915  0.54141705
   0.51010520  0.50848146  0.66034597
   0.50959235  0.48296766  0.73385042
 
 position of ions in cartesian coordinates  (Angst):
   7.41533911 12.75438907  7.37529011
  -0.00736333  1.41869851  7.38204130
   2.47433998  0.02547130  7.37124531
   2.47624516  1.44600760  7.38601523
   4.95196409  0.03433514  7.38610475
   4.94974730  1.45213677  7.42378300
   7.43502677  0.02603700  7.36067392
   7.41795770  1.44684650  7.39995454
   2.47431923 12.74950345  7.33785118
   9.90413627  1.40686446  7.36402592
   4.93552375 12.74733034  7.37669624
  12.37655701  1.41205865  7.37311337
  13.61092617  2.12607531  7.38336652
  -1.24760908  3.54161218  7.39510763
   1.23160766  2.14041528  7.38451196
   1.23203266  3.56032364  7.37508516
   3.71329140  2.16795883  7.42313539
   3.71500610  3.59184316  7.46429936
   6.18639422  2.16542187  7.43972148
   6.18287811  3.59385089  7.49561552
   8.67000576  2.12321225  7.39586578
   8.67277829  3.54572555  7.43182492
  11.13369608  2.11270726  7.37574378
  11.13241777  3.54189119  7.39900246
  12.37195149  4.25486968  7.40349307
  -2.48501074  5.66987452  7.40790746
  -0.01534041  4.25581280  7.39348364
  -0.02695478  5.67644092  7.40639154
   2.47207309  4.28663052  7.38716922
   2.44760196  5.69589512  7.39208258
   4.94293057  4.33610830  7.56099224
   4.96100458  5.75916505  7.70857932
   7.43678716  4.26104304  7.48803187
   7.44812349  5.68115435  7.51995465
   9.90672492  4.25661547  7.41951807
   9.91083592  5.68082535  7.42587046
  -3.71602367  6.38305533  7.40755940
  -3.71706669  7.80640468  7.39185532
  -1.25520501  6.38586490  7.41083425
  -1.25557479  7.80957654  7.39316048
   1.20360307  6.38558287  7.34879164
   1.20452454  7.81950658  7.30241978
   6.23154152  6.38953909  7.61647360
   6.22713470  7.81322843  7.58266161
   8.68295513  6.39094282  7.46036461
   8.68296566  7.80758622  7.44586630
  -4.94703838  8.51385159  7.39830032
  -4.95167358  9.93631462  7.37695237
  -2.48483312  8.52001602  7.37520144
  -2.48299204  9.94014288  7.35672725
  -0.02687365  8.52585581  7.36036661
  -0.01239936  9.94710413  7.31984692
   2.44955402  8.50433568  7.22462075
   2.46791405  9.90080234  7.27541263
   4.95722462  8.44945602  7.63753713
   4.93431064  9.87053315  7.48588311
   7.44838301  8.51709051  7.47908179
   7.42927480  9.93287584  7.43193147
  -6.19234576 10.63933704  7.38336159
  -6.19460840 12.05538882  7.36805391
  -3.71858536 10.64871729  7.36342941
  -3.71649851 12.07070816  7.37231619
  -1.24445440 10.65246894  7.33900976
  -1.23559337 12.06953587  7.35789896
   1.24060399 10.64499590  7.28949774
   1.24239371 12.05862164  7.32632089
   3.70196893 10.61904284  7.38385978
   3.69703593 12.02968832  7.36569357
   6.17497492 10.60865590  7.43333354
   6.17327053 12.03140654  7.38762527
   3.47923327  7.12123925  8.12125579
   3.80141504  6.48670209  9.90518957
   3.98332670  6.16140989 11.00775635
 


--------------------------------------------------------------------------------------------------------


 k-point  1 :   0.0000 0.0000 0.0000  plane waves:   59569
 k-point  2 :   0.3333-0.0000 0.0000  plane waves:   59534
 k-point  3 :  -0.0000 0.3333 0.0000  plane waves:   59592
 k-point  4 :   0.3333 0.3333 0.0000  plane waves:   59608
 k-point  5 :  -0.3333 0.3333 0.0000  plane waves:   59538

 maximum and minimum number of plane-waves per node :      4995     4938

 maximum number of plane-waves:     59608
 maximum index in each direction: 
   IXMAX=   25   IYMAX=   25   IZMAX=   25
   IXMIN=  -25   IYMIN=  -25   IZMIN=  -25


 parallel 3D FFT for wavefunctions:
    minimum data exchange during FFTs selected (reduces bandwidth)
 parallel 3D FFT for charge:
    minimum data exchange during FFTs selected (reduces bandwidth)


 total amount of memory used by VASP MPI-rank0   115989. kBytes
=======================================================================

   base      :      30000. kBytes
   nonl-proj :      27264. kBytes
   fftplans  :       4700. kBytes
   grid      :      15193. kBytes
   one-center:        217. kBytes
   wavefun   :      38615. kBytes
 
     INWAV:  cpu time    0.0000: real time    0.0000
 Broyden mixing: mesh for mixing (old mesh)
   NGX = 51   NGY = 51   NGZ = 51
  (NGX  =160   NGY  =160   NGZ  =160)
  gives a total of 132651 points

 initial charge density was supplied:
 charge density of overlapping atoms calculated
 number of electron     303.0000000 magnetization       2.0000000
 keeping initial charge density in first step


--------------------------------------------------------------------------------------------------------


 Maximum index for augmentation-charges          180 (set IRDMAX)


--------------------------------------------------------------------------------------------------------


 First call to EWALD:  gamma=   0.125
 Maximum number of real-space cells 3x 3x 3
 Maximum number of reciprocal cells 3x 3x 3

    FEWALD:  cpu time    0.0062: real time    0.0064


--------------------------------------- Iteration      1(   1)  ---------------------------------------


    POTLOK:  cpu time    0.2120: real time    0.2547
    SETDIJ:  cpu time    0.0089: real time    0.0093
     EDDAV:  cpu time   11.5402: real time   11.6514
 BZINTS: Fermi energy:  8.059442;303.000000 electrons
         Band energy:***********;  BLOECHL correction: -0.005741
       DOS:  cpu time    0.1148: real time    0.1151
    --------------------------------------------
      LOOP:  cpu time   11.8759: real time   12.0306

 eigenvalue-minimisations  :  4368
 total energy-change (2. order) : 0.2535731E+04  (-0.1120087E+05)
 number of electron     303.0000000 magnetization       2.0000000
 augmentation part      303.0000000 magnetization       2.0000000

 Free energy of the ion-electron system (eV)
  ---------------------------------------------------
  alpha Z        PSCENC =       167.31142524
  Ewald energy   TEWEN  =     30905.24389663
  -Hartree energ DENC   =    -40576.15179418
  -exchange      EXHF   =         0.00000000
  -V(xc)+E(xc)   XCENC  =      1023.27409329
  PAW double counting   =      9455.23336183    -9546.47664214
  entropy T*S    EENTRO =         0.00000000
  eigenvalues    EBANDS =     -1537.45664689
  atomic energy  EATOM  =     12644.75315347
  Solvation  Ediel_sol  =         0.00000000
  ---------------------------------------------------
  free energy    TOTEN  =      2535.73084726 eV

  energy without entropy =     2535.73084726  energy(sigma->0) =     2535.73084726


--------------------------------------------------------------------------------------------------------




--------------------------------------- Iteration      1(   2)  ---------------------------------------


     EDDAV:  cpu time   15.4169: real time   15.5404
 BZINTS: Fermi energy: -1.925731;303.000000 electrons
         Band energy:***********;  BLOECHL correction:  0.000000
       DOS:  cpu time    0.0045: real time    0.0046
    --------------------------------------------
      LOOP:  cpu time   15.4214: real time   15.5450

 eigenvalue-minimisations  :  5488
 total energy-change (2. order) :-0.2778486E+04  (-0.2654790E+04)
 number of electron     303.0000000 magnetization       2.0000000
 augmentation part      303.0000000 magnetization       2.0000000

 Free energy of the ion-electron system (eV)
  ---------------------------------------------------
  alpha Z        PSCENC =       167.31142524
  Ewald energy   TEWEN  =     30905.24389663
  -Hartree energ DENC   =    -40576.15179418
  -exchange      EXHF   =         0.00000000
  -V(xc)+E(xc)   XCENC  =      1023.27409329
  PAW double counting   =      9455.23336183    -9546.47664214
  entropy T*S    EENTRO =         0.00000000
  eigenvalues    EBANDS =     -4315.94256093
  atomic energy  EATOM  =     12644.75315347
  Solvation  Ediel_sol  =         0.00000000
  ---------------------------------------------------
  free energy    TOTEN  =      -242.75506679 eV

  energy without entropy =     -242.75506679  energy(sigma->0) =     -242.75506679


--------------------------------------------------------------------------------------------------------




--------------------------------------- Iteration      1(   3)  ---------------------------------------


     EDDAV:  cpu time   13.0327: real time   13.1497
 BZINTS: Fermi energy: -4.563306;303.000000 electrons
         Band energy:***********;  BLOECHL correction: -0.053971
       DOS:  cpu time    0.0117: real time    0.0118
    --------------------------------------------
      LOOP:  cpu time   13.0444: real time   13.1615

 eigenvalue-minimisations  :  4592
 total energy-change (2. order) :-0.4576706E+03  (-0.4534967E+03)
 number of electron     303.0000000 magnetization       2.0000000
 augmentation part      303.0000000 magnetization       2.0000000

 Free energy of the ion-electron system (eV)
  ---------------------------------------------------
  alpha Z        PSCENC =       167.31142524
  Ewald energy   TEWEN  =     30905.24389663
  -Hartree energ DENC   =    -40576.15179418
  -exchange      EXHF   =         0.00000000
  -V(xc)+E(xc)   XCENC  =      1023.27409329
  PAW double counting   =      9455.23336183    -9546.47664214
  entropy T*S    EENTRO =         0.00000000
  eigenvalues    EBANDS =     -4773.61317684
  atomic energy  EATOM  =     12644.75315347
  Solvation  Ediel_sol  =         0.00000000
  ---------------------------------------------------
  free energy    TOTEN  =      -700.42568269 eV

  energy without entropy =     -700.42568269  energy(sigma->0) =     -700.42568269


--------------------------------------------------------------------------------------------------------




--------------------------------------- Iteration      1(   4)  ---------------------------------------


     EDDAV:  cpu time   12.8078: real time   12.9020
 BZINTS: Fermi energy: -4.718188;303.000000 electrons
         Band energy:***********;  BLOECHL correction: -0.046938
       DOS:  cpu time    0.0114: real time    0.0114
    --------------------------------------------
      LOOP:  cpu time   12.8192: real time   12.9134

 eigenvalue-minimisations  :  4640
 total energy-change (2. order) :-0.1648523E+02  (-0.1634199E+02)
 number of electron     303.0000000 magnetization       2.0000000
 augmentation part      303.0000000 magnetization       2.0000000

 Free energy of the ion-electron system (eV)
  ---------------------------------------------------
  alpha Z        PSCENC =       167.31142524
  Ewald energy   TEWEN  =     30905.24389663
  -Hartree energ DENC   =    -40576.15179418
  -exchange      EXHF   =         0.00000000
  -V(xc)+E(xc)   XCENC  =      1023.27409329
  PAW double counting   =      9455.23336183    -9546.47664214
  entropy T*S    EENTRO =         0.00000000
  eigenvalues    EBANDS =     -4790.09840792
  atomic energy  EATOM  =     12644.75315347
  Solvation  Ediel_sol  =         0.00000000
  ---------------------------------------------------
  free energy    TOTEN  =      -716.91091377 eV

  energy without entropy =     -716.91091377  energy(sigma->0) =     -716.91091377


--------------------------------------------------------------------------------------------------------




--------------------------------------- Iteration      1(   5)  ---------------------------------------


     EDDAV:  cpu time   14.4484: real time   14.5283
 BZINTS: Fermi energy: -4.726626;303.000000 electrons
         Band energy:***********;  BLOECHL correction: -0.046767
       DOS:  cpu time    0.0111: real time    0.0111
    CHARGE:  cpu time    0.1974: real time    0.2034
    MIXING:  cpu time    0.0037: real time    0.0052
    --------------------------------------------
      LOOP:  cpu time   14.6607: real time   14.7481

 eigenvalue-minimisations  :  5272
 total energy-change (2. order) :-0.5420951E+00  (-0.5402274E+00)
 number of electron     303.0000017 magnetization       0.0701575
 augmentation part       12.4726282 magnetization       0.0886137

 Broyden mixing:
  rms(total) = 0.47939E+01    rms(broyden)= 0.47933E+01
  rms(prec ) = 0.54817E+01
  weight for this iteration     100.00

 Free energy of the ion-electron system (eV)
  ---------------------------------------------------
  alpha Z        PSCENC =       167.31142524
  Ewald energy   TEWEN  =     30905.24389663
  -Hartree energ DENC   =    -40576.15179418
  -exchange      EXHF   =         0.00000000
  -V(xc)+E(xc)   XCENC  =      1023.27409329
  PAW double counting   =      9455.23336183    -9546.47664214
  entropy T*S    EENTRO =         0.00000000
  eigenvalues    EBANDS =     -4790.64050301
  atomic energy  EATOM  =     12644.75315347
  Solvation  Ediel_sol  =         0.00000000
  ---------------------------------------------------
  free energy    TOTEN  =      -717.45300886 eV

  energy without entropy =     -717.45300886  energy(sigma->0) =     -717.45300886


--------------------------------------------------------------------------------------------------------




--------------------------------------- Iteration      1(   6)  ---------------------------------------


    POTLOK:  cpu time    0.1409: real time    0.1443
    SETDIJ:  cpu time    0.0105: real time    0.0105
     EDDAV:  cpu time   12.6138: real time   12.6896
 BZINTS: Fermi energy: -5.514032;303.000000 electrons
         Band energy:***********;  BLOECHL correction: -0.022352
       DOS:  cpu time    0.0125: real time    0.0126
    CHARGE:  cpu time    0.1669: real time    0.1730
    MIXING:  cpu time    0.0031: real time    0.0036
    --------------------------------------------
      LOOP:  cpu time   12.9478: real time   13.0335

 eigenvalue-minimisations  :  4744
 total energy-change (2. order) : 0.5757549E+01  (-0.6987319E+01)
 number of electron     303.0000047 magnetization       0.0517912
 augmentation part       17.8651496 magnetization       0.0760331

 Broyden mixing:
  rms(total) = 0.72715E+01    rms(broyden)= 0.72712E+01
  rms(prec ) = 0.83056E+01
  weight for this iteration     100.00

 eigenvalues of (default mixing * dielectric matrix)
  average eigenvalue GAMMA=   0.2762
  0.2762

 Free energy of the ion-electron system (eV)
  ---------------------------------------------------
  alpha Z        PSCENC =       167.31142524
  Ewald energy   TEWEN  =     30905.24389663
  -Hartree energ DENC   =    -40936.75670301
  -exchange      EXHF   =         0.00000000
  -V(xc)+E(xc)   XCENC  =      1035.88872684
  PAW double counting   =     13271.86878928   -13363.43759899
  entropy T*S    EENTRO =         0.00000000
  eigenvalues    EBANDS =     -4436.56714911
  atomic energy  EATOM  =     12644.75315347
  Solvation  Ediel_sol  =         0.00000000
  ---------------------------------------------------
  free energy    TOTEN  =      -711.69545965 eV

  energy without entropy =     -711.69545965  energy(sigma->0) =     -711.69545965


--------------------------------------------------------------------------------------------------------




--------------------------------------- Iteration      1(   7)  ---------------------------------------


    POTLOK:  cpu time    0.1431: real time    0.1489
    SETDIJ:  cpu time    0.0108: real time    0.0108
     EDDAV:  cpu time   13.4903: real time   13.5709
 BZINTS: Fermi energy: -4.215734;303.000000 electrons
         Band energy:***********;  BLOECHL correction: -0.028846
       DOS:  cpu time    0.0118: real time    0.0118
    CHARGE:  cpu time    0.1683: real time    0.1726
    MIXING:  cpu time    0.0037: real time    0.0038
    --------------------------------------------
      LOOP:  cpu time   13.8279: real time   13.9188

 eigenvalue-minimisations  :  5280
 total energy-change (2. order) : 0.3625347E+02  (-0.7580721E+01)
 number of electron     303.0000022 magnetization       0.2071961
 augmentation part       14.0654895 magnetization       0.1074703

 Broyden mixing:
  rms(total) = 0.25431E+01    rms(broyden)= 0.25427E+01
  rms(prec ) = 0.27833E+01
  weight for this iteration     100.00

 eigenvalues of (default mixing * dielectric matrix)
  average eigenvalue GAMMA=   0.7506
  1.2189  0.2823

 Free energy of the ion-electron system (eV)
  ---------------------------------------------------
  alpha Z        PSCENC =       167.31142524
  Ewald energy   TEWEN  =     30905.24389663
  -Hartree energ DENC   =    -41088.11395812
  -exchange      EXHF   =         0.00000000
  -V(xc)+E(xc)   XCENC  =      1040.19394311
  PAW double counting   =     14440.76797481   -14536.62839898
  entropy T*S    EENTRO =         0.00000000
  eigenvalues    EBANDS =     -4248.97002735
  atomic energy  EATOM  =     12644.75315347
  Solvation  Ediel_sol  =         0.00000000
  ---------------------------------------------------
  free energy    TOTEN  =      -675.44199119 eV

  energy without entropy =     -675.44199119  energy(sigma->0) =     -675.44199119


--------------------------------------------------------------------------------------------------------




--------------------------------------- Iteration      1(   8)  ---------------------------------------


    POTLOK:  cpu time    0.1913: real time    0.1943
    SETDIJ:  cpu time    0.0104: real time    0.0104
     EDDAV:  cpu time   12.7030: real time   12.8013
 BZINTS: Fermi energy: -2.455488;303.000000 electrons
         Band energy:***********;  BLOECHL correction: -0.031190
       DOS:  cpu time    0.0120: real time    0.0120
    CHARGE:  cpu time    0.1656: real time    0.1675
    MIXING:  cpu time    0.0031: real time    0.0031
    --------------------------------------------
      LOOP:  cpu time   13.0854: real time   13.1886

 eigenvalue-minimisations  :  4856
 total energy-change (2. order) : 0.6223420E+01  (-0.3312730E+01)
 number of electron     303.0000019 magnetization       0.1324363
 augmentation part       12.4437837 magnetization       0.0553277

 Broyden mixing:
  rms(total) = 0.23244E+01    rms(broyden)= 0.23242E+01
  rms(prec ) = 0.27021E+01
  weight for this iteration     100.00

 eigenvalues of (default mixing * dielectric matrix)
  average eigenvalue GAMMA=   1.1857
  2.7084  0.5275  0.3213

 Free energy of the ion-electron system (eV)
  ---------------------------------------------------
  alpha Z        PSCENC =       167.31142524
  Ewald energy   TEWEN  =     30905.24389663
  -Hartree energ DENC   =    -41403.81173301
  -exchange      EXHF   =         0.00000000
  -V(xc)+E(xc)   XCENC  =      1051.28773986
  PAW double counting   =     18765.67597826   -18864.95202510
  entropy T*S    EENTRO =         0.00000000
  eigenvalues    EBANDS =     -3934.72700653
  atomic energy  EATOM  =     12644.75315347
  Solvation  Ediel_sol  =         0.00000000
  ---------------------------------------------------
  free energy    TOTEN  =      -669.21857117 eV

  energy without entropy =     -669.21857117  energy(sigma->0) =     -669.21857117


--------------------------------------------------------------------------------------------------------




--------------------------------------- Iteration      1(   9)  ---------------------------------------


    POTLOK:  cpu time    0.1348: real time    0.1426
    SETDIJ:  cpu time    0.0086: real time    0.0086
     EDDAV:  cpu time   12.5876: real time   12.6549
 BZINTS: Fermi energy: -2.727225;303.000000 electrons
         Band energy:***********;  BLOECHL correction: -0.061846
       DOS:  cpu time    0.0117: real time    0.0120
    CHARGE:  cpu time    0.1949: real time    0.1960
    MIXING:  cpu time    0.0039: real time    0.0040
    --------------------------------------------
      LOOP:  cpu time   12.9415: real time   13.0181

 eigenvalue-minimisations  :  4632
 total energy-change (2. order) : 0.4463086E+01  (-0.2283764E+01)
 number of electron     303.0000028 magnetization       0.0408223
 augmentation part       14.3863942 magnetization      -0.0239752

 Broyden mixing:
  rms(total) = 0.15065E+01    rms(broyden)= 0.15057E+01
  rms(prec ) = 0.18457E+01
  weight for this iteration     100.00

 eigenvalues of (default mixing * dielectric matrix)
  average eigenvalue GAMMA=   1.2509
  3.2419  1.0519  0.3548  0.3548

 Free energy of the ion-electron system (eV)
  ---------------------------------------------------
  alpha Z        PSCENC =       167.31142524
  Ewald energy   TEWEN  =     30905.24389663
  -Hartree energ DENC   =    -41791.52182974
  -exchange      EXHF   =         0.00000000
  -V(xc)+E(xc)   XCENC  =      1065.59237150
  PAW double counting   =     26399.30068726   -26501.75690596
  entropy T*S    EENTRO =         0.00000000
  eigenvalues    EBANDS =     -3553.67828333
  atomic energy  EATOM  =     12644.75315347
  Solvation  Ediel_sol  =         0.00000000
  ---------------------------------------------------
  free energy    TOTEN  =      -664.75548491 eV

  energy without entropy =     -664.75548491  energy(sigma->0) =     -664.75548491


--------------------------------------------------------------------------------------------------------




--------------------------------------- Iteration      1(  10)  ---------------------------------------


    POTLOK:  cpu time    0.1455: real time    0.1481
    SETDIJ:  cpu time    0.0101: real time    0.0101
     EDDAV:  cpu time   13.3872: real time   13.4705
 BZINTS: Fermi energy: -1.999828;303.000000 electrons
         Band energy:***********;  BLOECHL correction: -0.010564
       DOS:  cpu time    0.0107: real time    0.0107
    CHARGE:  cpu time    0.1621: real time    0.1626
    MIXING:  cpu time    0.0039: real time    0.0039
    --------------------------------------------
      LOOP:  cpu time   13.7193: real time   13.8059

 eigenvalue-minimisations  :  5288
 total energy-change (2. order) : 0.1262880E+01  (-0.9465085E+00)
 number of electron     303.0000021 magnetization      -0.0321742
 augmentation part       13.0124546 magnetization      -0.0415069

 Broyden mixing:
  rms(total) = 0.73107E+00    rms(broyden)= 0.73051E+00
  rms(prec ) = 0.80648E+00
  weight for this iteration     100.00

 eigenvalues of (default mixing * dielectric matrix)
  average eigenvalue GAMMA=   1.3001
  3.5455  1.4327  0.8272  0.3475  0.3475

 Free energy of the ion-electron system (eV)
  ---------------------------------------------------
  alpha Z        PSCENC =       167.31142524
  Ewald energy   TEWEN  =     30905.24389663
  -Hartree energ DENC   =    -41816.65704570
  -exchange      EXHF   =         0.00000000
  -V(xc)+E(xc)   XCENC  =      1066.49323178
  PAW double counting   =     28508.65815513   -28611.44284817
  entropy T*S    EENTRO =         0.00000000
  eigenvalues    EBANDS =     -3527.85257315
  atomic energy  EATOM  =     12644.75315347
  Solvation  Ediel_sol  =         0.00000000
  ---------------------------------------------------
  free energy    TOTEN  =      -663.49260477 eV

  energy without entropy =     -663.49260477  energy(sigma->0) =     -663.49260477


--------------------------------------------------------------------------------------------------------




--------------------------------------- Iteration      1(  11)  ---------------------------------------


    POTLOK:  cpu time    0.1466: real time    0.1485
    SETDIJ:  cpu time    0.0101: real time    0.0102
     EDDAV:  cpu time   13.1611: real time   13.2345
 BZINTS: Fermi energy: -2.017294;303.000000 electrons
         Band energy:***********;  BLOECHL correction: -0.007285
       DOS:  cpu time    0.0119: real time    0.0119
    CHARGE:  cpu time    0.1656: real time    0.1689
    MIXING:  cpu time    0.0033: real time    0.0034
    --------------------------------------------
      LOOP:  cpu time   13.4987: real time   13.5774

 eigenvalue-minimisations  :  5064
 total energy-change (2. order) : 0.2084273E+00  (-0.8438556E-01)
 number of electron     303.0000023 magnetization      -0.3102453
 augmentation part       13.1909455 magnetization      -0.1739871

 Broyden mixing:
  rms(total) = 0.48833E+00    rms(broyden)= 0.48825E+00
  rms(prec ) = 0.53543E+00
  weight for this iteration     100.00

 eigenvalues of (default mixing * dielectric matrix)
  average eigenvalue GAMMA=   1.3383
  3.6700  1.9971  1.0611  0.6084  0.3467  0.3467

 Free energy of the ion-electron system (eV)
  ---------------------------------------------------
  alpha Z        PSCENC =       167.31142524
  Ewald energy   TEWEN  =     30905.24389663
  -Hartree energ DENC   =    -41780.73643725
  -exchange      EXHF   =         0.00000000
  -V(xc)+E(xc)   XCENC  =      1065.82144455
  PAW double counting   =     30198.66356453   -30300.89248799
  entropy T*S    EENTRO =         0.00000000
  eigenvalues    EBANDS =     -3563.44873662
  atomic energy  EATOM  =     12644.75315347
  Solvation  Ediel_sol  =         0.00000000
  ---------------------------------------------------
  free energy    TOTEN  =      -663.28417744 eV

  energy without entropy =     -663.28417744  energy(sigma->0) =     -663.28417744


--------------------------------------------------------------------------------------------------------




--------------------------------------- Iteration      1(  12)  ---------------------------------------


    POTLOK:  cpu time    0.1465: real time    0.1495
    SETDIJ:  cpu time    0.0091: real time    0.0099
     EDDAV:  cpu time   12.6794: real time   12.7845
 BZINTS: Fermi energy: -2.388587;303.000000 electrons
         Band energy:***********;  BLOECHL correction: -0.012654
       DOS:  cpu time    0.0114: real time    0.0115
    CHARGE:  cpu time    0.2102: real time    0.2113
    MIXING:  cpu time    0.0041: real time    0.0041
    --------------------------------------------
      LOOP:  cpu time   13.0606: real time   13.1708

 eigenvalue-minimisations  :  4864
 total energy-change (2. order) : 0.1070617E+00  (-0.5848281E-01)
 number of electron     303.0000025 magnetization      -0.5508381
 augmentation part       13.4470821 magnetization      -0.0783181

 Broyden mixing:
  rms(total) = 0.43232E+00    rms(broyden)= 0.43201E+00
  rms(prec ) = 0.44448E+00
  weight for this iteration     100.00

 eigenvalues of (default mixing * dielectric matrix)
  average eigenvalue GAMMA=   1.1762
  3.6721  2.0384  1.0102  0.6495  0.3478  0.3478  0.1679

 Free energy of the ion-electron system (eV)
  ---------------------------------------------------
  alpha Z        PSCENC =       167.31142524
  Ewald energy   TEWEN  =     30905.24389663
  -Hartree energ DENC   =    -41729.62814096
  -exchange      EXHF   =         0.00000000
  -V(xc)+E(xc)   XCENC  =      1064.29616309
  PAW double counting   =     31410.06256128   -31511.63073565
  entropy T*S    EENTRO =         0.00000000
  eigenvalues    EBANDS =     -3613.58543880
  atomic energy  EATOM  =     12644.75315347
  Solvation  Ediel_sol  =         0.00000000
  ---------------------------------------------------
  free energy    TOTEN  =      -663.17711571 eV

  energy without entropy =     -663.17711571  energy(sigma->0) =     -663.17711571


--------------------------------------------------------------------------------------------------------




--------------------------------------- Iteration      1(  13)  ---------------------------------------


    POTLOK:  cpu time    0.1261: real time    0.1282
    SETDIJ:  cpu time    0.0099: real time    0.0099
     EDDAV:  cpu time   12.2784: real time   12.3455
 BZINTS: Fermi energy: -2.303694;303.000000 electrons
         Band energy:***********;  BLOECHL correction: -0.004099
       DOS:  cpu time    0.0122: real time    0.0122
    CHARGE:  cpu time    0.1642: real time    0.1655
    MIXING:  cpu time    0.0041: real time    0.0041
    --------------------------------------------
      LOOP:  cpu time   12.5948: real time   12.6655

 eigenvalue-minimisations  :  4608
 total energy-change (2. order) :-0.6697235E-01  (-0.1255576E-01)
 number of electron     303.0000025 magnetization      -0.9490366
 augmentation part       13.4514430 magnetization      -0.4092478

 Broyden mixing:
  rms(total) = 0.40385E+00    rms(broyden)= 0.40376E+00
  rms(prec ) = 0.41592E+00
  weight for this iteration     100.00

 eigenvalues of (default mixing * dielectric matrix)
  average eigenvalue GAMMA=   1.2267
  3.5992  1.7487  1.0114  1.0114  1.0342  0.7093  0.3495  0.3495

 Free energy of the ion-electron system (eV)
  ---------------------------------------------------
  alpha Z        PSCENC =       167.31142524
  Ewald energy   TEWEN  =     30905.24389663
  -Hartree energ DENC   =    -41726.21843405
  -exchange      EXHF   =         0.00000000
  -V(xc)+E(xc)   XCENC  =      1064.19215229
  PAW double counting   =     31519.04949428   -31620.54455292
  entropy T*S    EENTRO =         0.00000000
  eigenvalues    EBANDS =     -3617.03122299
  atomic energy  EATOM  =     12644.75315347
  Solvation  Ediel_sol  =         0.00000000
  ---------------------------------------------------
  free energy    TOTEN  =      -663.24408806 eV

  energy without entropy =     -663.24408806  energy(sigma->0) =     -663.24408806


--------------------------------------------------------------------------------------------------------




--------------------------------------- Iteration      1(  14)  ---------------------------------------


    POTLOK:  cpu time    0.1470: real time    0.1494
    SETDIJ:  cpu time    0.0084: real time    0.0086
     EDDAV:  cpu time   13.2617: real time   13.3422
 BZINTS: Fermi energy: -2.252063;303.000000 electrons
         Band energy:***********;  BLOECHL correction:  0.000000
       DOS:  cpu time    0.0086: real time    0.0091
    CHARGE:  cpu time    0.1647: real time    0.1652
    MIXING:  cpu time    0.0044: real time    0.0044
    --------------------------------------------
      LOOP:  cpu time   13.5948: real time   13.6788

 eigenvalue-minimisations  :  5016
 total energy-change (2. order) :-0.8143772E-01  (-0.7069020E-02)
 number of electron     303.0000025 magnetization      -1.1694457
 augmentation part       13.4808354 magnetization      -0.7348273

 Broyden mixing:
  rms(total) = 0.31925E+00    rms(broyden)= 0.31921E+00
  rms(prec ) = 0.34364E+00
  weight for this iteration     100.00

 eigenvalues of (default mixing * dielectric matrix)
  average eigenvalue GAMMA=   1.3352
  3.7496  2.3234  1.4140  1.4140  1.0446  0.3500  0.3500  0.6855  0.6855

 Free energy of the ion-electron system (eV)
  ---------------------------------------------------
  alpha Z        PSCENC =       167.31142524
  Ewald energy   TEWEN  =     30905.24389663
  -Hartree energ DENC   =    -41736.61605877
  -exchange      EXHF   =         0.00000000
  -V(xc)+E(xc)   XCENC  =      1064.52677184
  PAW double counting   =     31382.85883137   -31484.41205292
  entropy T*S    EENTRO =         0.00000000
  eigenvalues    EBANDS =     -3606.99149264
  atomic energy  EATOM  =     12644.75315347
  Solvation  Ediel_sol  =         0.00000000
  ---------------------------------------------------
  free energy    TOTEN  =      -663.32552578 eV

  energy without entropy =     -663.32552578  energy(sigma->0) =     -663.32552578


--------------------------------------------------------------------------------------------------------




--------------------------------------- Iteration      1(  15)  ---------------------------------------


    POTLOK:  cpu time    0.1490: real time    0.1512
    SETDIJ:  cpu time    0.0086: real time    0.0086
     EDDAV:  cpu time   12.7438: real time   12.8088
 BZINTS: Fermi energy: -2.307076;303.000000 electrons
         Band energy:***********;  BLOECHL correction:  0.000000
       DOS:  cpu time    0.0077: real time    0.0077
    CHARGE:  cpu time    0.2087: real time    0.2107
    MIXING:  cpu time    0.0048: real time    0.0048
    --------------------------------------------
      LOOP:  cpu time   13.1226: real time   13.1918

 eigenvalue-minimisations  :  4816
 total energy-change (2. order) : 0.2518683E-01  (-0.1303581E-01)
 number of electron     303.0000025 magnetization      -0.9576411
 augmentation part       13.4338089 magnetization      -0.6313357

 Broyden mixing:
  rms(total) = 0.17968E+00    rms(broyden)= 0.17965E+00
  rms(prec ) = 0.19165E+00
  weight for this iteration     100.00

 eigenvalues of (default mixing * dielectric matrix)
  average eigenvalue GAMMA=   1.3410
  3.8928  2.5069  1.4885  1.4885  1.1061  0.3499  0.3499  0.7648  0.7648  0.6972

 Free energy of the ion-electron system (eV)
  ---------------------------------------------------
  alpha Z        PSCENC =       167.31142524
  Ewald energy   TEWEN  =     30905.24389663
  -Hartree energ DENC   =    -41719.42286624
  -exchange      EXHF   =         0.00000000
  -V(xc)+E(xc)   XCENC  =      1064.03734552
  PAW double counting   =     31807.38368699   -31908.65235225
  entropy T*S    EENTRO =         0.00000000
  eigenvalues    EBANDS =     -3623.95462830
  atomic energy  EATOM  =     12644.75315347
  Solvation  Ediel_sol  =         0.00000000
  ---------------------------------------------------
  free energy    TOTEN  =      -663.30033895 eV

  energy without entropy =     -663.30033895  energy(sigma->0) =     -663.30033895


--------------------------------------------------------------------------------------------------------




--------------------------------------- Iteration      1(  16)  ---------------------------------------


    POTLOK:  cpu time    0.1493: real time    0.1513
    SETDIJ:  cpu time    0.0086: real time    0.0086
     EDDAV:  cpu time   12.2328: real time   12.3044
 BZINTS: Fermi energy: -2.302075;303.000000 electrons
         Band energy:***********;  BLOECHL correction:  0.000000
       DOS:  cpu time    0.0074: real time    0.0074
    CHARGE:  cpu time    0.1640: real time    0.1673
    MIXING:  cpu time    0.0043: real time    0.0045
    --------------------------------------------
      LOOP:  cpu time   12.5663: real time   12.6435

 eigenvalue-minimisations  :  4592
 total energy-change (2. order) :-0.6974766E-02  (-0.2529936E-02)
 number of electron     303.0000025 magnetization      -0.9768158
 augmentation part       13.4138682 magnetization      -0.6001137

 Broyden mixing:
  rms(total) = 0.15623E+00    rms(broyden)= 0.15622E+00
  rms(prec ) = 0.16274E+00
  weight for this iteration     100.00

 eigenvalues of (default mixing * dielectric matrix)
  average eigenvalue GAMMA=   1.3139
  3.8556  2.5354  1.4882  1.4882  1.2368  0.3500  0.3500  0.8769  0.8769  0.6977
  0.6977

 Free energy of the ion-electron system (eV)
  ---------------------------------------------------
  alpha Z        PSCENC =       167.31142524
  Ewald energy   TEWEN  =     30905.24389663
  -Hartree energ DENC   =    -41719.06842654
  -exchange      EXHF   =         0.00000000
  -V(xc)+E(xc)   XCENC  =      1063.98163063
  PAW double counting   =     31879.74700106   -31980.99331405
  entropy T*S    EENTRO =         0.00000000
  eigenvalues    EBANDS =     -3624.28268015
  atomic energy  EATOM  =     12644.75315347
  Solvation  Ediel_sol  =         0.00000000
  ---------------------------------------------------
  free energy    TOTEN  =      -663.30731372 eV

[...]
   0.169E+02 -.284E+01 0.450E+01   -.169E+02 0.281E+01 -.428E+01   0.335E-01 0.774E-01 -.232E+00   0.219E-02 -.131E-03 -.535E-02
   0.568E+02 0.168E+02 0.666E+02   -.569E+02 -.175E+02 -.685E+02   0.163E+00 0.744E+00 0.203E+01   -.293E-01 -.254E-01 -.254E-01
   0.533E+02 -.202E+02 0.705E+02   -.531E+02 0.210E+02 -.721E+02   -.152E+00 -.812E+00 0.162E+01   -.389E-01 0.104E-01 -.281E-01
   -.441E+02 0.102E+02 0.976E+01   0.429E+02 -.103E+02 -.964E+01   0.108E+01 0.105E+00 -.135E+00   0.176E-01 -.166E-01 -.192E-01
   -.391E+02 -.215E+02 0.117E+02   0.378E+02 0.216E+02 -.115E+02   0.124E+01 -.150E+00 -.185E+00   0.226E-01 0.841E-02 -.193E-01
   -.145E+02 0.184E+01 0.927E+01   0.142E+02 -.186E+01 -.927E+01   0.285E+00 -.951E-02 0.997E-02   0.221E-02 -.276E-02 -.406E-02
   -.138E+02 -.556E+01 0.951E+01   0.136E+02 0.558E+01 -.946E+01   0.212E+00 0.375E-01 -.521E-01   0.230E-02 -.523E-03 -.414E-02
   -.533E+01 -.439E+01 0.114E+02   0.520E+01 0.436E+01 -.114E+02   0.141E+00 0.519E-01 0.501E-01   0.181E-02 0.121E-02 -.246E-02
   -.319E+01 -.434E+01 0.126E+02   0.309E+01 0.430E+01 -.126E+02   0.679E-01 0.102E-01 -.161E-01   0.212E-02 0.133E-02 -.217E-02
   0.826E+01 -.285E+01 0.992E+01   -.834E+01 0.280E+01 -.996E+01   0.359E-01 0.510E-01 0.491E-01   0.446E-02 0.181E-02 -.266E-02
   0.519E+01 -.470E+01 0.117E+02   -.530E+01 0.464E+01 -.117E+02   0.147E+00 0.635E-01 -.148E-01   0.373E-02 0.398E-03 -.236E-02
   0.267E+02 -.117E+02 0.143E+02   -.266E+02 0.114E+02 -.139E+02   -.877E-01 0.262E+00 -.327E+00   -.253E-02 0.319E-03 -.991E-02
   0.133E+02 -.122E+02 0.236E+02   -.136E+02 0.119E+02 -.237E+02   0.322E+00 0.310E+00 0.944E-01   0.132E-03 0.371E-02 -.567E-02
   -.500E+01 -.515E+02 0.153E+03   0.125E+02 0.476E+02 -.155E+03   -.746E+01 0.378E+01 0.180E+01   -.506E-01 0.619E-01 -.597E-01
   0.301E+01 -.293E+02 0.608E+02   -.262E+01 0.277E+02 -.608E+02   -.387E+00 0.163E+01 0.483E-01   -.114E-01 0.167E-01 -.174E-01
   -.138E+02 -.478E+02 0.119E+02   0.769E+01 0.435E+02 -.103E+02   0.610E+01 0.425E+01 -.158E+01   0.533E-01 0.547E-01 -.415E-01
   -.101E+02 -.271E+02 0.109E+02   0.103E+02 0.252E+02 -.109E+02   -.212E+00 0.189E+01 0.643E-01   0.580E-02 0.155E-01 -.135E-01
   -.223E+02 -.113E+02 0.119E+02   0.218E+02 0.110E+02 -.121E+02   0.501E+00 0.293E+00 0.176E+00   0.372E-02 0.909E-03 -.679E-02
   -.121E+02 -.146E+02 0.109E+02   0.120E+02 0.145E+02 -.108E+02   0.184E+00 0.150E+00 -.617E-01   0.115E-02 0.307E-02 -.453E-02
   -.534E+01 -.284E+01 0.142E+02   0.520E+01 0.275E+01 -.143E+02   0.126E+00 0.862E-01 0.520E-01   0.208E-02 0.116E-02 -.257E-02
   -.366E+01 -.385E+01 0.146E+02   0.376E+01 0.383E+01 -.147E+02   -.590E-01 0.979E-01 0.638E-01   0.121E-02 0.189E-02 -.215E-02
   0.113E+01 -.114E+01 0.116E+02   -.124E+01 0.114E+01 -.116E+02   0.117E+00 -.322E-02 0.261E-01   0.369E-02 0.584E-03 -.193E-02
   -.141E+00 0.113E+01 0.957E+01   0.635E-01 -.112E+01 -.957E+01   0.127E+00 -.197E-01 -.198E-01   0.325E-02 0.264E-02 -.193E-02
   0.111E+02 -.321E+01 0.155E+02   -.113E+02 0.307E+01 -.156E+02   0.170E+00 0.104E+00 0.402E-01   0.308E-02 0.262E-04 -.284E-02
   0.677E+01 -.361E+01 0.116E+02   -.732E+01 0.340E+01 -.116E+02   0.516E+00 0.236E+00 0.301E-01   0.356E-02 0.115E-02 -.228E-02
   0.135E+02 -.728E+01 0.354E+02   -.132E+02 0.567E+01 -.356E+02   -.273E+00 0.153E+01 0.151E+00   -.292E-02 0.876E-02 -.663E-02
   0.271E+02 0.114E+01 0.192E+02   -.324E+02 -.432E+01 -.193E+02   0.528E+01 0.321E+01 0.522E-01   0.357E-02 0.403E-02 -.347E-02
   -.117E+02 -.122E+02 0.201E+02   0.122E+02 0.100E+02 -.198E+02   -.560E+00 0.214E+01 -.263E+00   -.355E-02 0.183E-01 -.111E-01
   -.240E+02 -.206E+01 0.132E+02   0.293E+02 -.158E+01 -.130E+02   -.531E+01 0.362E+01 -.267E+00   -.630E-02 0.713E-02 -.479E-02
   -.671E+01 -.123E+02 0.106E+02   0.631E+01 0.117E+02 -.106E+02   0.410E+00 0.601E+00 -.233E-01   -.192E-02 0.563E-02 -.565E-02
   -.761E+01 -.829E+01 0.124E+02   0.810E+01 0.771E+01 -.125E+02   -.476E+00 0.610E+00 0.111E+00   -.532E-02 0.389E-02 -.323E-02
   0.232E+02 -.105E+03 -.310E+03   -.141E+02 0.103E+03 0.302E+03   -.905E+01 0.269E+01 0.758E+01   -.326E-01 -.369E-01 -.170E+00
   0.203E+02 -.182E+02 -.263E+03   -.237E+02 0.240E+02 0.245E+03   0.345E+01 -.582E+01 0.183E+02   0.712E-02 -.367E-01 0.737E-01
   -.358E+02 0.767E+02 -.678E+03   0.450E+02 -.932E+02 0.734E+03   -.923E+01 0.165E+02 -.559E+02   0.285E-02 -.192E-01 0.406E-01
 -----------------------------------------------------------------------------------------------
   0.131E+02 -.148E+02 0.286E+02   0.206E-12 -.483E-12 -.227E-12   -.131E+02 0.149E+02 -.280E+02   -.136E-01 -.808E-01 -.640E+00
 
 
 POSITION                                       TOTAL-FORCE (eV/Angst)
 -----------------------------------------------------------------------------------
      7.41534     12.75439      7.37529        -0.039064     -0.009772      0.016888
     -0.00736      1.41870      7.38204         0.015462      0.005214     -0.022443
      2.47434      0.02547      7.37125        -0.042378     -0.031867      0.007811
      2.47625      1.44601      7.38602        -0.006159      0.032224      0.003151
      4.95196      0.03434      7.38610         0.035160     -0.058624     -0.028942
      4.94975      1.45214      7.42378        -0.026252      0.025829     -0.020333
      7.43503      0.02604      7.36067        -0.045614     -0.022234      0.012116
      7.41796      1.44685      7.39995         0.053172     -0.033375     -0.011866
      2.47432     12.74950      7.33785        -0.012868     -0.017722      0.017693
      9.90414      1.40686      7.36403        -0.027469      0.028327      0.015820
      4.93552     12.74733      7.37670         0.006369      0.032225      0.018677
     12.37656      1.41206      7.37311         0.027555      0.042371      0.015349
     13.61093      2.12608      7.38337        -0.044098      0.033994     -0.008988
     -1.24761      3.54161      7.39511         0.000941      0.025897     -0.009468
      1.23161      2.14042      7.38451        -0.017117     -0.020454     -0.042843
      1.23203      3.56032      7.37509        -0.027121      0.013583     -0.018919
      3.71329      2.16796      7.42314         0.009865     -0.013903      0.016630
      3.71501      3.59184      7.46430         0.023794     -0.018755      0.018336
      6.18639      2.16542      7.43972        -0.036405     -0.017524     -0.033742
      6.18288      3.59385      7.49562        -0.010601     -0.058064     -0.004731
      8.67001      2.12321      7.39587        -0.007321      0.009378      0.001389
      8.67278      3.54573      7.43182         0.017469      0.049444      0.015011
     11.13370      2.11271      7.37574         0.013648      0.045811      0.011524
     11.13242      3.54189      7.39900         0.027585     -0.000187     -0.010879
     12.37195      4.25487      7.40349        -0.048597     -0.038181     -0.008335
     -2.48501      5.66987      7.40791        -0.037996      0.001960     -0.009168
     -0.01534      4.25581      7.39348         0.006049     -0.016415      0.003844
     -0.02695      5.67644      7.40639        -0.015242     -0.013474      0.024203
      2.47207      4.28663      7.38717        -0.003761     -0.021075      0.018673
      2.44760      5.69590      7.39208        -0.005931      0.011299     -0.005773
      4.94293      4.33611      7.56099        -0.003139     -0.060983     -0.018145
      4.96100      5.75917      7.70858         0.002916      0.069909     -0.031346
      7.43679      4.26104      7.48803         0.036328      0.023263      0.029210
      7.44812      5.68115      7.51995         0.058609     -0.010423      0.012002
      9.90672      4.25662      7.41952         0.004013     -0.060230     -0.005511
      9.91084      5.68083      7.42587         0.007950     -0.021178      0.009219
     -3.71602      6.38306      7.40756        -0.007993      0.025532      0.000287
     -3.71707      7.80640      7.39186         0.052778     -0.052915      0.002442
     -1.25521      6.38586      7.41083        -0.045724     -0.021086     -0.017656
     -1.25557      7.80958      7.39316         0.022033      0.051369     -0.011996
      1.20360      6.38558      7.34879        -0.038124     -0.014009     -0.009440
      1.20452      7.81951      7.30242        -0.030673      0.023021      0.016642
      6.23154      6.38954      7.61647        -0.011987     -0.012225     -0.028572
      6.22713      7.81323      7.58266        -0.045797      0.008401      0.010603
      8.68296      6.39094      7.46036         0.014591     -0.030345      0.008826
      8.68297      7.80759      7.44587        -0.012592      0.055283     -0.006618
     -4.94704      8.51385      7.39830         0.022568      0.021095      0.003019
     -4.95167      9.93631      7.37695        -0.028762     -0.028407      0.015795
     -2.48483      8.52002      7.37520        -0.043552     -0.000878      0.011029
     -2.48299      9.94014      7.35673         0.038811      0.003403      0.014248
     -0.02687      8.52586      7.36037         0.002908     -0.011277     -0.008757
     -0.01240      9.94710      7.31985         0.045041      0.024421     -0.004554
      2.44955      8.50434      7.22462        -0.000354     -0.019377      0.009094
      2.46791      9.90080      7.27541        -0.002440      0.039904     -0.004318
      4.95722      8.44946      7.63754         0.000524     -0.014302      0.034120
      4.93431      9.87053      7.48588         0.028543      0.051392     -0.017656
      7.44838      8.51709      7.47908        -0.029539      0.017970      0.009430
      7.42927      9.93288      7.43193         0.041968      0.014960      0.000164
     -6.19235     10.63934      7.38336        -0.011658      0.006333      0.033060
     -6.19461     12.05539      7.36805         0.041508      0.082272      0.035503
     -3.71859     10.64872      7.36343         0.012991      0.003110     -0.000599
     -3.71650     12.07071      7.37232         0.053282     -0.008153     -0.020804
     -1.24445     10.65247      7.33901        -0.030581     -0.028950      0.022180
     -1.23559     12.06954      7.35790        -0.032723      0.026453      0.004605
      1.24060     10.64500      7.28950        -0.042228     -0.067811     -0.024632
      1.24239     12.05862      7.32632         0.009386      0.035219      0.007105
      3.70197     10.61904      7.38386         0.009148     -0.036439     -0.009958
      3.69704     12.02969      7.36569         0.027200     -0.016045      0.011038
      6.17497     10.60866      7.43333         0.001239     -0.016366     -0.024382
      6.17327     12.03141      7.38763         0.004584      0.036304     -0.005115
      3.47923      7.12124      8.12126         0.036058      0.007731      0.033453
      3.80142      6.48670      9.90519         0.046998     -0.043883     -0.012355
      3.98333      6.16141     11.00776         0.012816     -0.017991     -0.051345
 -----------------------------------------------------------------------------------
    total drift:                               -0.008349      0.006484      0.016784


--------------------------------------------------------------------------------------------------------



  FREE ENERGIE OF THE ION-ELECTRON SYSTEM (eV)
  ---------------------------------------------------
  free  energy   TOTEN  =      -669.87795875 eV

  energy  without entropy=     -669.87795875  energy(sigma->0) =     -669.87795875
 


--------------------------------------------------------------------------------------------------------


    POTLOK:  cpu time    0.1349: real time    0.1354


--------------------------------------------------------------------------------------------------------


 stress matrix after NEB project (eV)
    -11.17785     -1.07341      0.18076
     -1.07341     -1.23781     -0.15728
      0.18076     -0.15728     -3.62239
  FORCES: max atom, RMS     0.098753    0.047337
  FORCE total and by dimension    0.404449    0.082272
  Stress total and by dimension   11.917112   11.177854
     LOOP+:  cpu time  293.3077: real time  295.3504
    4ORBIT:  cpu time    0.0000: real time    0.0000
 


 total charge     
 
# of ion       s       p       d       tot
------------------------------------------
    1        0.863   1.779   0.000   2.642
    2        0.865   1.780   0.000   2.645
    3        0.864   1.783   0.000   2.647
    4        0.864   1.782   0.000   2.646
    5        0.863   1.781   0.000   2.645
    6        0.865   1.784   0.000   2.649
    7        0.861   1.787   0.000   2.648
    8        0.865   1.784   0.000   2.649
    9        1.208   2.698   0.000   3.907
   10        0.853   1.750   0.000   2.603
   11        0.862   1.792   0.000   2.653
   12        0.866   1.785   0.000   2.651
   13        0.864   1.791   0.000   2.655
   14        0.866   1.784   0.000   2.650
   15        0.864   1.784   0.000   2.648
   16        0.865   1.773   0.000   2.638
   17        0.863   1.778   0.000   2.641
   18        0.866   1.768   0.000   2.634
   19        0.862   1.781   0.000   2.643
   20        0.863   1.766   0.000   2.629
   21        0.862   1.793   0.000   2.655
   22        0.864   1.782   0.000   2.646
   23        0.861   1.795   0.000   2.656
   24        0.863   1.782   0.000   2.645
   25        0.863   1.786   0.000   2.649
   26        0.866   1.788   0.000   2.654
   27        0.865   1.788   0.000   2.653
   28        0.869   1.791   0.000   2.660
   29        0.865   1.780   0.000   2.645
   30        0.883   1.687   0.000   2.569
   31        0.859   1.753   0.000   2.611
   32        0.870   1.633   0.000   2.504
   33        0.865   1.791   0.000   2.656
   34        0.869   1.794   0.000   2.664
   35        0.865   1.793   0.000   2.658
   36        0.867   1.792   0.000   2.659
   37        0.866   1.791   0.000   2.657
   38        0.866   1.792   0.000   2.658
   39        0.866   1.793   0.000   2.659
   40        0.866   1.789   0.000   2.656
   41        0.867   1.780   0.000   2.647
   42        0.870   1.769   0.000   2.638
   43        0.875   1.793   0.000   2.668
   44        0.877   1.781   0.000   2.658
   45        0.867   1.795   0.000   2.662
   46        0.868   1.793   0.000   2.661
   47        0.867   1.793   0.000   2.661
   48        0.865   1.787   0.000   2.652
   49        0.867   1.792   0.000   2.659
   50        0.865   1.786   0.000   2.651
   51        0.867   1.792   0.000   2.659
   52        0.864   1.783   0.000   2.648
   53        0.877   1.710   0.000   2.588
   54        0.867   1.775   0.000   2.642
   55        0.869   1.653   0.000   2.521
   56        0.858   1.745   0.000   2.603
   57        0.870   1.798   0.000   2.668
   58        0.866   1.789   0.000   2.655
   59        0.866   1.788   0.000   2.653
   60        0.864   1.784   0.000   2.649
   61        0.865   1.788   0.000   2.653
   62        0.864   1.784   0.000   2.648
   63        0.866   1.792   0.000   2.657
   64        0.863   1.784   0.000   2.647
   65        0.862   1.783   0.000   2.645
   66        0.852   1.749   0.000   2.602
   67        0.862   1.783   0.000   2.645
   68        0.853   1.742   0.000   2.594
   69        0.863   1.771   0.000   2.634
   70        0.861   1.774   0.000   2.635
   71        0.406   6.439   4.319  11.164
   72        0.984   1.540   0.000   2.524
   73        1.627   3.526   0.000   5.153
--------------------------------------------------
tot         63.917 136.744   4.319 204.980
 


 magnetization (x)
 
# of ion       s       p       d       tot
------------------------------------------
    1       -0.000  -0.002   0.000  -0.002
    2        0.000   0.002   0.000   0.002
    3       -0.000  -0.002   0.000  -0.002
    4        0.000   0.006   0.000   0.007
    5       -0.000  -0.003   0.000  -0.004
    6        0.000   0.004   0.000   0.005
    7       -0.000  -0.002   0.000  -0.002
    8        0.000   0.003   0.000   0.004
    9        0.000   0.001   0.000   0.001
   10        0.000   0.004   0.000   0.004
   11       -0.000  -0.003   0.000  -0.003
   12        0.000   0.002   0.000   0.002
   13       -0.000  -0.003   0.000  -0.003
   14        0.000   0.005   0.000   0.006
   15       -0.000  -0.004   0.000  -0.005
   16        0.001   0.005   0.000   0.006
   17       -0.001  -0.005   0.000  -0.006
   18        0.001   0.015   0.000   0.016
   19       -0.000  -0.002   0.000  -0.002
   20        0.001   0.006   0.000   0.007
   21       -0.000  -0.004   0.000  -0.005
   22        0.000   0.003   0.000   0.004
   23       -0.000  -0.003   0.000  -0.003
   24        0.000   0.002   0.000   0.002
   25       -0.000  -0.002   0.000  -0.002
   26        0.000   0.002   0.000   0.003
   27       -0.000  -0.007   0.000  -0.007
   28        0.000   0.003   0.000   0.004
   29       -0.002  -0.016   0.000  -0.018
   30        0.008   0.049   0.000   0.056
   31       -0.001  -0.012   0.000  -0.013
   32        0.007   0.037   0.000   0.044
   33       -0.000  -0.007   0.000  -0.007
   34        0.000   0.004   0.000   0.005
   35       -0.000  -0.000   0.000  -0.001
   36        0.000   0.004   0.000   0.004
   37       -0.000  -0.002   0.000  -0.002
   38        0.000   0.002   0.000   0.002
   39       -0.000  -0.000   0.000  -0.000
   40        0.000   0.006   0.000   0.006
   41       -0.001  -0.006   0.000  -0.007
   42        0.000   0.009   0.000   0.010
   43       -0.002  -0.007   0.000  -0.009
   44       -0.001  -0.000   0.000  -0.001
   45       -0.000  -0.002   0.000  -0.002
   46        0.000   0.004   0.000   0.004
   47       -0.000  -0.001   0.000  -0.001
   48        0.000   0.005   0.000   0.005
   49       -0.000  -0.003   0.000  -0.004
   50        0.000   0.005   0.000   0.006
   51       -0.000  -0.003   0.000  -0.004
   52        0.000   0.002   0.000   0.002
   53        0.004   0.015   0.000   0.019
   54       -0.001  -0.001   0.000  -0.002
   55        0.005   0.019   0.000   0.024
   56       -0.000  -0.005   0.000  -0.006
   57       -0.000  -0.001   0.000  -0.001
   58       -0.000  -0.003   0.000  -0.003
   59       -0.000  -0.002   0.000  -0.002
   60        0.000   0.001   0.000   0.001
   61       -0.000  -0.003   0.000  -0.003
   62        0.000   0.003   0.000   0.004
   63       -0.000  -0.001   0.000  -0.001
   64        0.000   0.002   0.000   0.002
   65       -0.000  -0.003   0.000  -0.003
   66        0.000   0.003   0.000   0.003
   67        0.000   0.002   0.000   0.002
   68       -0.000  -0.000   0.000  -0.001
   69        0.000   0.001   0.000   0.001
   70        0.000   0.003   0.000   0.004
   71       -0.012  -0.014  -0.979  -1.005
   72        0.003  -0.020   0.000  -0.017
   73       -0.001  -0.048   0.000  -0.049
--------------------------------------------------
tot          0.010   0.036  -0.979  -0.933
 
 BZINTS: Fermi energy: -2.292072;303.000000 electrons
         Band energy:***********;  BLOECHL correction:  0.000000

 total amount of memory used by VASP MPI-rank0   115989. kBytes
=======================================================================

   base      :      30000. kBytes
   nonl-proj :      27264. kBytes
   fftplans  :       4700. kBytes
   grid      :      15193. kBytes
   one-center:        217. kBytes
   wavefun   :      38615. kBytes
 
  
  
 General timing and accounting informations for this job:
 ========================================================
  
                  Total CPU time used (sec):      311.863
                            User time (sec):      306.971
                          System time (sec):        4.893
                         Elapsed time (sec):      323.011
  
                   Maximum memory used (kb):      474536.
                   Average memory used (kb):           0.
  
                          Minor page faults:       363679
                          Major page faults:            0
                 Voluntary context switches:         7569
