 vasp.5.4.4.18Apr17-6-g9f103f2a35 (build Sep 02 2021 13:24:58) complex          
  
 executed on             LinuxIFC date 2023.01.15  13:02:11
 running on   48 total cores
 distrk:  each k-point on   48 cores,    1 groups
 distr:  one band on NCORES_PER_BAND=  12 cores,    4 groups


--------------------------------------------------------------------------------------------------------


 INCAR:
 POTCAR:    PAW_PBE C 08Apr2002                   
 POTCAR:    PAW_PBE N 08Apr2002                   
 POTCAR:    PAW_PBE C 08Apr2002                   
 POTCAR:    PAW_PBE Cr_pv 02Aug2007               
 POTCAR:    PAW_PBE C 08Apr2002                   
   SHA256 =  253f7b50bb8d59471dbedb8285d89021f4a42ed1a2c5d38a03a736e69125dd95 C/
   COPYR  = (c) Copyright 08Apr2002 Georg Kresse                                
   COPYR  = This file is part of the software VASP. Any use, copying, and all ot
   COPYR  = If you do not have a valid VASP license, you may not use, copy or di
   VRHFIN =C: s2p2                                                              
   LEXCH  = PE                                                                  
   EATOM  =   147.1560 eV,   10.8157 Ry                                         
                                                                                
   TITEL  = PAW_PBE C 08Apr2002                                                 
   LULTRA =        F    use ultrasoft PP ?                                      
   IUNSCR =        1    unscreen: 0-lin 1-nonlin 2-no                           
   RPACOR =    1.200    partial core radius                                     
   POMASS =   12.011; ZVAL   =    4.000    mass and valenz                      
   RCORE  =    1.500    outmost cutoff radius                                   
   RWIGS  =    1.630; RWIGS  =    0.863    wigner-seitz radius (au A)           
   ENMAX  =  400.000; ENMIN  =  300.000 eV                                      
   ICORE  =        2    local potential                                         
   LCOR   =        T    correct aug charges                                     
   LPAW   =        T    paw PP                                                  
   EAUG   =  644.873                                                            
   DEXC   =    0.000                                                            
   RMAX   =    1.529    core radius for proj-oper                               
   RAUG   =    1.300    factor for augmentation sphere                          
   RDEP   =    1.501    radius for radial grids                                 
   RDEPT  =    1.300    core radius for aug-charge                              
                                                                                
   Atomic configuration                                                         
    4 entries                                                                   
     n  l   j            E        occ.                                          
     1  0  0.50      -273.3789   2.0000                                         
     2  0  0.50       -13.7508   2.0000                                         
     2  1  0.50        -5.2854   2.0000                                         
     3  2  1.50        -5.4423   0.0000                                         
   Description                                                                  
     l       E           TYP  RCUT    TYP  RCUT                                 
     0    -13.7508458     23  1.200                                             
     0     -8.2022199     23  1.200                                             
     1     -5.2854383     23  1.500                                             
     1     34.0145650     23  1.500                                             
     2     -5.4423304      7  1.500                                             
  local pseudopotential read in
  partial core-charges read in
  partial kinetic energy density read in
  atomic valenz-charges read in
  non local Contribution for L=           0  read in
    real space projection operators read in
  non local Contribution for L=           0  read in
    real space projection operators read in
  non local Contribution for L=           1  read in
    real space projection operators read in
  non local Contribution for L=           1  read in
    real space projection operators read in
    PAW grid and wavefunctions read in
 
   number of l-projection  operators is LMAX  =           4
   number of lm-projection operators is LMMAX =           8
 
 POTCAR:    PAW_PBE N 08Apr2002                   
   SHA256 =  e053789ff3a61a86a1b75d8a110fcc91f86041011e7b0817c7c99e4e8a6349d7 N/
   COPYR  = (c) Copyright 08Apr2002 Georg Kresse                                
   COPYR  = This file is part of the software VASP. Any use, copying, and all ot
   COPYR  = If you do not have a valid VASP license, you may not use, copy or di
   VRHFIN =N: s2p3                                                              
   LEXCH  = PE                                                                  
   EATOM  =   264.5486 eV,   19.4438 Ry                                         
                                                                                
   TITEL  = PAW_PBE N 08Apr2002                                                 
   LULTRA =        F    use ultrasoft PP ?                                      
   IUNSCR =        1    unscreen: 0-lin 1-nonlin 2-no                           
   RPACOR =    1.200    partial core radius                                     
   POMASS =   14.001; ZVAL   =    5.000    mass and valenz                      
   RCORE  =    1.500    outmost cutoff radius                                   
   RWIGS  =    1.400; RWIGS  =    0.741    wigner-seitz radius (au A)           
   ENMAX  =  400.000; ENMIN  =  300.000 eV                                      
   ICORE  =        2    local potential                                         
   LCOR   =        T    correct aug charges                                     
   LPAW   =        T    paw PP                                                  
   EAUG   =  627.112                                                            
   DEXC   =    0.000                                                            
   RMAX   =    1.529    core radius for proj-oper                               
   RAUG   =    1.300    factor for augmentation sphere                          
   RDEP   =    1.514    radius for radial grids                                 
   RDEPT  =    1.338    core radius for aug-charge                              
                                                                                
   Atomic configuration                                                         
    4 entries                                                                   
     n  l   j            E        occ.                                          
     1  0  0.50      -384.7179   2.0000                                         
     2  0  0.50       -18.5828   2.0000                                         
     2  1  0.50        -7.0898   3.0000                                         
     3  2  1.50        -6.8029   0.0000                                         
   Description                                                                  
     l       E           TYP  RCUT    TYP  RCUT                                 
     0    -18.5828119     23  1.200                                             
     0    -13.5018863     23  1.200                                             
     1     -7.0897853     23  1.500                                             
     1      9.5240782     23  1.500                                             
     2     -6.8029130      7  1.500                                             
  local pseudopotential read in
  partial core-charges read in
  partial kinetic energy density read in
  atomic valenz-charges read in
  non local Contribution for L=           0  read in
    real space projection operators read in
  non local Contribution for L=           0  read in
    real space projection operators read in
  non local Contribution for L=           1  read in
    real space projection operators read in
  non local Contribution for L=           1  read in
    real space projection operators read in
    PAW grid and wavefunctions read in
 
   number of l-projection  operators is LMAX  =           4
   number of lm-projection operators is LMMAX =           8
 
 POTCAR:    PAW_PBE C 08Apr2002                   
   SHA256 =  253f7b50bb8d59471dbedb8285d89021f4a42ed1a2c5d38a03a736e69125dd95 C/
   COPYR  = (c) Copyright 08Apr2002 Georg Kresse                                
   COPYR  = This file is part of the software VASP. Any use, copying, and all ot
   COPYR  = If you do not have a valid VASP license, you may not use, copy or di
   VRHFIN =C: s2p2                                                              
   LEXCH  = PE                                                                  
   EATOM  =   147.1560 eV,   10.8157 Ry                                         
                                                                                
   TITEL  = PAW_PBE C 08Apr2002                                                 
   LULTRA =        F    use ultrasoft PP ?                                      
   IUNSCR =        1    unscreen: 0-lin 1-nonlin 2-no                           
   RPACOR =    1.200    partial core radius                                     
   POMASS =   12.011; ZVAL   =    4.000    mass and valenz                      
   RCORE  =    1.500    outmost cutoff radius                                   
   RWIGS  =    1.630; RWIGS  =    0.863    wigner-seitz radius (au A)           
   ENMAX  =  400.000; ENMIN  =  300.000 eV                                      
   ICORE  =        2    local potential                                         
   LCOR   =        T    correct aug charges                                     
   LPAW   =        T    paw PP                                                  
   EAUG   =  644.873                                                            
   DEXC   =    0.000                                                            
   RMAX   =    1.529    core radius for proj-oper                               
   RAUG   =    1.300    factor for augmentation sphere                          
   RDEP   =    1.501    radius for radial grids                                 
   RDEPT  =    1.300    core radius for aug-charge                              
                                                                                
   Atomic configuration                                                         
    4 entries                                                                   
     n  l   j            E        occ.                                          
     1  0  0.50      -273.3789   2.0000                                         
     2  0  0.50       -13.7508   2.0000                                         
     2  1  0.50        -5.2854   2.0000                                         
     3  2  1.50        -5.4423   0.0000                                         
   Description                                                                  
     l       E           TYP  RCUT    TYP  RCUT                                 
     0    -13.7508458     23  1.200                                             
     0     -8.2022199     23  1.200                                             
     1     -5.2854383     23  1.500                                             
     1     34.0145650     23  1.500                                             
     2     -5.4423304      7  1.500                                             
  local pseudopotential read in
  partial core-charges read in
  partial kinetic energy density read in
  atomic valenz-charges read in
  non local Contribution for L=           0  read in
    real space projection operators read in
  non local Contribution for L=           0  read in
    real space projection operators read in
  non local Contribution for L=           1  read in
    real space projection operators read in
  non local Contribution for L=           1  read in
    real space projection operators read in
    PAW grid and wavefunctions read in
 
   number of l-projection  operators is LMAX  =           4
   number of lm-projection operators is LMMAX =           8
 
 POTCAR:    PAW_PBE Cr_pv 02Aug2007               
   SHA256 =  c9a7df34d3cdbacf1090e328ef39c0b420964e11c23f63548d1ac9dd218cdba0 Cr
   COPYR  = (c) Copyright 02Aug2007 Georg Kresse                                
   COPYR  = This file is part of the software VASP. Any use, copying, and all ot
   COPYR  = If you do not have a valid VASP license, you may not use, copy or di
   VRHFIN =Cr : p6d5s1                                                          
   LEXCH  = PE                                                                  
   EATOM  =  1647.9177 eV,  121.1185 Ry                                         
                                                                                
   TITEL  = PAW_PBE Cr_pv 02Aug2007                                             
   LULTRA =        F    use ultrasoft PP ?                                      
   IUNSCR =        1    unscreen: 0-lin 1-nonlin 2-no                           
   RPACOR =    2.080    partial core radius                                     
   POMASS =   51.996; ZVAL   =   12.000    mass and valenz                      
   RCORE  =    2.300    outmost cutoff radius                                   
   RWIGS  =    2.500; RWIGS  =    1.323    wigner-seitz radius (au A)           
   ENMAX  =  265.681; ENMIN  =  199.261 eV                                      
   ICORE  =        3    local potential                                         
   LCOR   =        T    correct aug charges                                     
   LPAW   =        T    paw PP                                                  
   EAUG   =  519.424                                                            
   DEXC   =    0.000                                                            
   RMAX   =    2.356    core radius for proj-oper                               
   RAUG   =    1.300    factor for augmentation sphere                          
   RDEP   =    2.447    radius for radial grids                                 
   RDEPT  =    1.882    core radius for aug-charge                              
                                                                                
   Atomic configuration                                                         
    8 entries                                                                   
     n  l   j            E        occ.                                          
     1  0  0.50     -5880.4963   2.0000                                         
     2  0  0.50      -667.0865   2.0000                                         
     2  1  1.50      -560.6250   6.0000                                         
     3  0  0.50       -73.9860   2.0000                                         
     3  1  1.50       -45.4378   6.0000                                         
     3  2  2.50        -2.9137   5.0000                                         
     4  0  0.50        -4.0071   1.0000                                         
     4  3  2.50        -1.3606   0.0000                                         
   Description                                                                  
     l       E           TYP  RCUT    TYP  RCUT                                 
     1    -45.4377911     23  2.000                                             
     1      1.3605826     23  2.000                                             
     2     -2.9136672     23  2.300                                             
     2     -4.2742498     23  2.300                                             
     0     -4.0071320     23  2.300                                             
     0      9.4498803     23  2.300                                             
     3      2.7211652     23  2.300                                             
  local pseudopotential read in
  partial core-charges read in
  partial kinetic energy density read in
  atomic valenz-charges read in
  non local Contribution for L=           1  read in
    real space projection operators read in
  non local Contribution for L=           1  read in
    real space projection operators read in
  non local Contribution for L=           2  read in
    real space projection operators read in
  non local Contribution for L=           2  read in
    real space projection operators read in
  non local Contribution for L=           0  read in
    real space projection operators read in
  non local Contribution for L=           0  read in
    real space projection operators read in
    PAW grid and wavefunctions read in
 
   number of l-projection  operators is LMAX  =           6
   number of lm-projection operators is LMMAX =          18
 
 Optimization of the real space projectors (new method)

 maximal supplied QI-value         = 25.13
 optimisation between [QCUT,QGAM] = [ 11.81, 23.88] = [ 39.08,159.64] Ry 
 Optimized for a Real-space Cutoff    1.18 Angstroem

   l    n(q)    QCUT    max X(q) W(low)/X(q) W(high)/X(q)  e(spline) 
   0      8    11.813   115.676    0.10E-03    0.16E-03    0.35E-06
   0      8    11.813    87.132    0.10E-03    0.16E-03    0.35E-06
   1      8    11.813     4.429    0.16E-03    0.13E-04    0.22E-06
   1      8    11.813     2.733    0.13E-03    0.10E-04    0.18E-06
 Optimization of the real space projectors (new method)

 maximal supplied QI-value         = 25.13
 optimisation between [QCUT,QGAM] = [ 11.81, 23.88] = [ 39.08,159.64] Ry 
 Optimized for a Real-space Cutoff    1.41 Angstroem

   l    n(q)    QCUT    max X(q) W(low)/X(q) W(high)/X(q)  e(spline) 
   0     10    11.813    79.467    0.48E-04    0.30E-04    0.67E-06
   0     10    11.813    66.151    0.47E-04    0.30E-04    0.67E-06
   1     10    11.813    20.169    0.11E-03    0.17E-03    0.11E-05
   1     10    11.813    14.454    0.11E-03    0.17E-03    0.11E-05
 Optimization of the real space projectors (new method)

 maximal supplied QI-value         = 25.13
 optimisation between [QCUT,QGAM] = [ 11.81, 23.88] = [ 39.08,159.64] Ry 
 Optimized for a Real-space Cutoff    1.18 Angstroem

   l    n(q)    QCUT    max X(q) W(low)/X(q) W(high)/X(q)  e(spline) 
   0      8    11.813   115.676    0.10E-03    0.16E-03    0.35E-06
   0      8    11.813    87.132    0.10E-03    0.16E-03    0.35E-06
   1      8    11.813     4.429    0.16E-03    0.13E-04    0.22E-06
   1      8    11.813     2.733    0.13E-03    0.10E-04    0.18E-06
 Optimization of the real space projectors (new method)

 maximal supplied QI-value         = 16.25
 optimisation between [QCUT,QGAM] = [ 11.86, 23.89] = [ 39.41,159.82] Ry 
 Optimized for a Real-space Cutoff    1.33 Angstroem

   l    n(q)    QCUT    max X(q) W(low)/X(q) W(high)/X(q)  e(spline) 
   1      9    11.864     3.262    0.48E-04    0.16E-03    0.14E-06
   1      9    11.864     5.741    0.74E-04    0.40E-03    0.35E-06
   2      9    11.864    60.438    0.17E-03    0.21E-03    0.26E-06
   2      9    11.864    55.380    0.17E-03    0.21E-03    0.27E-06
   0      9    11.864    80.273    0.40E-04    0.47E-04    0.12E-06
   0      9    11.864    36.654    0.35E-04    0.41E-04    0.11E-06
  PAW_PBE C 08Apr2002                   :
 energy of atom  1       EATOM= -147.1560
 kinetic energy error for atom=    0.0066 (will be added to EATOM!!)
  PAW_PBE N 08Apr2002                   :
 energy of atom  2       EATOM= -264.5486
 kinetic energy error for atom=    0.0116 (will be added to EATOM!!)
  PAW_PBE C 08Apr2002                   :
 energy of atom  3       EATOM= -147.1560
 kinetic energy error for atom=    0.0066 (will be added to EATOM!!)
  PAW_PBE Cr_pv 02Aug2007               :
 energy of atom  4       EATOM=-1647.9177
 kinetic energy error for atom=    0.0054 (will be added to EATOM!!)
 
 
 POSCAR: POSCAR-clean                            
  positions in cartesian coordinates
  No initial velocities read in
 exchange correlation table for  LEXCH =        8
   RHO(1)=    0.500       N(1)  =     2000
   RHO(2)=  100.500       N(2)  =     4000
 


--------------------------------------------------------------------------------------------------------


 ion  position               nearest neighbor table
   1  0.000  1.000  0.498-   2 1.42  60 1.42  70 1.43
   2  0.056  0.111  0.498-   1 1.42  13 1.42  15 1.43
   3  0.168  0.002  0.498-   4 1.42  62 1.43  60 1.43
   4  0.224  0.113  0.498-   3 1.42  15 1.42  17 1.44
   5  0.334  0.002  0.498-   6 1.42  62 1.43  64 1.43
   6  0.390  0.113  0.498-   5 1.42  19 1.42  17 1.44
   7  0.500  1.000  0.498-   8 1.42  64 1.42  66 1.43
   8  0.556  0.111  0.498-   7 1.42  21 1.42  19 1.43
   9  0.666  0.998  0.498-  10 1.42  66 1.42  68 1.44
  10  0.722  0.109  0.498-   9 1.42  23 1.43  21 1.43
  11  0.832  0.998  0.498-  12 1.42  70 1.42  68 1.44
  12  0.888  0.109  0.498-  11 1.42  23 1.43  13 1.43
  13  0.999  0.165  0.498-  14 1.42   2 1.42  12 1.43
  14  0.054  0.277  0.499-  13 1.42  25 1.42  27 1.43
  15  0.167  0.168  0.498-  16 1.42   4 1.42   2 1.43
  16  0.223  0.280  0.500-  15 1.42  27 1.43  29 1.44
  17  0.335  0.170  0.499-  18 1.42   4 1.44   6 1.44
  18  0.391  0.281  0.503-  17 1.42  31 1.44  29 1.44
  19  0.501  0.168  0.498-  20 1.42   6 1.42   8 1.43
  20  0.557  0.280  0.500-  19 1.42  33 1.43  31 1.44
  21  0.667  0.165  0.498-  22 1.42   8 1.42  10 1.43
  22  0.723  0.277  0.498-  21 1.42  35 1.42  33 1.43
  23  0.833  0.165  0.498-  24 1.42  10 1.43  12 1.43
  24  0.888  0.276  0.498-  23 1.42  25 1.42  35 1.43
  25  0.999  0.332  0.498-  14 1.42  26 1.42  24 1.42
  26  0.054  0.444  0.499-  39 1.42  37 1.42  25 1.42
  27  0.165  0.333  0.500-  28 1.42  16 1.43  14 1.43
  28  0.219  0.444  0.502-  41 1.41  27 1.42  39 1.42
  29  0.335  0.338  0.503-  30 1.41  18 1.44  16 1.44
  30  0.387  0.448  0.510-  41 1.41  29 1.41  71 2.00
  31  0.503  0.338  0.504-  32 1.41  18 1.44  20 1.44
  32  0.562  0.448  0.510-  43 1.41  31 1.41  71 2.00
  33  0.668  0.333  0.500-  34 1.42  20 1.43  22 1.43
  34  0.725  0.444  0.501-  43 1.41  33 1.42  45 1.42
  35  0.833  0.332  0.498-  22 1.42  36 1.42  24 1.43
  36  0.890  0.444  0.498-  45 1.42  37 1.42  35 1.42
  37  0.000  0.500  0.498-  36 1.42  26 1.42  38 1.42
  38  0.056  0.611  0.498-  47 1.42  49 1.42  37 1.42
  39  0.165  0.500  0.500-  26 1.42  28 1.42  40 1.42
  40  0.220  0.611  0.500-  49 1.42  51 1.42  39 1.42
  41  0.329  0.499  0.505-  30 1.41  28 1.41  42 1.44
  42  0.385  0.612  0.505-  53 1.41  51 1.41  41 1.44
  43  0.671  0.499  0.505-  32 1.41  34 1.41  44 1.44
  44  0.727  0.612  0.505-  55 1.41  57 1.41  43 1.44
  45  0.836  0.500  0.499-  36 1.42  34 1.42  46 1.42
  46  0.891  0.611  0.499-  47 1.42  57 1.42  45 1.42
  47  0.001  0.667  0.498-  46 1.42  38 1.42  48 1.42
  48  0.057  0.779  0.498-  59 1.42  47 1.42  61 1.43
  49  0.166  0.667  0.499-  40 1.42  38 1.42  50 1.42
  50  0.222  0.779  0.498-  63 1.42  49 1.42  61 1.42
  51  0.331  0.667  0.502-  42 1.41  52 1.42  40 1.42
  52  0.388  0.778  0.500-  51 1.42  65 1.43  63 1.43
  53  0.494  0.663  0.510-  42 1.41  54 1.41  71 2.00
  54  0.553  0.773  0.503-  53 1.41  67 1.44  65 1.44
  55  0.669  0.663  0.510-  44 1.41  56 1.41  71 2.00
  56  0.721  0.773  0.504-  55 1.41  67 1.44  69 1.44
  57  0.837  0.667  0.501-  44 1.41  58 1.42  46 1.42
  58  0.891  0.778  0.500-  57 1.42  69 1.42  59 1.43
  59  0.002  0.835  0.498-  60 1.42  48 1.42  58 1.43
  60  0.057  0.946  0.498-  59 1.42   1 1.42   3 1.43
  61  0.168  0.835  0.498-  62 1.42  50 1.42  48 1.43
  62  0.223  0.946  0.498-  61 1.42   3 1.43   5 1.43
  63  0.333  0.835  0.499-  64 1.42  50 1.42  52 1.43
  64  0.389  0.946  0.498-  63 1.42   7 1.42   5 1.43
  65  0.499  0.832  0.500-  66 1.42  52 1.43  54 1.44
  66  0.555  0.943  0.498-  65 1.42   9 1.42   7 1.43
  67  0.665  0.830  0.503-  68 1.42  56 1.44  54 1.44
  68  0.721  0.941  0.499-  67 1.42   9 1.44  11 1.44
  69  0.833  0.832  0.500-  70 1.42  58 1.42  56 1.44
  70  0.889  0.943  0.498-  69 1.42  11 1.42   1 1.43
  71  0.528  0.556  0.554-  55 2.00  32 2.00  53 2.00  30 2.00
 

IMPORTANT INFORMATION: All symmetrisations will be switched off!
NOSYMM: (Re-)initialisation of all symmetry stuff for point group C_1.

 
 
 KPOINTS: K-Points                                

Automatic generation of k-mesh.
Space group operators:
 irot       det(A)        alpha          n_x          n_y          n_z        tau_x        tau_y        tau_z
    1     1.000000     0.000000     1.000000     0.000000     0.000000     0.000000     0.000000     0.000000
 
 Subroutine IBZKPT returns following result:
 ===========================================
 
 Found      4 irreducible k-points:
 
 Following reciprocal coordinates:
            Coordinates               Weight
  0.000000  0.000000  0.000000      1.000000
  0.500000  0.000000  0.000000      1.000000
 -0.000000  0.500000  0.000000      1.000000
  0.500000  0.500000  0.000000      1.000000
 
 Following cartesian coordinates:
            Coordinates               Weight
  0.000000  0.000000  0.000000      1.000000
  0.033606  0.019589  0.000000      1.000000
 -0.000000  0.039178  0.000000      1.000000
  0.033606  0.058767  0.000000      1.000000
 


--------------------------------------------------------------------------------------------------------




 Dimension of arrays:
   k-points           NKPTS =      4   k-points in BZ     NKDIM =      4   number of bands    NBANDS=    184
   number of dos      NEDOS =    301   number of ions     NIONS =     71
   non local maximal  LDIM  =      6   non local SUM 2l+1 LMDIM =     18
   total plane-waves  NPLWV = ******
   max r-space proj   IRMAX =   7110   max aug-charges    IRDMAX=  21308
   dimension x,y,z NGX =   120 NGY =  120 NGZ =  120
   dimension x,y,z NGXF=   240 NGYF=  240 NGZF=  240
   support grid    NGXF=   240 NGYF=  240 NGZF=  240
   ions per type =              17   1  52   1
   NGX,Y,Z   is equivalent  to a cutoff of  13.41, 13.50, 13.30 a.u.
   NGXF,Y,Z  is equivalent  to a cutoff of  26.82, 27.01, 26.60 a.u.

 SYSTEM =  unknown system                          
 POSCAR =  POSCAR-clean                            

 Startparameter for this run:
   NWRITE =      2    write-flag & timer
   PREC   = accura    normal or accurate (medium, high low for compatibility)
   ISTART =      0    job   : 0-new  1-cont  2-samecut
   ICHARG =      2    charge: 1-file 2-atom 10-const
   ISPIN  =      2    spin polarized calculation?
   LNONCOLLINEAR =      F non collinear calculations
   LSORBIT =      F    spin-orbit coupling
   INIWAV =      1    electr: 0-lowe 1-rand  2-diag
   LASPH  =      F    aspherical Exc in radial PAW
   METAGGA=      F    non-selfconsistent MetaGGA calc.

 Electronic Relaxation 1
   ENCUT  =  550.0 eV  40.42 Ry    6.36 a.u.  28.45 28.25 28.68*2*pi/ulx,y,z
   ENINI  =  550.0     initial cutoff
   ENAUG  =  644.9 eV  augmentation charge cutoff
   NELM   =     50;   NELMIN=  2; NELMDL= -5     # of ELM steps 
   EDIFF  = 0.1E-04   stopping-criterion for ELM
   LREAL  =      T    real-space projection
   NLSPLINE    = F    spline interpolate recip. space projectors
   LCOMPAT=      F    compatible to vasp.4.4
   GGA_COMPAT  = T    GGA compatible to vasp.4.4-vasp.4.6
   LMAXPAW     = -100 max onsite density
   LMAXMIX     =    2 max onsite mixed and CHGCAR
   VOSKOWN=      0    Vosko Wilk Nusair interpolation
   ROPT   =   -0.00025  -0.00025  -0.00025  -0.00025
 Ionic relaxation
   EDIFFG = -.5E-01   stopping-criterion for IOM
   NSW    =    400    number of steps for IOM
   NBLOCK =      1;   KBLOCK =    400    inner block; outer block 
   IBRION =      2    ionic relax: 0-MD 1-quasi-New 2-CG
   NFREE  =      1    steps in history (QN), initial steepest desc. (CG)
   ISIF   =      3    stress and relaxation
   IWAVPR =     11    prediction:  0-non 1-charg 2-wave 3-comb
   ISYM   =      0    0-nonsym 1-usesym 2-fastsym
   LCORR  =      T    Harris-Foulkes like correction to forces

   POTIM  = 0.3000    time-step for ionic-motion
   TEIN   =    0.0    initial temperature
   TEBEG  =    0.0;   TEEND  =   0.0 temperature during run
   SMASS  =  -3.00    Nose mass-parameter (am)
   estimated Nose-frequenzy (Omega)   =  0.10E-29 period in steps =****** mass=  -0.506E-26a.u.
   SCALEE = 1.0000    scale energy and forces
   NPACO  =    256;   APACO  = 16.0  distance and # of slots for P.C.
   PSTRESS=    0.0 pullay stress

  Mass of Ions in am
   POMASS =  12.01 14.00 12.01 52.00
  Ionic Valenz
   ZVAL   =   4.00  5.00  4.00 12.00
  Atomic Wigner-Seitz radii
   RWIGS  =  -1.00 -1.00 -1.00 -1.00
  virtual crystal weights 
   VCA    =   1.00  1.00  1.00  1.00
   NELECT =     293.0000    total number of electrons
   NUPDOWN=      -1.0000    fix difference up-down

 DOS related values:
   EMIN   =  10.00;   EMAX   =-10.00  energy-range for DOS
   EFERMI =   0.00
   ISMEAR =     0;   SIGMA  =   0.10  broadening in eV -4-tet -1-fermi 0-gaus

 Electronic relaxation 2 (details)
   IALGO  =     68    algorithm
   LDIAG  =      T    sub-space diagonalisation (order eigenvalues)
   LSUBROT=      F    optimize rotation matrix (better conditioning)
   TURBO    =      0    0=normal 1=particle mesh
   IRESTART =      0    0=no restart 2=restart with 2 vectors
   NREBOOT  =      0    no. of reboots
   NMIN     =      0    reboot dimension
   EREF     =   0.00    reference energy to select bands
   IMIX   =      4    mixing-type and parameters
     AMIX     =   0.40;   BMIX     =  1.00
     AMIX_MAG =   1.60;   BMIX_MAG =  1.00
     AMIN     =   0.10
     WC   =   100.;   INIMIX=   1;  MIXPRE=   1;  MAXMIX= -45

 Intra band minimization:
   WEIMIN = 0.0010     energy-eigenvalue tresh-hold
   EBREAK =  0.14E-07  absolut break condition
   DEPER  =   0.30     relativ break condition  

   TIME   =   0.40     timestep for ELM

  volume/ion in A,a.u.               =      40.12       270.71
  Fermi-wavevector in a.u.,A,eV,Ry     =   0.767079  1.449569  8.005805  0.588410
  Thomas-Fermi vector in A             =   1.867557
 
 Write flags
   LWAVE        =      F    write WAVECAR
   LDOWNSAMPLE  =      F    k-point downsampling of WAVECAR
   LCHARG       =      F    write CHGCAR
   LVTOT        =      F    write LOCPOT, total local potential
   LVHAR        =      F    write LOCPOT, Hartree potential only
   LELF         =      F    write electronic localiz. function (ELF)
   LORBIT       =      0    0 simple, 1 ext, 2 COOP (PROOUT), +10 PAW based schemes


 Dipole corrections
   LMONO  =      F    monopole corrections only (constant potential shift)
   LDIPOL =      F    correct potential (dipole corrections)
   IDIPOL =      0    1-x, 2-y, 3-z, 4-all directions 
   EPSILON=  1.0000000 bulk dielectric constant

 Exchange correlation treatment:
   GGA     =    --    GGA type
   LEXCH   =     8    internal setting for exchange type
   VOSKOWN=      0    Vosko Wilk Nusair interpolation
   LHFCALC =     F    Hartree Fock is set to
   LHFONE  =     F    Hartree Fock one center treatment
   AEXX    =    0.0000 exact exchange contribution

 Linear response parameters
   LEPSILON=     F    determine dielectric tensor
   LRPA    =     F    only Hartree local field effects (RPA)
   LNABLA  =     F    use nabla operator in PAW spheres
   LVEL    =     F    velocity operator in full k-point grid
   LINTERFAST=   F  fast interpolation
   KINTER  =     0    interpolate to denser k-point grid
   CSHIFT  =0.1000    complex shift for real part using Kramers Kronig
   OMEGAMAX=  -1.0    maximum frequency
   DEG_THRESHOLD= 0.2000000E-02 threshold for treating states as degnerate
   RTIME   =   -0.100 relaxation time in fs
  (WPLASMAI=    0.000 imaginary part of plasma frequency in eV, 0.658/RTIME)
   DFIELD  = 0.0000000 0.0000000 0.0000000 field for delta impulse in time
 
 Orbital magnetization related:
   ORBITALMAG=     F  switch on orbital magnetization
   LCHIMAG   =     F  perturbation theory with respect to B field
   DQ        =  0.001000  dq finite difference perturbation B field
   LLRAUG    =     F  two centre corrections for induced B field



--------------------------------------------------------------------------------------------------------


 conjugate gradient relaxation of ions
 charge density and potential will be updated during run
 spin polarized calculation
 RMM-DIIS sequential band-by-band and
  variant of blocked Davidson during initial phase
 perform sub-space diagonalisation
    before iterative eigenvector-optimisation
 modified Broyden-mixing scheme, WC =      100.0
 initial mixing is a Kerker type mixing with AMIX =  0.4000 and BMIX =      1.0000
 Hartree-type preconditioning will be used
 using additional bands           37
 real space projection scheme for non local part
 use partial core corrections
 calculate Harris-corrections to forces 
   (improved forces if not selfconsistent)
 use gradient corrections 
 use of overlap-Matrix (Vanderbilt PP)
 Gauss-broadening in eV      SIGMA  =   0.10


--------------------------------------------------------------------------------------------------------


  energy-cutoff  :      550.00
  volume of cell :     2848.21
      direct lattice vectors                 reciprocal lattice vectors
    14.878307727  0.000105424  0.000000000     0.067211667  0.039178051  0.000000000
    -7.439153864 12.762195204  0.000000000    -0.000000555  0.078356102  0.000000000
     0.000000000  0.000000000 15.000000000     0.000000000  0.000000000  0.066666667

  length of vectors
    14.878307728 14.772089786 15.000000000     0.077796709  0.078356102  0.066666667


 
 k-points in units of 2pi/SCALE and weight: K-Points                                
   0.00000000  0.00000000  0.00000000       0.250
   0.03360583  0.01958903  0.00000000       0.250
  -0.00000028  0.03917805  0.00000000       0.250
   0.03360556  0.05876708  0.00000000       0.250
 
 k-points in reciprocal lattice and weights: K-Points                                
   0.00000000  0.00000000  0.00000000       0.250
   0.50000000  0.00000000  0.00000000       0.250
  -0.00000000  0.50000000  0.00000000       0.250
   0.50000000  0.50000000  0.00000000       0.250
 
 position of ions in fractional coordinates (direct lattice) 
   0.00014703  0.99993181  0.49766807
   0.05571316  0.11129367  0.49774774
   0.16803225  0.00210520  0.49753985
   0.22355821  0.11343998  0.49825115
   0.33432830  0.00207694  0.49777234
   0.39014706  0.11341551  0.49841838
   0.50002407  0.99989044  0.49775648
   0.55582710  0.11125266  0.49767590
   0.66571506  0.99774295  0.49825147
   0.72152612  0.10907882  0.49753824
   0.83231512  0.99776674  0.49841003
   0.88783929  0.10910686  0.49776801
   0.99908442  0.16549374  0.49784405
   0.05430809  0.27667161  0.49853746
   0.16734775  0.16806595  0.49834347
   0.22284185  0.27957445  0.49997583
   0.33528932  0.17029644  0.49941211
   0.39084341  0.28141813  0.50254970
   0.50097822  0.16802960  0.49842000
   0.55697129  0.27954076  0.49998817
   0.66664919  0.16545038  0.49752014
   0.72257294  0.27663324  0.49802908
   0.83255361  0.16485921  0.49764969
   0.88821716  0.27620991  0.49780056
   0.99906908  0.33222521  0.49838447
   0.05442247  0.44382388  0.49884723
   0.16531768  0.33288444  0.50001215
   0.21898612  0.44382270  0.50165224
   0.33514858  0.33773328  0.50339031
   0.38694525  0.44827387  0.50958670
   0.50284791  0.33770682  0.50360105
   0.56160602  0.44823797  0.50998391
   0.66778145  0.33285443  0.49963749
   0.72504010  0.44380782  0.50114295
   0.83335701  0.33221195  0.49791518
   0.88957865  0.44380677  0.49825237
   0.00003314  0.49990030  0.49835048
   0.05573614  0.61130743  0.49834565
   0.16452790  0.49985599  0.50032235
   0.22027264  0.61134265  0.50031499
   0.32877881  0.49923631  0.50514604
   0.38513300  0.61194665  0.50514739
   0.67071104  0.49923365  0.50517220
   0.72707059  0.61195035  0.50517224
   0.83551700  0.49986026  0.49948453
   0.89125350  0.61133457  0.49948422
   0.00136430  0.66739252  0.49824937
   0.05673614  0.77898562  0.49790902
   0.16620335  0.66738054  0.49883406
   0.22244721  0.77897560  0.49837060
   0.33076298  0.66736579  0.50164604
   0.38803591  0.77830247  0.50000539
   0.49425975  0.66291375  0.50958718
   0.55300964  0.77344715  0.50338828
   0.66896610  0.66295341  0.50998288
   0.72073432  0.77348097  0.50359479
   0.83682433  0.66738081  0.50114212
   0.89051054  0.77833045  0.49963539
   0.00151950  0.83455528  0.49802741
   0.05677874  0.94573836  0.49751926
   0.16759972  0.83498348  0.49779087
   0.22328727  0.94632847  0.49764984
   0.33324173  0.83452222  0.49853136
   0.38919606  0.94569806  0.49784785
   0.49886656  0.83160652  0.49997424
   0.55488261  0.94311446  0.49834783
   0.66501623  0.82976534  0.50254304
   0.72058356  0.94088512  0.49940688
   0.83301728  0.83164625  0.49998031
   0.88852543  0.94315192  0.49840894
   0.52788678  0.55561308  0.55407295
 
 position of ions in cartesian coordinates  (Angst):
  -7.43645893 12.76132490  7.46502101
   0.00098677  1.42035737  7.46621609
   2.48437460  0.02688469  7.46309769
   2.48227038  1.44776676  7.47376727
   4.95878870  0.02654158  7.46658504
   4.96101252  1.44747206  7.47627575
   0.00117320 12.76084966  7.46634727
   7.44214093  1.41988678  7.46513856
   2.48235028 12.73346045  7.47377203
   9.92363354  1.39216125  7.46307356
   4.96090025 12.73378160  7.47615045
  12.39788345  1.39253665  7.46652020
  13.63355202  2.11216869  7.46766080
  -1.25019027  3.53094287  7.47806186
   1.23958287  2.14490807  7.47515208
   1.23571236  3.56800714  7.49963746
   3.72167632  2.17339173  7.49118168
   3.72157576  3.59155433  7.53824552
   6.20371007  2.14447940  7.47630003
   6.20724356  3.56761241  7.49982262
   8.68780104  2.11158030  7.46280215
   8.69274532  3.53052356  7.47043619
  11.16057575  2.10405319  7.46474541
  11.16040021  3.52513843  7.46700843
  12.39298273  4.24002833  7.47576708
  -2.49195986  5.66417272  7.48270852
  -0.01673121  4.24835367  7.50018218
  -0.04352248  5.66417505  7.52478359
   2.47399392  4.31025334  7.55085470
   2.42231217  5.72099937  7.64380057
   4.96927299  4.30993342  7.55401582
   5.02123589  5.72055973  7.64975858
   7.45930259  4.24802358  7.49456242
   7.48581505  5.66403852  7.51714419
   9.92756627  4.23984160  7.46872767
   9.93387816  5.66404236  7.47378561
  -3.71834223  6.37982525  7.47525727
  -3.71835051  7.80163060  7.47518475
  -1.27060894  6.37927707  7.50483528
  -1.27058799  7.80209747  7.50472492
   1.17777658  6.37138591  7.57719062
   1.17776199  7.80982318  7.57721079
   6.26516932  6.37138797  7.57758296
   6.26518706  7.80990654  7.57758361
   8.71254167  6.37940228  7.49226792
   8.71253189  7.80206507  7.49226324
  -4.94453714  8.51739379  7.47374059
  -4.95085604  9.94157246  7.46863529
  -2.49192199  8.51725823  7.48251084
  -2.48528121  9.94146208  7.47555906
  -0.04344336  8.51708741  7.52469062
  -0.01659412  9.93288892  7.50008080
   2.42223119  8.46028680  7.64380763
   2.47405524  9.87094181  7.55082413
   5.02127100  8.46081135  7.64974323
   4.96926315  9.87139105  7.55392179
   7.48578134  8.51733237  7.51713176
   7.45916989  9.93329897  7.49453080
  -6.18577746 10.65075751  7.47041111
  -6.19072161 12.06970350  7.46278894
  -3.71797037 10.65623981  7.46686302
  -3.71774635 12.07725221  7.46474766
  -1.25006613 10.65037063  7.47797042
  -1.24461459 12.06922431  7.46771775
   1.23584141 10.61317732  7.49961357
   1.23974067 12.03626939  7.47521740
   3.72156413 10.58969736  7.53814562
   3.72167477 12.00783549  7.49110317
   6.20714301 10.61371955  7.49970466
   6.20350242 12.03678263  7.47613410
   3.72077071  7.09089829  8.31109430
 


--------------------------------------------------------------------------------------------------------


 k-point  1 :   0.0000 0.0000 0.0000  plane waves:   83445
 k-point  2 :   0.5000 0.0000 0.0000  plane waves:   83448
 k-point  3 :  -0.0000 0.5000 0.0000  plane waves:   83436
 k-point  4 :   0.5000 0.5000 0.0000  plane waves:   83444

 maximum and minimum number of plane-waves per node :      6984     6935

 maximum number of plane-waves:     83448
 maximum index in each direction: 
   IXMAX=   28   IYMAX=   28   IZMAX=   28
   IXMIN=  -28   IYMIN=  -28   IZMIN=  -28


 real space projection operators:
  total allocation   :      18578.98 KBytes
  max/ min on nodes  :       1558.11       1535.22


 parallel 3D FFT for wavefunctions:
    minimum data exchange during FFTs selected (reduces bandwidth)
 parallel 3D FFT for charge:
    minimum data exchange during FFTs selected (reduces bandwidth)


 total amount of memory used by VASP MPI-rank0   135440. kBytes
=======================================================================

   base      :      30000. kBytes
   nonlr-proj:      10451. kBytes
   fftplans  :      14072. kBytes
   grid      :      39398. kBytes
   one-center:        186. kBytes
   wavefun   :      41333. kBytes
 
     INWAV:  cpu time    0.0000: real time    0.0000
 Broyden mixing: mesh for mixing (old mesh)
   NGX = 57   NGY = 57   NGZ = 57
  (NGX  =240   NGY  =240   NGZ  =240)
  gives a total of 185193 points

 initial charge density was supplied:
 charge density of overlapping atoms calculated
 number of electron     293.0000000 magnetization       1.0000000
 keeping initial charge density in first step


--------------------------------------------------------------------------------------------------------


 Maximum index for non-local projection operator          507
 Maximum index for augmentation-charges          402 (set IRDMAX)


--------------------------------------------------------------------------------------------------------


 First call to EWALD:  gamma=   0.125
 Maximum number of real-space cells 3x 3x 3
 Maximum number of reciprocal cells 3x 3x 3

    FEWALD:  cpu time    0.0030: real time    0.0031


--------------------------------------- Iteration      1(   1)  ---------------------------------------


    POTLOK:  cpu time    0.5286: real time    0.5535
    SETDIJ:  cpu time    0.0164: real time    0.0237
     EDDAV:  cpu time   16.8451: real time   17.0175
       DOS:  cpu time    0.0010: real time    0.0010
    --------------------------------------------
      LOOP:  cpu time   17.3911: real time   17.5958

 eigenvalue-minimisations  :  3256
 total energy-change (2. order) : 0.2735850E+04  (-0.1173975E+05)
 number of electron     293.0000000 magnetization       1.0000000
 augmentation part      293.0000000 magnetization       1.0000000

 Free energy of the ion-electron system (eV)
  ---------------------------------------------------
  alpha Z        PSCENC =       156.95040625
  Ewald energy   TEWEN  =     30376.96590148
  -Hartree energ DENC   =    -39542.94436526
  -exchange      EXHF   =         0.00000000
  -V(xc)+E(xc)   XCENC  =       982.53545745
  PAW double counting   =      9000.30529238    -9089.18527416
  entropy T*S    EENTRO =        -0.11516054
  eigenvalues    EBANDS =     -1214.42036500
  atomic energy  EATOM  =     12065.75791449
  Solvation  Ediel_sol  =         0.00000000
  ---------------------------------------------------
  free energy    TOTEN  =      2735.84980709 eV

  energy without entropy =     2735.96496764  energy(sigma->0) =     2735.90738736


--------------------------------------------------------------------------------------------------------




--------------------------------------- Iteration      1(   2)  ---------------------------------------


     EDDAV:  cpu time   21.5134: real time   21.7901
       DOS:  cpu time    0.0010: real time    0.0010
    --------------------------------------------
      LOOP:  cpu time   21.5144: real time   21.7910

 eigenvalue-minimisations  :  4304
 total energy-change (2. order) :-0.2909046E+04  (-0.2780000E+04)
 number of electron     293.0000000 magnetization       1.0000000
 augmentation part      293.0000000 magnetization       1.0000000

 Free energy of the ion-electron system (eV)
  ---------------------------------------------------
  alpha Z        PSCENC =       156.95040625
  Ewald energy   TEWEN  =     30376.96590148
  -Hartree energ DENC   =    -39542.94436526
  -exchange      EXHF   =         0.00000000
  -V(xc)+E(xc)   XCENC  =       982.53545745
  PAW double counting   =      9000.30529238    -9089.18527416
  entropy T*S    EENTRO =        -0.02844744
  eigenvalues    EBANDS =     -4123.55303711
  atomic energy  EATOM  =     12065.75791449
  Solvation  Ediel_sol  =         0.00000000
  ---------------------------------------------------
  free energy    TOTEN  =      -173.19615191 eV

  energy without entropy =     -173.16770447  energy(sigma->0) =     -173.18192819


--------------------------------------------------------------------------------------------------------




--------------------------------------- Iteration      1(   3)  ---------------------------------------


     EDDAV:  cpu time   18.6914: real time   18.8801
       DOS:  cpu time    0.0009: real time    0.0009
    --------------------------------------------
      LOOP:  cpu time   18.6924: real time   18.8810

 eigenvalue-minimisations  :  3552
 total energy-change (2. order) :-0.5114299E+03  (-0.5085352E+03)
 number of electron     293.0000000 magnetization       1.0000000
 augmentation part      293.0000000 magnetization       1.0000000

 Free energy of the ion-electron system (eV)
  ---------------------------------------------------
  alpha Z        PSCENC =       156.95040625
  Ewald energy   TEWEN  =     30376.96590148
  -Hartree energ DENC   =    -39542.94436526
  -exchange      EXHF   =         0.00000000
  -V(xc)+E(xc)   XCENC  =       982.53545745
  PAW double counting   =      9000.30529238    -9089.18527416
  entropy T*S    EENTRO =        -0.02206159
  eigenvalues    EBANDS =     -4634.98933318
  atomic energy  EATOM  =     12065.75791449
  Solvation  Ediel_sol  =         0.00000000
  ---------------------------------------------------
  free energy    TOTEN  =      -684.62606213 eV

  energy without entropy =     -684.60400054  energy(sigma->0) =     -684.61503133


--------------------------------------------------------------------------------------------------------




--------------------------------------- Iteration      1(   4)  ---------------------------------------


     EDDAV:  cpu time   18.4094: real time   18.5822
       DOS:  cpu time    0.0009: real time    0.0009
    --------------------------------------------
      LOOP:  cpu time   18.4104: real time   18.5832

 eigenvalue-minimisations  :  3536
 total energy-change (2. order) :-0.1942303E+02  (-0.1927641E+02)
 number of electron     293.0000000 magnetization       1.0000000
 augmentation part      293.0000000 magnetization       1.0000000

 Free energy of the ion-electron system (eV)
  ---------------------------------------------------
  alpha Z        PSCENC =       156.95040625
  Ewald energy   TEWEN  =     30376.96590148
  -Hartree energ DENC   =    -39542.94436526
  -exchange      EXHF   =         0.00000000
  -V(xc)+E(xc)   XCENC  =       982.53545745
  PAW double counting   =      9000.30529238    -9089.18527416
  entropy T*S    EENTRO =        -0.01716211
  eigenvalues    EBANDS =     -4654.41726425
  atomic energy  EATOM  =     12065.75791449
  Solvation  Ediel_sol  =         0.00000000
  ---------------------------------------------------
  free energy    TOTEN  =      -704.04909371 eV

  energy without entropy =     -704.03193161  energy(sigma->0) =     -704.04051266


--------------------------------------------------------------------------------------------------------




--------------------------------------- Iteration      1(   5)  ---------------------------------------


     EDDAV:  cpu time   20.7125: real time   20.9722
       DOS:  cpu time    0.0010: real time    0.0011
    CHARGE:  cpu time    0.9697: real time    0.9863
    MIXING:  cpu time    0.0096: real time    0.0122
    --------------------------------------------
      LOOP:  cpu time   21.6928: real time   21.9718

 eigenvalue-minimisations  :  4048
 total energy-change (2. order) :-0.6278491E+00  (-0.6258752E+00)
 number of electron     292.9999997 magnetization       0.7676523
 augmentation part       11.6700835 magnetization       0.7801115

 Broyden mixing:
  rms(total) = 0.46565E+01    rms(broyden)= 0.46561E+01
  rms(prec ) = 0.54243E+01
  weight for this iteration     100.00

 Free energy of the ion-electron system (eV)
  ---------------------------------------------------
  alpha Z        PSCENC =       156.95040625
  Ewald energy   TEWEN  =     30376.96590148
  -Hartree energ DENC   =    -39542.94436526
  -exchange      EXHF   =         0.00000000
  -V(xc)+E(xc)   XCENC  =       982.53545745
  PAW double counting   =      9000.30529238    -9089.18527416
  entropy T*S    EENTRO =        -0.01747682
  eigenvalues    EBANDS =     -4655.04479867
  atomic energy  EATOM  =     12065.75791449
  Solvation  Ediel_sol  =         0.00000000
  ---------------------------------------------------
  free energy    TOTEN  =      -704.67694286 eV

  energy without entropy =     -704.65946604  energy(sigma->0) =     -704.66820445


--------------------------------------------------------------------------------------------------------




--------------------------------------- Iteration      1(   6)  ---------------------------------------


    POTLOK:  cpu time    0.5377: real time    0.5486
    SETDIJ:  cpu time    0.0149: real time    0.0157
    EDDIAG:  cpu time    3.2931: real time    3.3316
  RMM-DIIS:  cpu time   17.5802: real time   17.7340
    ORTHCH:  cpu time    0.2758: real time    0.2771
       DOS:  cpu time    0.0011: real time    0.0010
    CHARGE:  cpu time    1.0203: real time    1.0362
    MIXING:  cpu time    0.0093: real time    0.0103
    --------------------------------------------
      LOOP:  cpu time   22.7324: real time   22.9546

 eigenvalue-minimisations  :  4066
 total energy-change (2. order) :-0.2782397E+02  (-0.5320937E+02)
 number of electron     293.0000007 magnetization       0.7228122
 augmentation part       17.3443678 magnetization       0.8066913

 Broyden mixing:
  rms(total) = 0.84286E+01    rms(broyden)= 0.84285E+01
  rms(prec ) = 0.93085E+01
  weight for this iteration     100.00

 eigenvalues of (default mixing * dielectric matrix)
  average eigenvalue GAMMA=   0.2146
  0.2146

 Free energy of the ion-electron system (eV)
  ---------------------------------------------------
  alpha Z        PSCENC =       156.95040625
  Ewald energy   TEWEN  =     30376.96590148
  -Hartree energ DENC   =    -39835.89186089
  -exchange      EXHF   =         0.00000000
  -V(xc)+E(xc)   XCENC  =       996.33811994
  PAW double counting   =     15151.18338102   -15239.89001058
  entropy T*S    EENTRO =        -0.05510650
  eigenvalues    EBANDS =     -4403.85966144
  atomic energy  EATOM  =     12065.75791449
  Solvation  Ediel_sol  =         0.00000000
  ---------------------------------------------------
  free energy    TOTEN  =      -732.50091623 eV

  energy without entropy =     -732.44580972  energy(sigma->0) =     -732.47336298


--------------------------------------------------------------------------------------------------------




--------------------------------------- Iteration      1(   7)  ---------------------------------------


    POTLOK:  cpu time    0.5382: real time    0.5460
    SETDIJ:  cpu time    0.0151: real time    0.0151
    EDDIAG:  cpu time    3.2783: real time    3.3093
  RMM-DIIS:  cpu time   13.3086: real time   13.4159
    ORTHCH:  cpu time    0.3810: real time    0.3819
       DOS:  cpu time    0.0009: real time    0.0009
    CHARGE:  cpu time    1.0108: real time    1.0253
    MIXING:  cpu time    0.0093: real time    0.0101
    --------------------------------------------
      LOOP:  cpu time   18.5422: real time   18.7046

 eigenvalue-minimisations  :  3059
 total energy-change (2. order) : 0.6989874E+02  (-0.5673019E+01)
 number of electron     293.0000005 magnetization       0.6122906
 augmentation part       15.2280286 magnetization       0.6202459

 Broyden mixing:
  rms(total) = 0.31755E+01    rms(broyden)= 0.31755E+01
  rms(prec ) = 0.38068E+01
  weight for this iteration     100.00

 eigenvalues of (default mixing * dielectric matrix)
  average eigenvalue GAMMA=   0.4656
  0.5129  0.4183

 Free energy of the ion-electron system (eV)
  ---------------------------------------------------
  alpha Z        PSCENC =       156.95040625
  Ewald energy   TEWEN  =     30376.96590148
  -Hartree energ DENC   =    -39957.42521268
  -exchange      EXHF   =         0.00000000
  -V(xc)+E(xc)   XCENC  =      1000.85850449
  PAW double counting   =     16736.03660144   -16831.54955403
  entropy T*S    EENTRO =        -0.00056528
  eigenvalues    EBANDS =     -4210.19617421
  atomic energy  EATOM  =     12065.75791449
  Solvation  Ediel_sol  =         0.00000000
  ---------------------------------------------------
  free energy    TOTEN  =      -662.60217805 eV

  energy without entropy =     -662.60161277  energy(sigma->0) =     -662.60189541


--------------------------------------------------------------------------------------------------------




--------------------------------------- Iteration      1(   8)  ---------------------------------------


    POTLOK:  cpu time    0.5153: real time    0.5234
    SETDIJ:  cpu time    0.0148: real time    0.0152
    EDDIAG:  cpu time    3.2066: real time    3.2347
  RMM-DIIS:  cpu time   13.6435: real time   13.7440
    ORTHCH:  cpu time    0.5143: real time    0.5213
       DOS:  cpu time    0.0010: real time    0.0010
    CHARGE:  cpu time    1.0025: real time    1.0148
    MIXING:  cpu time    0.0103: real time    0.0103
    --------------------------------------------
      LOOP:  cpu time   18.9083: real time   19.0646

 eigenvalue-minimisations  :  3135
 total energy-change (2. order) : 0.2379700E+00  (-0.2116978E+01)
 number of electron     292.9999999 magnetization       0.3587895
 augmentation part       11.2324529 magnetization       0.2869370

 Broyden mixing:
  rms(total) = 0.28307E+01    rms(broyden)= 0.28304E+01
  rms(prec ) = 0.34732E+01
  weight for this iteration     100.00

 eigenvalues of (default mixing * dielectric matrix)
  average eigenvalue GAMMA=   0.8485
  1.8685  0.3385  0.3385

 Free energy of the ion-electron system (eV)
  ---------------------------------------------------
  alpha Z        PSCENC =       156.95040625
  Ewald energy   TEWEN  =     30376.96590148
  -Hartree energ DENC   =    -40138.39685903
  -exchange      EXHF   =         0.00000000
  -V(xc)+E(xc)   XCENC  =      1007.60269287
  PAW double counting   =     19665.93311039   -19765.46965618
  entropy T*S    EENTRO =        -0.03749417
  eigenvalues    EBANDS =     -4031.67022412
  atomic energy  EATOM  =     12065.75791449
  Solvation  Ediel_sol  =         0.00000000
  ---------------------------------------------------
  free energy    TOTEN  =      -662.36420802 eV

  energy without entropy =     -662.32671385  energy(sigma->0) =     -662.34546093


--------------------------------------------------------------------------------------------------------




--------------------------------------- Iteration      1(   9)  ---------------------------------------


    POTLOK:  cpu time    0.5342: real time    0.5390
    SETDIJ:  cpu time    0.0150: real time    0.0154
    EDDIAG:  cpu time    3.1847: real time    3.2107
  RMM-DIIS:  cpu time   12.8893: real time   12.9855
    ORTHCH:  cpu time    0.4208: real time    0.4229
       DOS:  cpu time    0.0009: real time    0.0009
    CHARGE:  cpu time    0.9996: real time    1.0108
    MIXING:  cpu time    0.0118: real time    0.0119
    --------------------------------------------
      LOOP:  cpu time   18.0563: real time   18.1971

 eigenvalue-minimisations  :  2971
 total energy-change (2. order) : 0.1513052E+02  (-0.2023014E+01)
 number of electron     293.0000002 magnetization       0.2954228
 augmentation part       12.3017761 magnetization       0.2551772

 Broyden mixing:
  rms(total) = 0.10659E+01    rms(broyden)= 0.10657E+01
  rms(prec ) = 0.11767E+01
  weight for this iteration     100.00

 eigenvalues of (default mixing * dielectric matrix)
  average eigenvalue GAMMA=   0.9183
  2.2036  0.7739  0.3479  0.3479

 Free energy of the ion-electron system (eV)
  ---------------------------------------------------
  alpha Z        PSCENC =       156.95040625
  Ewald energy   TEWEN  =     30376.96590148
  -Hartree energ DENC   =    -40442.88828153
  -exchange      EXHF   =         0.00000000
  -V(xc)+E(xc)   XCENC  =      1020.42916059
  PAW double counting   =     27850.91330230   -27953.17298607
  entropy T*S    EENTRO =        -0.03397202
  eigenvalues    EBANDS =     -3722.15513552
  atomic energy  EATOM  =     12065.75791449
  Solvation  Ediel_sol  =         0.00000000
  ---------------------------------------------------
  free energy    TOTEN  =      -647.23369001 eV

  energy without entropy =     -647.19971800  energy(sigma->0) =     -647.21670400


--------------------------------------------------------------------------------------------------------




--------------------------------------- Iteration      1(  10)  ---------------------------------------


    POTLOK:  cpu time    0.5331: real time    0.5375
    SETDIJ:  cpu time    0.0148: real time    0.0149
    EDDIAG:  cpu time    3.2291: real time    3.2553
  RMM-DIIS:  cpu time   13.1438: real time   13.2533
    ORTHCH:  cpu time    0.4581: real time    0.4599
       DOS:  cpu time    0.0010: real time    0.0010
    CHARGE:  cpu time    0.9738: real time    0.9846
    MIXING:  cpu time    0.0107: real time    0.0107
    --------------------------------------------
      LOOP:  cpu time   18.3643: real time   18.5172

 eigenvalue-minimisations  :  3005
 total energy-change (2. order) :-0.6549614E+00  (-0.2696281E+00)
 number of electron     293.0000004 magnetization       0.2491641
 augmentation part       13.7062560 magnetization       0.2601090

 Broyden mixing:
  rms(total) = 0.13786E+01    rms(broyden)= 0.13782E+01
  rms(prec ) = 0.17082E+01
  weight for this iteration     100.00

 eigenvalues of (default mixing * dielectric matrix)
  average eigenvalue GAMMA=   0.9232
  2.3373  1.1074  0.3451  0.3451  0.4811

 Free energy of the ion-electron system (eV)
  ---------------------------------------------------
  alpha Z        PSCENC =       156.95040625
  Ewald energy   TEWEN  =     30376.96590148
  -Hartree energ DENC   =    -40487.74772795
  -exchange      EXHF   =         0.00000000
  -V(xc)+E(xc)   XCENC  =      1021.36953625
  PAW double counting   =     29358.38993978   -29459.48309200
  entropy T*S    EENTRO =        -0.01330490
  eigenvalues    EBANDS =     -3680.07822478
  atomic energy  EATOM  =     12065.75791449
  Solvation  Ediel_sol  =         0.00000000
  ---------------------------------------------------
  free energy    TOTEN  =      -647.88865139 eV

  energy without entropy =     -647.87534649  energy(sigma->0) =     -647.88199894


--------------------------------------------------------------------------------------------------------




--------------------------------------- Iteration      1(  11)  ---------------------------------------


    POTLOK:  cpu time    0.5242: real time    0.5294
    SETDIJ:  cpu time    0.0149: real time    0.0150
    EDDIAG:  cpu time    3.2021: real time    3.2303
  RMM-DIIS:  cpu time   13.6422: real time   13.7446
    ORTHCH:  cpu time    0.4612: real time    0.4624
       DOS:  cpu time    0.0010: real time    0.0010
    CHARGE:  cpu time    0.9772: real time    0.9899
    MIXING:  cpu time    0.0114: real time    0.0123
    --------------------------------------------
      LOOP:  cpu time   18.8343: real time   18.9850

 eigenvalue-minimisations  :  3119
 total energy-change (2. order) : 0.1109290E+01  (-0.3906607E-01)
 number of electron     293.0000002 magnetization       0.2709157
 augmentation part       12.6381123 magnetization       0.0915632

 Broyden mixing:
  rms(total) = 0.71296E+00    rms(broyden)= 0.71252E+00
  rms(prec ) = 0.73953E+00
  weight for this iteration     100.00

 eigenvalues of (default mixing * dielectric matrix)
  average eigenvalue GAMMA=   0.9349
  2.1154  1.9478  0.3441  0.3441  0.5089  0.3489

 Free energy of the ion-electron system (eV)
  ---------------------------------------------------
  alpha Z        PSCENC =       156.95040625
  Ewald energy   TEWEN  =     30376.96590148
  -Hartree energ DENC   =    -40520.20016966
  -exchange      EXHF   =         0.00000000
  -V(xc)+E(xc)   XCENC  =      1021.76673558
  PAW double counting   =     29995.49251225   -30095.90880358
  entropy T*S    EENTRO =        -0.05674038
  eigenvalues    EBANDS =     -3647.54711775
  atomic energy  EATOM  =     12065.75791449
  Solvation  Ediel_sol  =         0.00000000
  ---------------------------------------------------
  free energy    TOTEN  =      -646.77936133 eV

  energy without entropy =     -646.72262094  energy(sigma->0) =     -646.75099113


--------------------------------------------------------------------------------------------------------




--------------------------------------- Iteration      1(  12)  ---------------------------------------


    POTLOK:  cpu time    0.5269: real time    0.5308
    SETDIJ:  cpu time    0.0154: real time    0.0156
    EDDIAG:  cpu time    3.2215: real time    3.2456
  RMM-DIIS:  cpu time   12.8455: real time   12.9441
    ORTHCH:  cpu time    0.3602: real time    0.3719
       DOS:  cpu time    0.0010: real time    0.0010
    CHARGE:  cpu time    0.9980: real time    1.0070
    MIXING:  cpu time    0.0127: real time    0.0127
    --------------------------------------------
      LOOP:  cpu time   17.9811: real time   18.1286

 eigenvalue-minimisations  :  2946
 total energy-change (2. order) :-0.1645721E+00  (-0.1855083E-01)
 number of electron     293.0000003 magnetization       0.2400415
 augmentation part       12.9515563 magnetization      -0.1753791

 Broyden mixing:
  rms(total) = 0.65313E+00    rms(broyden)= 0.65293E+00
  rms(prec ) = 0.68730E+00
  weight for this iteration     100.00

 eigenvalues of (default mixing * dielectric matrix)
  average eigenvalue GAMMA=   0.8094
  2.1123  1.9535  0.3441  0.3441  0.5195  0.3571  0.0354

 Free energy of the ion-electron system (eV)
  ---------------------------------------------------
  alpha Z        PSCENC =       156.95040625
  Ewald energy   TEWEN  =     30376.96590148
  -Hartree energ DENC   =    -40542.39088393
  -exchange      EXHF   =         0.00000000
  -V(xc)+E(xc)   XCENC  =      1021.43054351
  PAW double counting   =     30367.94543260   -30466.97403252
  entropy T*S    EENTRO =        -0.03616409
  eigenvalues    EBANDS =     -3626.59305118
  atomic energy  EATOM  =     12065.75791449
  Solvation  Ediel_sol  =         0.00000000
  ---------------------------------------------------
  free energy    TOTEN  =      -646.94393339 eV

  energy without entropy =     -646.90776930  energy(sigma->0) =     -646.92585134


--------------------------------------------------------------------------------------------------------




--------------------------------------- Iteration      1(  13)  ---------------------------------------


    POTLOK:  cpu time    0.5310: real time    0.5355
    SETDIJ:  cpu time    0.0151: real time    0.0152
    EDDIAG:  cpu time    3.2242: real time    3.2560
  RMM-DIIS:  cpu time   13.2746: real time   13.3671
    ORTHCH:  cpu time    0.2988: real time    0.2996
       DOS:  cpu time    0.0009: real time    0.0009
    CHARGE:  cpu time    0.9981: real time    1.0072
    MIXING:  cpu time    0.0131: real time    0.0133
    --------------------------------------------
      LOOP:  cpu time   18.3557: real time   18.4948

 eigenvalue-minimisations  :  3067
 total energy-change (2. order) : 0.4252619E-01  (-0.1866285E-02)
 number of electron     293.0000003 magnetization       0.4318508
 augmentation part       12.9555225 magnetization      -0.0054685

 Broyden mixing:
  rms(total) = 0.68954E+00    rms(broyden)= 0.68953E+00
  rms(prec ) = 0.72226E+00
  weight for this iteration     100.00

 eigenvalues of (default mixing * dielectric matrix)
  average eigenvalue GAMMA=   0.9137
  2.1736  2.1736  0.6317  0.6317  0.6318  0.3437  0.3437  0.3800

 Free energy of the ion-electron system (eV)
  ---------------------------------------------------
  alpha Z        PSCENC =       156.95040625
  Ewald energy   TEWEN  =     30376.96590148
  -Hartree energ DENC   =    -40540.15730935
  -exchange      EXHF   =         0.00000000
  -V(xc)+E(xc)   XCENC  =      1021.37653814
  PAW double counting   =     30374.17322665   -30473.16618498
  entropy T*S    EENTRO =        -0.03627586
  eigenvalues    EBANDS =     -3628.76562401
  atomic energy  EATOM  =     12065.75791449
  Solvation  Ediel_sol  =         0.00000000
  ---------------------------------------------------
  free energy    TOTEN  =      -646.90140719 eV

  energy without entropy =     -646.86513133  energy(sigma->0) =     -646.88326926


--------------------------------------------------------------------------------------------------------




--------------------------------------- Iteration      1(  14)  ---------------------------------------


    POTLOK:  cpu time    0.5635: real time    0.5682
    SETDIJ:  cpu time    0.0151: real time    0.0152
    EDDIAG:  cpu time    3.2339: real time    3.2579
  RMM-DIIS:  cpu time   13.2871: real time   13.3886
    ORTHCH:  cpu time    0.3098: real time    0.3105
       DOS:  cpu time    0.0010: real time    0.0010
    CHARGE:  cpu time    0.9513: real time    0.9602
    MIXING:  cpu time    0.0132: real time    0.0133
    --------------------------------------------
      LOOP:  cpu time   18.3749: real time   18.5150

 eigenvalue-minimisations  :  3024
 total energy-change (2. order) :-0.6309834E-01  (-0.1532577E-01)
 number of electron     293.0000003 magnetization       0.6107721
 augmentation part       12.8542182 magnetization       0.2740495

 Broyden mixing:
  rms(total) = 0.54207E+00    rms(broyden)= 0.54204E+00
  rms(prec ) = 0.55605E+00
  weight for this iteration     100.00

 eigenvalues of (default mixing * dielectric matrix)
  average eigenvalue GAMMA=   0.9166
  2.1724  2.1724  0.9289  0.9289  0.5893  0.3441  0.3441  0.4215  0.3479

 Free energy of the ion-electron system (eV)
  ---------------------------------------------------
  alpha Z        PSCENC =       156.95040625
  Ewald energy   TEWEN  =     30376.96590148
  -Hartree energ DENC   =    -40559.71861389
  -exchange      EXHF   =         0.00000000
  -V(xc)+E(xc)   XCENC  =      1021.59851024
  PAW double counting   =     30478.17714871   -30576.78518139
  entropy T*S    EENTRO =        -0.03234675
  eigenvalues    EBANDS =     -3609.87824467
  atomic energy  EATOM  =     12065.75791449
  Solvation  Ediel_sol  =         0.00000000
  ---------------------------------------------------
  free energy    TOTEN  =      -646.96450553 eV

  energy without entropy =     -646.93215878  energy(sigma->0) =     -646.94833216


--------------------------------------------------------------------------------------------------------




--------------------------------------- Iteration      1(  15)  ---------------------------------------


    POTLOK:  cpu time    0.5119: real time    0.5159
    SETDIJ:  cpu time    0.0151: real time    0.0152
    EDDIAG:  cpu time    3.2340: real time    3.2580
  RMM-DIIS:  cpu time   13.0465: real time   13.1524
    ORTHCH:  cpu time    0.2637: real time    0.2652
       DOS:  cpu time    0.0009: real time    0.0009
    CHARGE:  cpu time    1.0196: real time    1.0321
    MIXING:  cpu time    0.0123: real time    0.0125
    --------------------------------------------
      LOOP:  cpu time   18.1040: real time   18.2522

 eigenvalue-minimisations  :  2995
 total energy-change (2. order) :-0.5247216E-01  (-0.1305676E-01)
 number of electron     293.0000003 magnetization       1.0457166
 augmentation part       12.9520720 magnetization       0.8246156

 Broyden mixing:
  rms(total) = 0.49404E+00    rms(broyden)= 0.49403E+00
  rms(prec ) = 0.52893E+00
  weight for this iteration     100.00

 eigenvalues of (default mixing * dielectric matrix)
  average eigenvalue GAMMA=   1.0175
  1.9852  1.9852  1.6740  1.6740  0.6187  0.6187  0.3438  0.3438  0.5542  0.3769

 Free energy of the ion-electron system (eV)
  ---------------------------------------------------
  alpha Z        PSCENC =       156.95040625
  Ewald energy   TEWEN  =     30376.96590148
  -Hartree energ DENC   =    -40573.89824842
  -exchange      EXHF   =         0.00000000
  -V(xc)+E(xc)   XCENC  =      1021.99564850
  PAW double counting   =     30475.87727940   -30574.46936089
  entropy T*S    EENTRO =        -0.03184177
  eigenvalues    EBANDS =     -3596.16467673
  atomic energy  EATOM  =     12065.75791449
  Solvation  Ediel_sol  =         0.00000000
  ---------------------------------------------------
  free energy    TOTEN  =      -647.01697769 eV

  energy without entropy =     -646.98513593  energy(sigma->0) =     -647.00105681


--------------------------------------------------------------------------------------------------------




--------------------------------------- Iteration      1(  16)  ---------------------------------------


    POTLOK:  cpu time    0.5504: real time    0.5598
    SETDIJ:  cpu time    0.0153: real time    0.0154
    EDDIAG:  cpu time    3.2008: real time    3.2277
  RMM-DIIS:  cpu time   13.0291: real time   13.1289
    ORTHCH:  cpu time    0.4171: real time    0.4179
       DOS:  cpu time    0.0010: real time    0.0010
    CHARGE:  cpu time    0.9560: real time    0.9668
    MIXING:  cpu time    0.0123: real time    0.0126
    --------------------------------------------
      LOOP:  cpu time   18.1821: real time   18.3302

 eigenvalue-minimisations  :  2983
 total energy-change (2. order) : 0.1586770E+00  (-0.2977553E-01)
 number of electron     293.0000003 magnetization       1.0570396
 augmentation part       12.9230152 magnetization       0.9494328

 Broyden mixing:
  rms(total) = 0.24494E+00    rms(broyden)= 0.24488E+00
  rms(prec ) = 0.29260E+00
  weight for this iteration     100.00

 eigenvalues of (default mixing * dielectric matrix)
  average eigenvalue GAMMA=   1.0190
  2.0723  2.0723  1.7386  1.7386  0.6510  0.6510  0.3439  0.3439  0.6255  0.5968
  0.3747

 Free energy of the ion-electron system (eV)
  ---------------------------------------------------
  alpha Z        PSCENC =       156.95040625
  Ewald energy   TEWEN  =     30376.96590148
  -Hartree energ DENC   =    -40608.53809942
  -exchange      EXHF   =         0.00000000
  -V(xc)+E(xc)   XCENC  =      1023.14292478
  PAW double counting   =     30385.45195394   -30484.13649134
  entropy T*S    EENTRO =        -0.04397930
  eigenvalues    EBANDS =     -3562.40883159
  atomic energy  EATOM  =     12065.75791449
  Solvation  Ediel_sol  =         0.00000000
  ---------------------------------------------------
  free energy    TOTEN  =      -646.85830071 eV

  energy without entropy =     -646.81432141  energy(sigma->0) =     -646.83631106


--------------------------------------------------------------------------------------------------------




--------------------------------------- Iteration      1(  17)  ---------------------------------------


    POTLOK:  cpu time    0.5663: real time    0.5740
    SETDIJ:  cpu time    0.0148: real time    0.0149
    EDDIAG:  cpu time    3.2586: real time    3.2845
  RMM-DIIS:  cpu time   13.3664: real time   13.4673
    ORTHCH:  cpu time    0.2859: real time    0.2872
       DOS:  cpu time    0.0010: real time    0.0010
    CHARGE:  cpu time    0.9933: real time    1.0015
    MIXING:  cpu time    0.0137: real time    0.0139
    --------------------------------------------
      LOOP:  cpu time   18.4999: real time   18.6444

 eigenvalue-minimisations  :  3049
 total energy-change (2. order) :-0.1177649E+00  (-0.5755169E-02)
 number of electron     293.0000003 magnetization       1.2223939
 augmentation part       12.8479122 magnetization       1.1032109

 Broyden mixing:
  rms(total) = 0.17309E+00    rms(broyden)= 0.17309E+00
  rms(prec ) = 0.19784E+00
  weight for this iteration     100.00

 eigenvalues of (default mixing * dielectric matrix)
  average eigenvalue GAMMA=   1.0164
  2.0127  2.0127  1.8769  1.8769  0.7035  0.7035  0.7438  0.3439  0.3439  0.6016
  0.6016  0.3758

 Free energy of the ion-electron system (eV)
  ---------------------------------------------------
  alpha Z        PSCENC =       156.95040625
  Ewald energy   TEWEN  =     30376.96590148
  -Hartree energ DENC   =    -40611.80220471
  -exchange      EXHF   =         0.00000000
  -V(xc)+E(xc)   XCENC  =      1022.93318746
  PAW double counting   =     30410.15149119   -30508.85028313
  entropy T*S    EENTRO =        -0.03948477
  eigenvalues    EBANDS =     -3559.04299391
  atomic energy  EATOM  =     12065.75791449
  Solvation  Ediel_sol  =         0.00000000
  ---------------------------------------------------
  free energy    TOTEN  =      -646.97606564 eV

  energy without entropy =     -646.93658087  energy(sigma->0) =     -646.95632325


--------------------------------------------------------------------------------------------------------




--------------------------------------- Iteration      1(  18)  ---------------------------------------


    POTLOK:  cpu time    0.5302: real time    0.5344
    SETDIJ:  cpu time    0.0149: real time    0.0150
    EDDIAG:  cpu time    3.2708: real time    3.2955
  RMM-DIIS:  cpu time   13.1670: real time   13.2719
    ORTHCH:  cpu time    0.2588: real time    0.2600
       DOS:  cpu time    0.0010: real time    0.0010
    CHARGE:  cpu time    0.9802: real time    0.9884
    MIXING:  cpu time    0.0145: real time    0.0145
    --------------------------------------------
      LOOP:  cpu time   18.2374: real time   18.3807

 eigenvalue-minimisations  :  3014
 total energy-change (2. order) :-0.8609912E-01  (-0.5201454E-02)
 number of electron     293.0000003 magnetization       1.3681587
 augmentation part       12.8162007 magnetization       1.2461378

 Broyden mixing:
  rms(total) = 0.11048E+00    rms(broyden)= 0.11047E+00
  rms(prec ) = 0.13041E+00
  weight for this iteration     100.00

 eigenvalues of (default mixing * dielectric matrix)
  average eigenvalue GAMMA=   1.0674
  2.1203  2.1203  1.9704  1.9704  1.2232  0.6911  0.6911  0.3439  0.3439  0.3752
  0.7374  0.6445  0.6445

 Free energy of the ion-electron system (eV)
  ---------------------------------------------------
  alpha Z        PSCENC =       156.95040625
  Ewald energy   TEWEN  =     30376.96590148
  -Hartree energ DENC   =    -40629.79773957
  -exchange      EXHF   =         0.00000000
  -V(xc)+E(xc)   XCENC  =      1023.12953093
  PAW double counting   =     30390.53578760   -30489.28681718
  entropy T*S    EENTRO =        -0.04129457
  eigenvalues    EBANDS =     -3541.27585418
  atomic energy  EATOM  =     12065.75791449
  Solvation  Ediel_sol  =         0.00000000
  ---------------------------------------------------
  free energy    TOTEN  =      -647.06216476 eV

  energy without entropy =     -647.02087018  energy(sigma->0) =     -647.04151747


--------------------------------------------------------------------------------------------------------




--------------------------------------- Iteration      1(  19)  ---------------------------------------


    POTLOK:  cpu time    0.5122: real time    0.5163
    SETDIJ:  cpu time    0.0146: real time    0.0151
    EDDIAG:  cpu time    3.2281: real time    3.2532
  RMM-DIIS:  cpu time   12.8805: real time   12.9972
    ORTHCH:  cpu time    0.2497: real time    0.2504
       DOS:  cpu time    0.0009: real time    0.0009
    CHARGE:  cpu time    0.9607: real time    0.9727
    MIXING:  cpu time    0.0143: real time    0.0146
    --------------------------------------------
      LOOP:  cpu time   17.8612: real time   18.0203

 eigenvalue-minimisations  :  2948
 total energy-change (2. order) :-0.1218379E+00  (-0.6092295E-02)
 number of electron     293.0000003 magnetization       1.4686720
 augmentation part       12.8139789 magnetization       1.3160942

 Broyden mixing:
  rms(total) = 0.86951E-01    rms(broyden)= 0.86951E-01
  rms(prec ) = 0.10918E+00
  weight for this iteration     100.00

 eigenvalues of (default mixing * dielectric matrix)
  average eigenvalue GAMMA=   1.0691
  2.1880  2.1880  2.0271  2.0271  1.3488  0.6909  0.6909  0.3439  0.3439  0.8242
  0.6853  0.6853  0.3754  0.5489

 Free energy of the ion-electron system (eV)
  ---------------------------------------------------
  alpha Z        PSCENC =       156.95040625
  Ewald energy   TEWEN  =     30376.96590148
  -Hartree energ DENC   =    -40649.29217274
  -exchange      EXHF   =         0.00000000
  -V(xc)+E(xc)   XCENC  =      1023.23205751
  PAW double counting   =     30379.48177039   -30478.22318497
  entropy T*S    EENTRO =        -0.04298631
  eigenvalues    EBANDS =     -3522.01370872
  atomic energy  EATOM  =     12065.75791449
  Solvation  Ediel_sol  =         0.00000000
  ---------------------------------------------------
  free energy    TOTEN  =      -647.18400263 eV

  energy without entropy =     -647.14101632  energy(sigma->0) =     -647.16250947


--------------------------------------------------------------------------------------------------------




--------------------------------------- Iteration      1(  20)  ---------------------------------------


    POTLOK:  cpu time    0.5582: real time    0.5637
    SETDIJ:  cpu time    0.0151: real time    0.0152
    EDDIAG:  cpu time    3.2161: real time    3.2449
  RMM-DIIS:  cpu time   13.0128: real time   13.1065
    ORTHCH:  cpu time    0.2860: real time    0.2868
       DOS:  cpu time    0.0010: real time    0.0010
    CHARGE:  cpu time    0.9627: real time    0.9734
    MIXING:  cpu time    0.0151: real time    0.0155
    --------------------------------------------
      LOOP:  cpu time   18.0670: real time   18.2070

 eigenvalue-minimisations  :  2978
 total energy-change (2. order) :-0.5712089E-01  (-0.5653956E-02)
 number of electron     293.0000003 magnetization       1.5295487
 augmentation part       12.8013348 magnetization       1.3416502

 Broyden mixing:
  rms(total) = 0.67309E-01    rms(broyden)= 0.67308E-01
  rms(prec ) = 0.86132E-01
  weight for this iteration     100.00

 eigenvalues of (default mixing * dielectric matrix)
  average eigenvalue GAMMA=   1.0394
  2.2722  2.2722  1.8451  1.8451  1.7405  0.8192  0.6951  0.6951  0.3439  0.3439
  0.6394  0.6394  0.3752  0.5322  0.5322

 Free energy of the ion-electron system (eV)
  ---------------------------------------------------
  alpha Z        PSCENC =       156.95040625
  Ewald energy   TEWEN  =     30376.96590148
  -Hartree energ DENC   =    -40664.53794258
  -exchange      EXHF   =         0.00000000
  -V(xc)+E(xc)   XCENC  =      1023.29408212
  PAW double counting   =     30357.38230982   -30456.09299130
  entropy T*S    EENTRO =        -0.04425274
  eigenvalues    EBANDS =     -3506.91655106
  atomic energy  EATOM  =     12065.75791449
  Solvation  Ediel_sol  =         0.00000000
  ---------------------------------------------------
  free energy    TOTEN  =      -647.24112352 eV

  energy without entropy =     -647.19687077  energy(sigma->0) =     -647.21899714


[...]
  Direction    XX          YY          ZZ          XY          YZ          ZX
  --------------------------------------------------------------------------------------
  Alpha Z   157.45328   157.45328   157.45328
  Ewald   40563.00211 40624.02855-50695.76123    -0.02931    22.44757     0.10846
  Hartree 40038.40124 40026.85208-39246.60233    -0.02950    16.66266     0.10531
  E(xc)   -1111.15253 -1110.78914 -1150.24785    -0.00000     0.00348    -0.00128
  Local  -83808.08396-83843.22897 86153.25996     0.06206   -37.79026    -0.24119
  n-local  -289.69653  -287.52909  -270.11776    -0.00043    -0.09219     0.01807
  augment    66.63566    64.55230    65.58208    -0.00122    -0.15725     0.01319
  Kinetic  4385.21766  4370.57541  4985.73190    -0.00258    -1.06224    -0.00214
  Fock        0.00000     0.00000     0.00000     0.00000     0.00000     0.00000
  vdW        -1.44859    -1.59761    -0.03918     0.00006    -0.00038     0.00125
  -------------------------------------------------------------------------------------
  Total       0.32834     0.31682    -0.74113    -0.00092     0.01139     0.00167
  in kB       0.18529     0.17879    -0.41824    -0.00052     0.00643     0.00094
  external pressure =       -0.02 kB  Pullay stress =        0.00 kB


 VOLUME and BASIS-vectors are now :
 -----------------------------------------------------------------------------
  energy-cutoff  :      550.00
  volume of cell :     2839.11
      direct lattice vectors                 reciprocal lattice vectors
    14.848061936 -0.000035172  0.000000000     0.067348950  0.039223679  0.000000000
    -7.424030968 12.747419585  0.000000000     0.000000186  0.078447357  0.000000000
     0.000000000  0.000000000 15.000000000     0.000000000  0.000000000  0.066666667

  length of vectors
    14.848061936 14.751709796 15.000000000     0.077938296  0.078447357  0.066666667


 FORCES acting on ions
    electron-ion (+dipol)            ewald-force                    non-local-force                 convergence-correction
 -----------------------------------------------------------------------------------------------
   0.359E+01 0.871E+00 0.792E+01   -.377E+01 -.104E+01 -.795E+01   0.176E+00 0.178E+00 0.299E-01   -.344E-03 -.478E-03 0.163E-04
   0.135E+01 0.293E+01 0.784E+01   -.166E+01 -.312E+01 -.786E+01   0.278E+00 0.163E+00 0.230E-01   0.620E-03 0.404E-03 0.125E-04
   0.379E+01 0.355E+01 0.765E+01   -.381E+01 -.402E+01 -.769E+01   0.993E-02 0.468E+00 0.363E-01   -.524E-03 -.461E-03 0.177E-03
   0.453E+01 0.113E+02 0.697E+01   -.544E+01 -.120E+02 -.699E+01   0.907E+00 0.744E+00 0.272E-01   -.117E-03 0.873E-03 0.446E-03
   -.380E+01 0.356E+01 0.691E+01   0.381E+01 -.403E+01 -.694E+01   -.103E-01 0.469E+00 0.304E-01   0.542E-03 -.474E-03 0.578E-04
   -.453E+01 0.113E+02 0.634E+01   0.544E+01 -.120E+02 -.636E+01   -.908E+00 0.743E+00 0.197E-01   0.942E-04 0.913E-03 0.314E-03
   -.359E+01 0.863E+00 0.768E+01   0.376E+01 -.103E+01 -.770E+01   -.176E+00 0.179E+00 0.271E-01   0.353E-03 -.471E-03 0.139E-05
   -.135E+01 0.292E+01 0.800E+01   0.165E+01 -.311E+01 -.803E+01   -.279E+00 0.164E+00 0.259E-01   -.626E-03 0.440E-03 0.626E-05
   -.138E+01 -.172E+00 0.756E+01   0.148E+01 0.532E-01 -.757E+01   -.104E+00 0.137E+00 0.103E-01   -.214E-03 -.915E-03 -.699E-06
   0.193E+00 -.509E+00 0.756E+01   -.860E-01 0.363E+00 -.759E+01   -.113E+00 0.138E+00 0.268E-01   -.582E-04 -.933E-04 -.166E-03
   0.137E+01 -.164E+00 0.700E+01   -.148E+01 0.447E-01 -.701E+01   0.104E+00 0.137E+00 0.651E-02   0.188E-03 -.961E-03 -.123E-03
   -.187E+00 -.518E+00 0.681E+01   0.791E-01 0.372E+00 -.683E+01   0.113E+00 0.138E+00 0.214E-01   0.771E-04 -.768E-04 -.296E-03
   0.472E+01 0.546E+01 0.704E+01   -.488E+01 -.550E+01 -.705E+01   0.155E+00 0.466E-01 0.953E-02   0.452E-03 -.125E-03 -.257E-03
   0.460E+01 0.164E+01 0.627E+01   -.472E+01 -.168E+01 -.629E+01   0.102E+00 0.431E-01 0.194E-01   0.251E-03 0.676E-03 -.264E-03
   0.871E+01 0.103E+02 0.853E+01   -.932E+01 -.105E+02 -.854E+01   0.613E+00 0.158E+00 0.116E-01   -.115E-03 -.545E-03 -.683E-05
   0.785E+01 0.478E+01 0.110E+02   -.857E+01 -.490E+01 -.111E+02   0.720E+00 0.115E+00 0.122E+00   0.770E-03 0.522E-04 -.616E-03
   -.145E-01 0.315E+02 0.592E+01   0.148E-01 -.372E+02 -.604E+01   -.158E-03 0.564E+01 0.123E+00   0.249E-04 -.618E-04 0.198E-03
   -.851E-01 0.135E+02 0.716E+01   0.953E-01 -.121E+02 -.658E+01   -.108E-01 -.139E+01 -.587E+00   0.566E-05 0.649E-03 -.139E-02
   -.871E+01 0.103E+02 0.815E+01   0.932E+01 -.104E+02 -.816E+01   -.614E+00 0.159E+00 0.715E-02   0.114E-03 -.534E-03 -.162E-03
   -.779E+01 0.476E+01 0.108E+02   0.851E+01 -.488E+01 -.110E+02   -.718E+00 0.115E+00 0.122E+00   -.796E-03 0.901E-04 -.776E-03
   -.471E+01 0.545E+01 0.797E+01   0.487E+01 -.549E+01 -.799E+01   -.155E+00 0.471E-01 0.111E-01   -.486E-03 -.925E-04 -.933E-04
   -.457E+01 0.162E+01 0.772E+01   0.468E+01 -.167E+01 -.775E+01   -.101E+00 0.432E-01 0.286E-01   -.255E-03 0.675E-03 -.228E-04
   0.130E-02 0.211E+01 0.608E+01   -.163E-02 -.213E+01 -.607E+01   0.413E-03 0.293E-01 -.184E-01   -.961E-05 -.402E-03 -.286E-03
   -.225E-02 0.203E+01 0.607E+01   0.112E-02 -.207E+01 -.610E+01   0.135E-02 0.377E-01 0.215E-01   -.483E-05 0.150E-03 -.268E-03
   0.179E+01 0.422E+01 0.527E+01   -.184E+01 -.421E+01 -.525E+01   0.575E-01 0.290E-03 -.221E-01   0.772E-03 0.513E-04 -.349E-03
   0.361E+01 0.277E+01 0.583E+01   -.361E+01 -.276E+01 -.587E+01   0.991E-02 -.633E-02 0.347E-01   0.249E-03 -.537E-03 -.344E-03
   0.853E+01 0.978E+01 0.689E+01   -.879E+01 -.952E+01 -.686E+01   0.288E+00 -.263E+00 -.372E-01   -.318E-03 0.660E-03 -.271E-03
   0.160E+02 0.504E+01 0.552E+01   -.159E+02 -.474E+01 -.561E+01   -.123E+00 -.276E+00 0.847E-01   -.321E-03 -.313E-03 -.244E-03
   0.253E+02 0.684E+01 0.146E+02   -.301E+02 -.257E+01 -.150E+02   0.481E+01 -.426E+01 0.349E+00   0.572E-03 -.139E-02 -.105E-02
   0.166E+01 0.244E+02 0.289E+02   0.443E+01 -.193E+02 -.279E+02   -.609E+01 -.505E+01 -.922E+00   -.144E-02 -.108E-02 -.165E-02
   -.253E+02 0.674E+01 0.138E+02   0.301E+02 -.246E+01 -.142E+02   -.481E+01 -.427E+01 0.345E+00   -.559E-03 -.138E-02 -.126E-02
   -.183E+01 0.241E+02 0.267E+02   -.425E+01 -.191E+02 -.258E+02   0.608E+01 -.506E+01 -.972E+00   0.142E-02 -.101E-02 -.191E-02
   -.850E+01 0.971E+01 0.783E+01   0.876E+01 -.945E+01 -.779E+01   -.287E+00 -.264E+00 -.375E-01   0.332E-03 0.699E-03 -.214E-03
   -.159E+02 0.500E+01 0.698E+01   0.157E+02 -.470E+01 -.707E+01   0.131E+00 -.279E+00 0.934E-01   0.333E-03 -.317E-03 -.162E-03
   -.177E+01 0.420E+01 0.656E+01   0.182E+01 -.419E+01 -.654E+01   -.565E-01 0.721E-04 -.187E-01   -.760E-03 0.655E-04 -.757E-04
   -.358E+01 0.278E+01 0.755E+01   0.358E+01 -.277E+01 -.759E+01   -.639E-02 -.588E-02 0.447E-01   -.250E-03 -.558E-03 -.713E-06
   -.479E-02 -.104E+00 0.634E+01   0.384E-02 0.154E+00 -.635E+01   0.966E-03 -.177E-01 0.406E-02   0.216E-04 0.451E-04 -.435E-03
   -.193E-02 0.271E+00 0.665E+01   0.884E-03 -.292E+00 -.667E+01   0.128E-02 0.216E-01 0.130E-01   0.120E-04 -.972E-03 -.483E-03
   0.715E+01 0.123E+01 0.415E+01   -.716E+01 -.115E+01 -.411E+01   -.212E-01 -.556E-01 -.359E-01   0.146E-02 -.545E-04 0.431E-04
   0.745E+01 -.217E+01 0.393E+01   -.736E+01 0.218E+01 -.387E+01   -.769E-01 -.145E-01 -.483E-01   0.827E-03 0.212E-03 0.174E-03
   0.255E+02 0.817E+01 0.148E+02   -.250E+02 -.835E+01 -.154E+02   -.450E+00 0.202E+00 0.628E+00   0.125E-04 -.627E-03 -.852E-03
   0.273E+02 -.127E+02 0.142E+02   -.265E+02 0.132E+02 -.149E+02   -.783E+00 -.519E+00 0.685E+00   -.703E-03 0.149E-02 -.574E-03
   -.252E+02 0.807E+01 0.142E+02   0.247E+02 -.824E+01 -.148E+02   0.467E+00 0.193E+00 0.594E+00   -.393E-04 -.581E-03 -.110E-02
   -.271E+02 -.126E+02 0.137E+02   0.262E+02 0.131E+02 -.143E+02   0.800E+00 -.511E+00 0.649E+00   0.701E-03 0.146E-02 -.827E-03
   -.705E+01 0.122E+01 0.663E+01   0.705E+01 -.114E+01 -.660E+01   0.257E-01 -.559E-01 -.242E-01   -.145E-02 -.348E-04 0.454E-03
   -.734E+01 -.217E+01 0.640E+01   0.725E+01 0.218E+01 -.636E+01   0.803E-01 -.137E-01 -.374E-01   -.811E-03 0.165E-03 0.575E-03
   -.245E+01 -.325E+01 0.787E+01   0.245E+01 0.321E+01 -.791E+01   0.253E-01 -.115E-02 0.455E-01   -.151E-02 0.895E-03 -.219E-04
   -.685E+00 -.265E+01 0.676E+01   0.627E+00 0.262E+01 -.673E+01   0.415E-01 0.256E-01 -.235E-01   -.130E-02 -.791E-03 -.123E-03
   0.247E+01 -.324E+01 0.610E+01   -.248E+01 0.321E+01 -.613E+01   -.229E-01 -.153E-02 0.350E-01   0.153E-02 0.896E-03 -.331E-03
   0.709E+00 -.267E+01 0.542E+01   -.650E+00 0.264E+01 -.540E+01   -.402E-01 0.257E-01 -.269E-01   0.131E-02 -.786E-03 -.360E-03
   0.114E+02 -.821E+01 0.421E+01   -.112E+02 0.813E+01 -.429E+01   -.212E+00 0.815E-01 0.850E-01   0.920E-03 0.672E-03 0.286E-03
   0.505E+01 -.923E+01 0.658E+01   -.482E+01 0.923E+01 -.655E+01   -.220E+00 0.382E-02 -.244E-01   0.366E-03 -.499E-03 0.264E-03
   -.433E+01 -.379E+02 0.294E+02   0.104E+02 0.346E+02 -.286E+02   -.604E+01 0.338E+01 -.838E+00   -.170E-02 0.236E-02 -.150E-02
   0.142E+01 -.196E+02 0.135E+02   -.111E+01 0.186E+02 -.137E+02   -.321E+00 0.945E+00 0.216E+00   0.310E-03 0.365E-03 -.803E-03
   0.416E+01 -.377E+02 0.273E+02   -.102E+02 0.343E+02 -.264E+02   0.603E+01 0.339E+01 -.881E+00   0.168E-02 0.231E-02 -.176E-02
   -.148E+01 -.195E+02 0.126E+02   0.117E+01 0.185E+02 -.128E+02   0.316E+00 0.958E+00 0.213E+00   -.296E-03 0.294E-03 -.993E-03
   -.113E+02 -.817E+01 0.564E+01   0.110E+02 0.809E+01 -.573E+01   0.221E+00 0.841E-01 0.927E-01   -.959E-03 0.668E-03 0.374E-03
   -.501E+01 -.916E+01 0.751E+01   0.478E+01 0.916E+01 -.747E+01   0.221E+00 0.529E-02 -.267E-01   -.387E-03 -.544E-03 0.336E-03
   -.130E+01 -.217E+01 0.812E+01   0.118E+01 0.210E+01 -.815E+01   0.111E+00 0.554E-01 0.308E-01   -.843E-03 -.482E-03 0.145E-03
   -.189E+01 -.217E+01 0.814E+01   0.174E+01 0.204E+01 -.815E+01   0.132E+00 0.110E+00 0.100E-01   -.451E-03 -.733E-04 0.112E-04
   -.895E-02 -.187E+01 0.616E+01   0.836E-02 0.171E+01 -.619E+01   0.420E-03 0.109E+00 0.186E-01   0.806E-05 0.906E-03 -.340E-03
   0.141E-02 0.339E+01 0.627E+01   -.186E-02 -.362E+01 -.626E+01   0.678E-03 0.195E+00 -.158E-01   -.914E-06 -.545E-03 -.773E-04
   0.133E+01 -.218E+01 0.669E+01   -.121E+01 0.211E+01 -.671E+01   -.110E+00 0.555E-01 0.226E-01   0.852E-03 -.469E-03 -.678E-04
   0.190E+01 -.219E+01 0.720E+01   -.175E+01 0.205E+01 -.721E+01   -.132E+00 0.110E+00 0.861E-02   0.430E-03 -.610E-04 -.136E-03
   -.244E+01 -.710E+01 0.104E+02   0.292E+01 0.681E+01 -.106E+02   -.470E+00 0.290E+00 0.108E+00   -.576E-05 -.212E-03 -.275E-03
   0.940E+00 -.448E+01 0.862E+01   -.819E+00 0.427E+01 -.866E+01   -.112E+00 0.221E+00 0.316E-01   0.149E-03 0.163E-03 -.476E-04
   -.653E-01 -.100E+02 0.602E+01   0.691E-01 0.940E+01 -.567E+01   -.397E-02 0.636E+00 -.364E+00   -.300E-04 0.274E-03 -.790E-03
   -.910E-02 -.582E+01 0.697E+01   0.887E-02 0.540E+01 -.700E+01   -.289E-03 0.437E+00 0.259E-01   0.176E-04 -.607E-03 -.101E-03
   0.251E+01 -.707E+01 0.102E+02   -.299E+01 0.678E+01 -.103E+02   0.470E+00 0.291E+00 0.103E+00   0.503E-05 -.282E-03 -.400E-03
   -.940E+00 -.444E+01 0.830E+01   0.819E+00 0.423E+01 -.833E+01   0.112E+00 0.221E+00 0.279E-01   -.179E-03 0.165E-03 -.164E-03
   -.647E+00 -.160E+02 -.654E+03   0.762E+00 0.165E+02 0.635E+03   -.118E+00 -.460E+00 0.184E+02   0.625E-03 0.562E-03 -.116E-01
 -----------------------------------------------------------------------------------------------
   0.743E-01 0.647E+00 -.188E+02   0.600E-14 -.512E-12 0.455E-12   -.784E-01 -.634E+00 0.188E+02   0.544E-03 0.404E-03 -.325E-01
 
 
 POSITION                                       TOTAL-FORCE (eV/Angst)
 -----------------------------------------------------------------------------------
     -7.42004     12.74545      7.46473         0.000596      0.005625      0.002889
      0.00549      1.42269      7.46584        -0.023937     -0.022154      0.002729
      2.48619      0.03278      7.46334        -0.004062     -0.001952      0.005376
      2.48560      1.45842      7.47703        -0.003661     -0.018795      0.008288
      4.94150      0.03263      7.46618         0.003982     -0.001056      0.003329
      4.94216      1.45825      7.47891         0.004057     -0.018607      0.005994
     -0.00030     12.74520      7.46601        -0.002569      0.007447      0.002988
      7.42222      1.42243      7.46481         0.022953     -0.020269      0.002379
      2.47804     12.72160      7.47393         0.000122      0.015801      0.002288
      9.90274      1.39396      7.46271        -0.005290     -0.010396     -0.001215
      4.94976     12.72175      7.47567         0.000169      0.015346      0.000445
     12.37306      1.39407      7.46554         0.004539     -0.010385     -0.003851
     13.61021      2.11377      7.46688        -0.004709      0.005941     -0.003290
     -1.23721      3.52897      7.47764        -0.015151     -0.002851     -0.002109
      1.23736      2.14678      7.47662         0.012872     -0.004554      0.000190
      1.24977      3.56330      7.49876         0.014109     -0.005070     -0.009784
      3.71390      2.17882      7.49677         0.000200     -0.004772      0.003316
      3.71399      3.58830      7.53750        -0.000555     -0.014544     -0.013407
      6.19039      2.14657      7.47713        -0.013816     -0.001641     -0.002488
      6.17802      3.56321      7.49790        -0.014378     -0.003268     -0.012455
      8.66553      2.11361      7.46265         0.005900      0.006588     -0.000422
      8.66485      3.52878      7.47107         0.015372     -0.002162      0.002302
     11.13786      2.10411      7.46395         0.000129      0.008131     -0.004016
     11.13783      3.52539      7.46619         0.000268     -0.006716     -0.004224
     12.37105      4.23709      7.47455         0.003788      0.011007     -0.004249
     -2.48365      5.65711      7.48087         0.010235      0.000406     -0.003120
     -0.00330      4.24469      7.50021         0.028004     -0.004409     -0.002496
     -0.02927      5.65915      7.52663         0.006162      0.019139     -0.002943
      2.49046      4.30824      7.54512        -0.011674      0.007714     -0.004840
      2.45852      5.71108      7.63698         0.019154     -0.021278      0.012563
      4.93754      4.30852      7.54676         0.011288      0.009521     -0.007744
      4.96947      5.71145      7.64094        -0.019157     -0.019132      0.007644
      7.43099      4.24456      7.49482        -0.028607     -0.003560     -0.001646
      7.45677      5.65911      7.51949        -0.005627      0.019080     -0.001816
      9.90458      4.23703      7.46887        -0.003174      0.011106      0.000273
      9.91112      5.65706      7.47371        -0.008305      0.000668      0.002919
     -3.71031      6.37033      7.47383         0.000105      0.031189     -0.006900
     -3.71031      7.79347      7.47311         0.000309      0.001383     -0.007370
     -1.25942      6.37154      7.50469        -0.035295      0.022513      0.003509
     -1.26153      7.78967      7.50554         0.009419     -0.002426      0.006081
      1.19026      6.35780      7.57667         0.004377      0.015187     -0.002368
      1.18668      7.78731      7.57898         0.025521      0.004386      0.003376
      6.23765      6.35780      7.57585        -0.004235      0.015818     -0.007303
      6.24126      7.78728      7.57815        -0.025665      0.003215     -0.001274
      8.68688      6.37153      7.49403         0.036473      0.022433      0.010537
      8.68897      7.78962      7.49488        -0.008399     -0.001761      0.013094
     -4.93551      8.50776      7.47303         0.024034     -0.035436      0.002161
     -4.93960      9.92892      7.46833        -0.018859     -0.003671     -0.001593
     -2.48509      8.50772      7.48032        -0.023806     -0.035208     -0.003832
     -2.48093      9.92883      7.47410         0.019977     -0.002867     -0.005582
     -0.03437      8.49955      7.53007         0.009458      0.010445      0.004464
     -0.01429      9.91841      7.50156         0.011841      0.013176      0.006381
      2.43921      8.43918      7.63860         0.020419      0.016275      0.021637
      2.47587      9.85283      7.54875         0.000752      0.034599     -0.003391
      4.98878      8.43872      7.64254        -0.021113      0.013881      0.016943
      4.95208      9.85251      7.55071        -0.002916      0.032903     -0.006686
      7.46189      8.49956      7.52297        -0.008928      0.009995      0.005504
      7.44195      9.91852      7.49622        -0.012218      0.012026      0.007299
     -6.17518     10.63895      7.47043        -0.006206     -0.014699      0.005428
     -6.17583     12.05838      7.46242        -0.018275     -0.027454      0.001175
     -3.71026     10.64241      7.46594        -0.000113     -0.043330     -0.008593
     -3.71022     12.06712      7.46404         0.000281     -0.035172     -0.000089
     -1.24528     10.63877      7.47698         0.006242     -0.014709      0.002075
     -1.24455     12.05816      7.46670         0.018862     -0.025846     -0.001373
      1.23608     10.59683      7.50040         0.013945      0.000058     -0.005183
      1.23524     12.02032      7.47579         0.012176      0.011662     -0.000804
      3.71400     10.57656      7.53728        -0.000209      0.003789     -0.012455
      3.71394     11.99792      7.49168        -0.000435      0.014540      0.000194
      6.19168     10.59686      7.49977        -0.015189     -0.000875     -0.007440
      6.19253     12.02047      7.47617        -0.011739      0.008947     -0.003033
      3.71133      7.08671      8.34264         0.000179     -0.000913     -0.004386
 -----------------------------------------------------------------------------------
    total drift:                               -0.003624      0.012595     -0.021802


--------------------------------------------------------------------------------------------------------



  FREE ENERGIE OF THE ION-ELECTRON SYSTEM (eV)
  ---------------------------------------------------
  free  energy   TOTEN  =      -653.75336407 eV

  energy  without entropy=     -653.72460214  energy(sigma->0) =     -653.73898310
 
 d Force = 0.1493902E-05[-0.961E-05, 0.126E-04]  d Energy = 0.3748227E-04-0.360E-04
 d Force =-0.4218872E-01[-0.422E-01,-0.422E-01]  d Ewald  = 0.9374444E+00-0.980E+00


--------------------------------------------------------------------------------------------------------


    POTLOK:  cpu time    0.5441: real time    0.5468


--------------------------------------------------------------------------------------------------------




--------------------------------------------------------------------------------------------------------


  
 reached required accuracy - stopping structural energy minimisation
     LOOP+:  cpu time   68.1443: real time   68.6844
    4ORBIT:  cpu time    0.0000: real time    0.0000

 total amount of memory used by VASP MPI-rank0   135440. kBytes
=======================================================================

   base      :      30000. kBytes
   nonlr-proj:      10451. kBytes
   fftplans  :      14072. kBytes
   grid      :      39398. kBytes
   one-center:        186. kBytes
   wavefun   :      41333. kBytes
 
  
  
 General timing and accounting informations for this job:
 ========================================================
  
                  Total CPU time used (sec):     2424.334
                            User time (sec):     2402.239
                          System time (sec):       22.095
                         Elapsed time (sec):     2449.902
  
                   Maximum memory used (kb):      596788.
                   Average memory used (kb):           0.
  
                          Minor page faults:      4312556
                          Major page faults:           31
                 Voluntary context switches:        22405
