 vasp.5.4.4.18Apr17-6-g9f103f2a35 (build Jan 14 2022 15:04:31) complex          
  
 executed on             LinuxIFC date 2023.04.05  11:31:13
 running on   48 total cores
 distrk:  each k-point on   48 cores,    1 groups
 distr:  one band on NCORES_PER_BAND=  12 cores,    4 groups


--------------------------------------------------------------------------------------------------------


 INCAR:
 POTCAR:    PAW_PBE C 08Apr2002                   
 POTCAR:    PAW_PBE N 08Apr2002                   
 POTCAR:    PAW_PBE Ge_d 03Jul2007                
 POTCAR:    PAW_PBE C 08Apr2002                   
   SHA256 =  253f7b50bb8d59471dbedb8285d89021f4a42ed1a2c5d38a03a736e69125dd95 C/
   COPYR  = (c) Copyright 08Apr2002 Georg Kresse                                
   COPYR  = This file is part of the software VASP. Any use, copying, and all ot
   COPYR  = If you do not have a valid VASP license, you may not use, copy or di
   VRHFIN =C: s2p2                                                              
   LEXCH  = PE                                                                  
   EATOM  =   147.1560 eV,   10.8157 Ry                                         
                                                                                
   TITEL  = PAW_PBE C 08Apr2002                                                 
   LULTRA =        F    use ultrasoft PP ?                                      
   IUNSCR =        1    unscreen: 0-lin 1-nonlin 2-no                           
   RPACOR =    1.200    partial core radius                                     
   POMASS =   12.011; ZVAL   =    4.000    mass and valenz                      
   RCORE  =    1.500    outmost cutoff radius                                   
   RWIGS  =    1.630; RWIGS  =    0.863    wigner-seitz radius (au A)           
   ENMAX  =  400.000; ENMIN  =  300.000 eV                                      
   ICORE  =        2    local potential                                         
   LCOR   =        T    correct aug charges                                     
   LPAW   =        T    paw PP                                                  
   EAUG   =  644.873                                                            
   DEXC   =    0.000                                                            
   RMAX   =    1.529    core radius for proj-oper                               
   RAUG   =    1.300    factor for augmentation sphere                          
   RDEP   =    1.501    radius for radial grids                                 
   RDEPT  =    1.300    core radius for aug-charge                              
                                                                                
   Atomic configuration                                                         
    4 entries                                                                   
     n  l   j            E        occ.                                          
     1  0  0.50      -273.3789   2.0000                                         
     2  0  0.50       -13.7508   2.0000                                         
     2  1  0.50        -5.2854   2.0000                                         
     3  2  1.50        -5.4423   0.0000                                         
   Description                                                                  
     l       E           TYP  RCUT    TYP  RCUT                                 
     0    -13.7508458     23  1.200                                             
     0     -8.2022199     23  1.200                                             
     1     -5.2854383     23  1.500                                             
     1     34.0145650     23  1.500                                             
     2     -5.4423304      7  1.500                                             
  local pseudopotential read in
  partial core-charges read in
  partial kinetic energy density read in
  atomic valenz-charges read in
  non local Contribution for L=           0  read in
    real space projection operators read in
  non local Contribution for L=           0  read in
    real space projection operators read in
  non local Contribution for L=           1  read in
    real space projection operators read in
  non local Contribution for L=           1  read in
    real space projection operators read in
    PAW grid and wavefunctions read in
 
   number of l-projection  operators is LMAX  =           4
   number of lm-projection operators is LMMAX =           8
 
 POTCAR:    PAW_PBE N 08Apr2002                   
   SHA256 =  e053789ff3a61a86a1b75d8a110fcc91f86041011e7b0817c7c99e4e8a6349d7 N/
   COPYR  = (c) Copyright 08Apr2002 Georg Kresse                                
   COPYR  = This file is part of the software VASP. Any use, copying, and all ot
   COPYR  = If you do not have a valid VASP license, you may not use, copy or di
   VRHFIN =N: s2p3                                                              
   LEXCH  = PE                                                                  
   EATOM  =   264.5486 eV,   19.4438 Ry                                         
                                                                                
   TITEL  = PAW_PBE N 08Apr2002                                                 
   LULTRA =        F    use ultrasoft PP ?                                      
   IUNSCR =        1    unscreen: 0-lin 1-nonlin 2-no                           
   RPACOR =    1.200    partial core radius                                     
   POMASS =   14.001; ZVAL   =    5.000    mass and valenz                      
   RCORE  =    1.500    outmost cutoff radius                                   
   RWIGS  =    1.400; RWIGS  =    0.741    wigner-seitz radius (au A)           
   ENMAX  =  400.000; ENMIN  =  300.000 eV                                      
   ICORE  =        2    local potential                                         
   LCOR   =        T    correct aug charges                                     
   LPAW   =        T    paw PP                                                  
   EAUG   =  627.112                                                            
   DEXC   =    0.000                                                            
   RMAX   =    1.529    core radius for proj-oper                               
   RAUG   =    1.300    factor for augmentation sphere                          
   RDEP   =    1.514    radius for radial grids                                 
   RDEPT  =    1.338    core radius for aug-charge                              
                                                                                
   Atomic configuration                                                         
    4 entries                                                                   
     n  l   j            E        occ.                                          
     1  0  0.50      -384.7179   2.0000                                         
     2  0  0.50       -18.5828   2.0000                                         
     2  1  0.50        -7.0898   3.0000                                         
     3  2  1.50        -6.8029   0.0000                                         
   Description                                                                  
     l       E           TYP  RCUT    TYP  RCUT                                 
     0    -18.5828119     23  1.200                                             
     0    -13.5018863     23  1.200                                             
     1     -7.0897853     23  1.500                                             
     1      9.5240782     23  1.500                                             
     2     -6.8029130      7  1.500                                             
  local pseudopotential read in
  partial core-charges read in
  partial kinetic energy density read in
  atomic valenz-charges read in
  non local Contribution for L=           0  read in
    real space projection operators read in
  non local Contribution for L=           0  read in
    real space projection operators read in
  non local Contribution for L=           1  read in
    real space projection operators read in
  non local Contribution for L=           1  read in
    real space projection operators read in
    PAW grid and wavefunctions read in
 
   number of l-projection  operators is LMAX  =           4
   number of lm-projection operators is LMMAX =           8
 
 POTCAR:    PAW_PBE Ge_d 03Jul2007                
   SHA256 =  944b26c40d2d7c4f4eb1ff3a2e8dbfdd7129146276cd341854bfd5c0e57780ed Ge
   COPYR  = (c) Copyright 03Jul2007 Georg Kresse                                
   COPYR  = This file is part of the software VASP. Any use, copying, and all ot
   COPYR  = If you do not have a valid VASP license, you may not use, copy or di
   VRHFIN =Ge: 3d4s4p                                                           
   LEXCH  = PE                                                                  
   EATOM  =  2596.2402 eV,  190.8183 Ry                                         
                                                                                
   TITEL  = PAW_PBE Ge_d 03Jul2007                                              
   LULTRA =        F    use ultrasoft PP ?                                      
   IUNSCR =        1    unscreen: 0-lin 1-nonlin 2-no                           
   RPACOR =    2.000    partial core radius                                     
   POMASS =   72.610; ZVAL   =   14.000    mass and valenz                      
   RCORE  =    2.300    outmost cutoff radius                                   
   RWIGS  =    2.300; RWIGS  =    1.217    wigner-seitz radius (au A)           
   ENMAX  =  310.294; ENMIN  =  232.720 eV                                      
   ICORE  =        3    local potential                                         
   LCOR   =        T    correct aug charges                                     
   LPAW   =        T    paw PP                                                  
   EAUG   =  531.356                                                            
   DEXC   =    0.000                                                            
   RMAX   =    2.342    core radius for proj-oper                               
   RAUG   =    1.300    factor for augmentation sphere                          
   RDEP   =    2.318    radius for radial grids                                 
   RDEPT  =    1.783    core radius for aug-charge                              
                                                                                
   Atomic configuration                                                         
    9 entries                                                                   
     n  l   j            E        occ.                                          
     1  0  0.50    -10959.8463   2.0000                                         
     2  0  0.50     -1371.6056   2.0000                                         
     2  1  1.50     -1198.4791   6.0000                                         
     3  0  0.50      -168.4733   2.0000                                         
     3  1  1.50      -115.6019   6.0000                                         
     3  2  2.50       -29.3106  10.0000                                         
     4  0  0.50       -11.7309   2.0000                                         
     4  1  0.50        -3.8952   2.0000                                         
     4  3  2.50        -4.0817   0.0000                                         
   Description                                                                  
     l       E           TYP  RCUT    TYP  RCUT                                 
     2    -29.3105938     23  2.200                                             
     2    -13.6058260     23  2.200                                             
     0    -11.7309493     23  2.300                                             
     0     -7.4578696     23  2.300                                             
     1     -3.8952261     23  2.300                                             
     1      6.1178114     23  2.300                                             
     3     -1.3605826     23  2.300                                             
  local pseudopotential read in
  partial core-charges read in
  partial kinetic energy density read in
  atomic valenz-charges read in
  non local Contribution for L=           2  read in
    real space projection operators read in
  non local Contribution for L=           2  read in
    real space projection operators read in
  non local Contribution for L=           0  read in
    real space projection operators read in
  non local Contribution for L=           0  read in
    real space projection operators read in
  non local Contribution for L=           1  read in
    real space projection operators read in
  non local Contribution for L=           1  read in
    real space projection operators read in
    PAW grid and wavefunctions read in
 
   number of l-projection  operators is LMAX  =           6
   number of lm-projection operators is LMMAX =          18
 

 ----------------------------------------------------------------------------- 
|                                                                             |
|  ADVICE TO THIS USER RUNNING 'VASP/VAMP'   (HEAR YOUR MASTER'S VOICE ...):  |
|                                                                             |
|      You have a (more or less) 'large supercell' and for larger cells       |
|      it might be more efficient to use real space projection opertators     |
|      So try LREAL= Auto  in the INCAR   file.                               |
|      Mind:          For very  accurate calculation you might also keep the  |
|      reciprocal projection scheme          (i.e. LREAL=.FALSE.)             |
|                                                                             |
 ----------------------------------------------------------------------------- 

  PAW_PBE C 08Apr2002                   :
 energy of atom  1       EATOM= -147.1560
 kinetic energy error for atom=    0.0132 (will be added to EATOM!!)
  PAW_PBE N 08Apr2002                   :
 energy of atom  2       EATOM= -264.5486
 kinetic energy error for atom=    0.0298 (will be added to EATOM!!)
  PAW_PBE Ge_d 03Jul2007                :
 energy of atom  3       EATOM=-2596.2402
 kinetic energy error for atom=    0.0090 (will be added to EATOM!!)
 
 
 POSCAR: POSCAR-c3n4                             
  positions in cartesian coordinates
  No initial velocities read in
 exchange correlation table for  LEXCH =        8
   RHO(1)=    0.500       N(1)  =     2000
   RHO(2)=  100.500       N(2)  =     4000

 VTST: version 3.2, (02/03/18)

 CHAIN: initializing optimizer
 
 OPT: Using VASP Dynamics algorithm
 CHAIN: Read ICHAIN            0
 
 POSCAR: POSCAR-c3n4                             
  positions in cartesian coordinates
  No initial velocities read in
 


--------------------------------------------------------------------------------------------------------


 ion  position               nearest neighbor table
   1  0.106  0.214  0.426-  26 1.23  46 1.23  25 1.30
   2  0.288  0.399  0.433-  29 1.21  35 1.27  25 1.32
   3  0.104  0.392  0.427-  44 1.21  39 1.27  25 1.31
   4  0.447  0.064  0.506-  30 1.22  27 1.23  48 1.30
   5  0.453  0.401  0.413-  28 1.22  29 1.23  56 1.31
   6  0.112  0.053  0.449-  26 1.22  31 1.23  32 1.29   9 2.07
   7  0.096  0.712  0.484-  54 1.22  34 1.25  33 1.29  12 2.06
   8  0.284  0.890  0.501-  27 1.23  37 1.24  33 1.30
   9  0.109  0.895  0.498-  31 1.22  52 1.24  33 1.32   6 2.07
  10  0.448  0.548  0.502-  38 1.22  56 1.25  35 1.25  19 2.07
  11  0.445  0.885  0.489-  37 1.23  36 1.23  48 1.27
  12  0.087  0.542  0.481-  34 1.22  40 1.24  39 1.25   7 2.06
  13  0.616  0.223  0.473-  42 1.24  30 1.24  41 1.29
  14  0.780  0.390  0.400-  45 1.24  51 1.25  41 1.29  17 2.07  22 2.07
  15  0.610  0.394  0.435-  28 1.23  55 1.23  41 1.34
  16  0.940  0.052  0.461-  46 1.21  43 1.23  32 1.29  20 2.07
  17  0.941  0.387  0.394-  45 1.21  44 1.23  40 1.31  14 2.07
  18  0.623  0.066  0.512-  42 1.22  47 1.23  48 1.30
  19  0.613  0.711  0.531-  50 1.22  38 1.26  49 1.30  10 2.07
  20  0.790  0.897  0.523-  43 1.22  53 1.23  49 1.33  16 2.07
  21  0.609  0.892  0.521-  47 1.23  36 1.24  49 1.32
  22  0.938  0.563  0.421-  51 1.20  54 1.24  40 1.31  14 2.07
  23  0.954  0.902  0.535-  52 1.23  53 1.23  32 1.29
  24  0.621  0.555  0.490-  55 1.21  50 1.22  56 1.30
  25  0.167  0.335  0.425-   1 1.30   3 1.31   2 1.32
  26  0.165  0.161  0.421-   6 1.22   1 1.23
  27  0.336  0.002  0.522-   8 1.23   4 1.23
  28  0.512  0.352  0.392-   5 1.22  15 1.23
  29  0.345  0.361  0.390-   2 1.21   5 1.23
  30  0.506  0.177  0.493-   4 1.22  13 1.24
  31  0.159  0.988  0.447-   9 1.22   6 1.23
  32  0.002  0.002  0.483-  16 1.29  23 1.29   6 1.29
  33  0.165  0.831  0.500-   7 1.29   8 1.30   9 1.32
  34  0.134  0.645  0.518-  12 1.22   7 1.25
  35  0.334  0.491  0.492-  10 1.25   2 1.27  57 1.90
  36  0.503  0.831  0.490-  11 1.23  21 1.24
  37  0.333  0.829  0.479-  11 1.23   8 1.24
  38  0.499  0.648  0.545-  10 1.22  19 1.26
  39  0.142  0.484  0.485-  12 1.25   3 1.27  57 1.91
  40  0.988  0.496  0.436-  12 1.24  22 1.31  17 1.31
  41  0.667  0.330  0.429-  13 1.29  14 1.29  15 1.34
  42  0.680  0.178  0.495-  18 1.22  13 1.24
  43  0.827  0.986  0.468-  20 1.22  16 1.23
  44  0.011  0.348  0.379-   3 1.21  17 1.23
  45  0.830  0.330  0.380-  17 1.21  14 1.24
  46  0.993  0.161  0.435-  16 1.21   1 1.23
  47  0.669  0.005  0.539-  21 1.23  18 1.23
  48  0.505  0.004  0.498-  11 1.27  18 1.30   4 1.30
  49  0.668  0.832  0.534-  19 1.30  21 1.32  20 1.33
  50  0.675  0.666  0.512-  19 1.22  24 1.22
  51  0.832  0.507  0.396-  22 1.20  14 1.25
  52  0.016  0.853  0.549-  23 1.23   9 1.24
  53  0.849  0.860  0.566-  20 1.23  23 1.23
  54  0.004  0.677  0.435-   7 1.22  22 1.24
  55  0.668  0.491  0.484-  24 1.21  15 1.23
  56  0.506  0.502  0.467-  10 1.25  24 1.30   5 1.31
  57  0.287  0.593  0.558-  35 1.90  39 1.91
 

IMPORTANT INFORMATION: All symmetrisations will be switched off!
NOSYMM: (Re-)initialisation of all symmetry stuff for point group C_1.

 
 
 KPOINTS: K-Points                                

Automatic generation of k-mesh.
Space group operators:
 irot       det(A)        alpha          n_x          n_y          n_z        tau_x        tau_y        tau_z
    1     1.000000     0.000000     1.000000     0.000000     0.000000     0.000000     0.000000     0.000000
 
 Subroutine IBZKPT returns following result:
 ===========================================
 
 Found      5 irreducible k-points:
 
 Following reciprocal coordinates:
            Coordinates               Weight
  0.000000  0.000000  0.000000      1.000000
  0.333333 -0.000000  0.000000      2.000000
 -0.000000  0.333333  0.000000      2.000000
  0.333333  0.333333  0.000000      2.000000
 -0.333333  0.333333  0.000000      2.000000
 
 Following cartesian coordinates:
            Coordinates               Weight
  0.000000  0.000000  0.000000      1.000000
  0.024277  0.014368  0.000000      2.000000
  0.000396  0.028736  0.000000      2.000000
  0.024673  0.043104  0.000000      2.000000
 -0.023881  0.014368  0.000000      2.000000
 
 TETIRR: Found     24 inequivalent tetrahedra from       54


--------------------------------------------------------------------------------------------------------




 Dimension of arrays:
   k-points           NKPTS =      5   k-points in BZ     NKDIM =      5   number of bands    NBANDS=    168
   number of dos      NEDOS =   4000   number of ions     NIONS =     57
   non local maximal  LDIM  =      6   non local SUM 2l+1 LMDIM =     18
   total plane-waves  NPLWV = 322560
   max r-space proj   IRMAX =      1   max aug-charges    IRDMAX=   5982
   dimension x,y,z NGX =    70 NGY =   64 NGZ =   72
   dimension x,y,z NGXF=   140 NGYF=  128 NGZF=  144
   support grid    NGXF=   140 NGYF=  128 NGZF=  144
   ions per type =              24  32   1
   NGX,Y,Z   is equivalent  to a cutoff of   9.14,  8.51,  8.67 a.u.
   NGXF,Y,Z  is equivalent  to a cutoff of  18.27, 17.02, 17.35 a.u.

 SYSTEM =  unknown system                          
 POSCAR =  POSCAR-c3n4                             

 Startparameter for this run:
   NWRITE =      2    write-flag & timer
   PREC   = normal    normal or accurate (medium, high low for compatibility)
   ISTART =      0    job   : 0-new  1-cont  2-samecut
   ICHARG =      2    charge: 1-file 2-atom 10-const
   ISPIN  =      2    spin polarized calculation?
   LNONCOLLINEAR =      F non collinear calculations
   LSORBIT =      F    spin-orbit coupling
   INIWAV =      1    electr: 0-lowe 1-rand  2-diag
   LASPH  =      F    aspherical Exc in radial PAW
   METAGGA=      F    non-selfconsistent MetaGGA calc.

 Electronic Relaxation 1
   ENCUT  =  440.0 eV  32.34 Ry    5.69 a.u.  21.78 21.38 23.60*2*pi/ulx,y,z
   ENINI  =  440.0     initial cutoff
   ENAUG  =  644.9 eV  augmentation charge cutoff
   NELM   =    100;   NELMIN=  2; NELMDL= -5     # of ELM steps 
   EDIFF  = 0.1E-03   stopping-criterion for ELM
   LREAL  =      F    real-space projection
   NLSPLINE    = F    spline interpolate recip. space projectors
   LCOMPAT=      F    compatible to vasp.4.4
   GGA_COMPAT  = T    GGA compatible to vasp.4.4-vasp.4.6
   LMAXPAW     = -100 max onsite density
   LMAXMIX     =    2 max onsite mixed and CHGCAR
   VOSKOWN=      0    Vosko Wilk Nusair interpolation
   ROPT   =    0.00000   0.00000   0.00000
 Ionic relaxation
   EDIFFG = -.1E-01   stopping-criterion for IOM
   NSW    =      0    number of steps for IOM
   NBLOCK =      1;   KBLOCK =      1    inner block; outer block 
   IBRION =     -1    ionic relax: 0-MD 1-quasi-New 2-CG
   NFREE  =      0    steps in history (QN), initial steepest desc. (CG)
   ISIF   =      2    stress and relaxation
   IWAVPR =     10    prediction:  0-non 1-charg 2-wave 3-comb
   ISYM   =      0    0-nonsym 1-usesym 2-fastsym
   LCORR  =      T    Harris-Foulkes like correction to forces

   POTIM  = 0.5000    time-step for ionic-motion
   TEIN   =    0.0    initial temperature
   TEBEG  =    0.0;   TEEND  =   0.0 temperature during run
   SMASS  =  -3.00    Nose mass-parameter (am)
   estimated Nose-frequenzy (Omega)   =  0.10E-29 period in steps =****** mass=  -0.371E-26a.u.
   SCALEE = 1.0000    scale energy and forces
   NPACO  =    256;   APACO  = 16.0  distance and # of slots for P.C.
   PSTRESS=    0.0 pullay stress

  Mass of Ions in am
   POMASS =  12.01 14.00 72.61
  Ionic Valenz
   ZVAL   =   4.00  5.00 14.00
  Atomic Wigner-Seitz radii
   RWIGS  =  -1.00 -1.00 -1.00
  virtual crystal weights 
   VCA    =   1.00  1.00  1.00
   NELECT =     270.0000    total number of electrons
   NUPDOWN=      -1.0000    fix difference up-down

 DOS related values:
   EMIN   = -14.00;   EMAX   =  6.00  energy-range for DOS
   EFERMI =   0.00
   ISMEAR =    -5;   SIGMA  =   0.20  broadening in eV -4-tet -1-fermi 0-gaus

 Electronic relaxation 2 (details)
   IALGO  =     38    algorithm
   LDIAG  =      T    sub-space diagonalisation (order eigenvalues)
   LSUBROT=      F    optimize rotation matrix (better conditioning)
   TURBO    =      0    0=normal 1=particle mesh
   IRESTART =      0    0=no restart 2=restart with 2 vectors
   NREBOOT  =      0    no. of reboots
   NMIN     =      0    reboot dimension
   EREF     =   0.00    reference energy to select bands
   IMIX   =      4    mixing-type and parameters
     AMIX     =   0.25;   BMIX     =  0.00
     AMIX_MAG =   1.00;   BMIX_MAG =  0.00
     AMIN     =   0.10
     WC   =   100.;   INIMIX=   1;  MIXPRE=   1;  MAXMIX= -45

 Intra band minimization:
   WEIMIN = 0.0000     energy-eigenvalue tresh-hold
   EBREAK =  0.15E-06  absolut break condition
   DEPER  =   0.30     relativ break condition  

   TIME   =   0.40     timestep for ELM

  volume/ion in A,a.u.               =      32.91       222.06
  Fermi-wavevector in a.u.,A,eV,Ry     =   0.857985  1.621356 10.015763  0.736138
  Thomas-Fermi vector in A             =   1.975121
 
 Write flags
   LWAVE        =      F    write WAVECAR
   LDOWNSAMPLE  =      F    k-point downsampling of WAVECAR
   LCHARG       =      F    write CHGCAR
   LVTOT        =      F    write LOCPOT, total local potential
   LVHAR        =      F    write LOCPOT, Hartree potential only
   LELF         =      F    write electronic localiz. function (ELF)
   LORBIT       =     11    0 simple, 1 ext, 2 COOP (PROOUT), +10 PAW based schemes


 Dipole corrections
   LMONO  =      F    monopole corrections only (constant potential shift)
   LDIPOL =      F    correct potential (dipole corrections)
   IDIPOL =      0    1-x, 2-y, 3-z, 4-all directions 
   EPSILON=  1.0000000 bulk dielectric constant

 Exchange correlation treatment:
   GGA     =    --    GGA type
   LEXCH   =     8    internal setting for exchange type
   VOSKOWN=      0    Vosko Wilk Nusair interpolation
   LHFCALC =     F    Hartree Fock is set to
   LHFONE  =     F    Hartree Fock one center treatment
   AEXX    =    0.0000 exact exchange contribution

 Linear response parameters
   LEPSILON=     F    determine dielectric tensor
   LRPA    =     F    only Hartree local field effects (RPA)
   LNABLA  =     F    use nabla operator in PAW spheres
   LVEL    =     F    velocity operator in full k-point grid
   LINTERFAST=   F  fast interpolation
   KINTER  =     0    interpolate to denser k-point grid
   CSHIFT  =0.1000    complex shift for real part using Kramers Kronig
   OMEGAMAX=  -1.0    maximum frequency
   DEG_THRESHOLD= 0.2000000E-02 threshold for treating states as degnerate
   RTIME   =   -0.100 relaxation time in fs
  (WPLASMAI=    0.000 imaginary part of plasma frequency in eV, 0.658/RTIME)
   DFIELD  = 0.0000000 0.0000000 0.0000000 field for delta impulse in time
 
 Orbital magnetization related:
   ORBITALMAG=     F  switch on orbital magnetization
   LCHIMAG   =     F  perturbation theory with respect to B field
   DQ        =  0.001000  dq finite difference perturbation B field
   LLRAUG    =     F  two centre corrections for induced B field



--------------------------------------------------------------------------------------------------------


 Static calculation
 charge density and potential will be updated during run
 spin polarized calculation
 Variant of blocked Davidson
 Davidson routine will perform the subspace rotation
 perform sub-space diagonalisation
    after iterative eigenvector-optimisation
 modified Broyden-mixing scheme, WC =      100.0
 initial mixing is a Kerker type mixing with AMIX =  0.2500 and BMIX =      0.0001
 Hartree-type preconditioning will be used
 using additional bands           33
 reciprocal scheme for non local part
 use partial core corrections
 calculate Harris-corrections to forces 
   (improved forces if not selfconsistent)
 use gradient corrections 
 use of overlap-Matrix (Vanderbilt PP)
 Fermi weights with tetrahedron method with Bloechl corrections


--------------------------------------------------------------------------------------------------------


  energy-cutoff  :      440.00
  volume of cell :     1875.64
      direct lattice vectors                 reciprocal lattice vectors
    12.735950296 -0.175481236  0.000000000     0.079163445  0.046852298  0.000000000
    -6.367975148 10.759575714  0.000000000     0.001291101  0.093704596  0.000000000
     0.000000000  0.000000000 13.800000000     0.000000000  0.000000000  0.072463768

  length of vectors
    12.737159165 12.502782772 13.800000000     0.091989069  0.093713491  0.072463768


 
 k-points in units of 2pi/SCALE and weight: K-Points                                
   0.00000000  0.00000000  0.00000000       0.111
   0.02427679  0.01436804  0.00000000       0.222
   0.00039594  0.02873608  0.00000000       0.222
   0.02467273  0.04310411  0.00000000       0.222
  -0.02388085  0.01436804  0.00000000       0.222
 
 k-points in reciprocal lattice and weights: K-Points                                
   0.00000000  0.00000000  0.00000000       0.111
   0.33333333 -0.00000000  0.00000000       0.222
  -0.00000000  0.33333333  0.00000000       0.222
   0.33333333  0.33333333  0.00000000       0.222
  -0.33333333  0.33333333  0.00000000       0.222
 
 position of ions in fractional coordinates (direct lattice) 
   0.10567936  0.21351909  0.42646415
   0.28750403  0.39866334  0.43315811
   0.10379301  0.39177313  0.42728737
   0.44732828  0.06383887  0.50569377
   0.45258916  0.40124889  0.41252546
   0.11203481  0.05273921  0.44868132
   0.09638015  0.71191070  0.48390127
   0.28433946  0.89006364  0.50120122
   0.10941441  0.89537413  0.49812536
   0.44792521  0.54827090  0.50190381
   0.44544784  0.88520183  0.48897001
   0.08690842  0.54210436  0.48067119
   0.61614813  0.22292684  0.47270451
   0.78023735  0.38968276  0.39988272
   0.61037743  0.39432339  0.43546161
   0.93951642  0.05229783  0.46070020
   0.94071854  0.38652888  0.39388003
   0.62278394  0.06558106  0.51203168
   0.61322902  0.71118454  0.53124878
   0.78984871  0.89727295  0.52288011
   0.60944297  0.89248269  0.52132702
   0.93832005  0.56283419  0.42050954
   0.95436023  0.90171878  0.53466451
   0.62130548  0.55465507  0.48986027
   0.16668926  0.33545237  0.42502835
   0.16473950  0.16097029  0.42095206
   0.33626584  0.00180669  0.52215766
   0.51175722  0.35246859  0.39238613
   0.34471728  0.36074551  0.38975287
   0.50565751  0.17673507  0.49315170
   0.15873210  0.98821904  0.44665654
   0.00214731  0.00186372  0.48284181
   0.16462634  0.83083069  0.50025956
   0.13400723  0.64526801  0.51778798
   0.33371346  0.49116238  0.49155062
   0.50288345  0.83078126  0.48972341
   0.33307237  0.82932770  0.47937372
   0.49902190  0.64803204  0.54483375
   0.14173676  0.48364631  0.48511610
   0.98839512  0.49595573  0.43598798
   0.66736443  0.33015381  0.42931770
   0.67970142  0.17802103  0.49523771
   0.82720183  0.98622484  0.46784919
   0.01097216  0.34809993  0.37880244
   0.83047981  0.33016544  0.37952861
   0.99296173  0.16101876  0.43513088
   0.66886761  0.00524437  0.53948092
   0.50484899  0.00388347  0.49830916
   0.66830364  0.83227641  0.53419919
   0.67536455  0.66551462  0.51246466
   0.83211404  0.50666912  0.39574663
   0.01584380  0.85299492  0.54867721
   0.84924332  0.85956436  0.56604968
   0.00424175  0.67726383  0.43455477
   0.66753141  0.49127771  0.48382075
   0.50565566  0.50179634  0.46716125
   0.28676550  0.59288202  0.55779478
 
 position of ions in cartesian coordinates  (Angst):
  -0.01375713  2.27883002  5.88520529
   1.12295876  4.23899681  5.97758196
  -1.17289900  4.19709894  5.89656572
   5.29062642  0.60838140  6.97857397
   3.20901001  4.23784694  5.69285135
   1.09102780  0.54779155  6.19180224
  -3.30593687  7.64294419  6.67783755
  -2.04656994  9.52681087  6.91657687
  -4.30822379  9.61464558  6.87412994
   2.21337779  5.82055980  6.92627255
   0.03625833  9.44622839  6.74778607
  -2.34524585  5.81756216  6.63326238
   6.42763938  2.29047579  6.52332220
   7.45557393  4.05590418  5.51838152
   5.26269500  4.13564262  6.00937026
  11.63260320  0.39783493  6.35766279
   9.51953830  3.99380833  5.43554444
   7.51412674  0.59633743  7.06603714
   3.28124889  7.54443375  7.33123313
   4.34566204  9.51567265  7.21574545
   2.07852776  9.49578923  7.19431291
   8.36628337  5.89119956  5.80303166
   6.41256161  9.53463920  7.37837029
   4.38088604  5.85882580  6.76007168
  -0.01320622  3.58007436  5.86539120
   1.07305933  1.70306329  5.80913841
   4.27116002 -0.03956915  7.20577566
   4.27320335  3.70260866  5.41492866
   2.09308367  3.82097723  5.37858965
   5.31458433  1.81286101  6.80549343
  -4.27135022 10.60496309  6.16386029
   0.01547993  0.01967602  6.66321702
  -3.19403622  8.91049685  6.90358197
  -2.40234123  6.91929423  7.14547408
   1.12244827  5.22613833  6.78339855
   1.11430424  8.85060721  6.75818313
  -1.03914505  8.86476622  6.61535737
   2.22886620  6.88498083  7.51870578
  -1.27469536  5.17895690  6.69460221
   9.42991738  5.16282846  6.01663408
   6.39710896  3.43520501  5.92458428
   7.52301005  1.79615589  6.83428039
   4.25494617 10.46620242  6.45631879
  -2.07695082  3.74348209  5.22747367
   8.47446424  3.40670642  5.23749483
  11.62094773  1.55824738  6.00480608
   8.48526870 -0.06094656  7.44483664
   6.40500183 -0.04680704  6.87666640
   3.21156651  8.83766628  7.37194888
   4.36342874  7.04214115  7.07201229
   7.37130664  5.30552438  5.46130349
  -5.23006465  9.17508316  7.57174553
   5.34223622  9.09952159  7.81148557
  -4.25877657  7.28632714  5.99685583
   5.37320255  5.16880049  6.67672631
   3.24457870  5.31038268  6.44682521
  -0.12322684  6.32883707  7.69756801
 


--------------------------------------------------------------------------------------------------------


 k-point  1 :   0.0000 0.0000 0.0000  plane waves:   39327
 k-point  2 :   0.3333-0.0000 0.0000  plane waves:   39311
 k-point  3 :  -0.0000 0.3333 0.0000  plane waves:   39306
 k-point  4 :   0.3333 0.3333 0.0000  plane waves:   39345
 k-point  5 :  -0.3333 0.3333 0.0000  plane waves:   39327

 maximum and minimum number of plane-waves per node :      3303     3255

 maximum number of plane-waves:     39345
 maximum index in each direction: 
   IXMAX=   22   IYMAX=   21   IZMAX=   23
   IXMIN=  -22   IYMIN=  -21   IZMIN=  -23


 parallel 3D FFT for wavefunctions:
    minimum data exchange during FFTs selected (reduces bandwidth)
 parallel 3D FFT for charge:
    minimum data exchange during FFTs selected (reduces bandwidth)


 total amount of memory used by VASP MPI-rank0    72433. kBytes
=======================================================================

   base      :      30000. kBytes
   nonl-proj :      10051. kBytes
   fftplans  :       2745. kBytes
   grid      :       7145. kBytes
   one-center:        155. kBytes
   wavefun   :      22337. kBytes
 
     INWAV:  cpu time    0.0000: real time    0.0001
 Broyden mixing: mesh for mixing (old mesh)
   NGX = 43   NGY = 43   NGZ = 47
  (NGX  =140   NGY  =128   NGZ  =144)
  gives a total of  86903 points

 initial charge density was supplied:
 charge density of overlapping atoms calculated
 number of electron     270.0000000 magnetization       1.0000000
 keeping initial charge density in first step


--------------------------------------------------------------------------------------------------------


 Maximum index for augmentation-charges          205 (set IRDMAX)


--------------------------------------------------------------------------------------------------------


 First call to EWALD:  gamma=   0.144
 Maximum number of real-space cells 3x 3x 3
 Maximum number of reciprocal cells 3x 3x 3

    FEWALD:  cpu time    0.0039: real time    0.0043


--------------------------------------- Iteration      1(   1)  ---------------------------------------


    POTLOK:  cpu time    0.1220: real time    0.1532
    SETDIJ:  cpu time    0.0097: real time    0.0104
     EDDAV:  cpu time    5.6402: real time    5.7237
 BZINTS: Fermi energy: 10.675228;270.000000 electrons
         Band energy:***********;  BLOECHL correction: -0.029443
       DOS:  cpu time    0.2191: real time    0.2192
    --------------------------------------------
      LOOP:  cpu time    5.9910: real time    6.1066

 eigenvalue-minimisations  :  3912
 total energy-change (2. order) : 0.2782341E+04  (-0.1088536E+05)
 number of electron     270.0000000 magnetization       1.0000000
 augmentation part      270.0000000 magnetization       1.0000000

 Free energy of the ion-electron system (eV)
  ---------------------------------------------------
  alpha Z        PSCENC =       185.27776676
  Ewald energy   TEWEN  =     29764.49410190
  -Hartree energ DENC   =    -40820.57510350
  -exchange      EXHF   =         0.00000000
  -V(xc)+E(xc)   XCENC  =      1062.69938607
  PAW double counting   =     10998.91041168   -11485.61342155
  entropy T*S    EENTRO =         0.00000000
  eigenvalues    EBANDS =     -1515.11206358
  atomic energy  EATOM  =     14592.26033195
  Solvation  Ediel_sol  =         0.00000000
  ---------------------------------------------------
  free energy    TOTEN  =      2782.34140974 eV

  energy without entropy =     2782.34140974  energy(sigma->0) =     2782.34140974


--------------------------------------------------------------------------------------------------------




--------------------------------------- Iteration      1(   2)  ---------------------------------------


     EDDAV:  cpu time    8.0108: real time    8.4288
 BZINTS: Fermi energy: -0.060265;270.000000 electrons
         Band energy:***********;  BLOECHL correction:  0.000000
       DOS:  cpu time    0.0038: real time    0.0038
    --------------------------------------------
      LOOP:  cpu time    8.0147: real time    8.4326

 eigenvalue-minimisations  :  4632
 total energy-change (2. order) :-0.2806126E+04  (-0.2694620E+04)
 number of electron     270.0000000 magnetization       1.0000000
 augmentation part      270.0000000 magnetization       1.0000000

 Free energy of the ion-electron system (eV)
  ---------------------------------------------------
  alpha Z        PSCENC =       185.27776676
  Ewald energy   TEWEN  =     29764.49410190
  -Hartree energ DENC   =    -40820.57510350
  -exchange      EXHF   =         0.00000000
  -V(xc)+E(xc)   XCENC  =      1062.69938607
  PAW double counting   =     10998.91041168   -11485.61342155
  entropy T*S    EENTRO =         0.00000000
  eigenvalues    EBANDS =     -4321.23832380
  atomic energy  EATOM  =     14592.26033195
  Solvation  Ediel_sol  =         0.00000000
  ---------------------------------------------------
  free energy    TOTEN  =       -23.78485048 eV

  energy without entropy =      -23.78485048  energy(sigma->0) =      -23.78485048


--------------------------------------------------------------------------------------------------------




--------------------------------------- Iteration      1(   3)  ---------------------------------------


     EDDAV:  cpu time    6.7295: real time    7.1193
 BZINTS: Fermi energy: -3.576769;270.000000 electrons
         Band energy:***********;  BLOECHL correction:  0.000000
       DOS:  cpu time    0.0043: real time    0.0043
    --------------------------------------------
      LOOP:  cpu time    6.7338: real time    7.1236

 eigenvalue-minimisations  :  4000
 total energy-change (2. order) :-0.4641305E+03  (-0.4599325E+03)
 number of electron     270.0000000 magnetization       1.0000000
 augmentation part      270.0000000 magnetization       1.0000000

 Free energy of the ion-electron system (eV)
  ---------------------------------------------------
  alpha Z        PSCENC =       185.27776676
  Ewald energy   TEWEN  =     29764.49410190
  -Hartree energ DENC   =    -40820.57510350
  -exchange      EXHF   =         0.00000000
  -V(xc)+E(xc)   XCENC  =      1062.69938607
  PAW double counting   =     10998.91041168   -11485.61342155
  entropy T*S    EENTRO =         0.00000000
  eigenvalues    EBANDS =     -4785.36880681
  atomic energy  EATOM  =     14592.26033195
  Solvation  Ediel_sol  =         0.00000000
  ---------------------------------------------------
  free energy    TOTEN  =      -487.91533349 eV

  energy without entropy =     -487.91533349  energy(sigma->0) =     -487.91533349


--------------------------------------------------------------------------------------------------------




--------------------------------------- Iteration      1(   4)  ---------------------------------------


     EDDAV:  cpu time    7.0758: real time    7.4311
 BZINTS: Fermi energy: -3.936859;270.000000 electrons
         Band energy:***********;  BLOECHL correction:  0.000000
       DOS:  cpu time    0.0042: real time    0.0042
    --------------------------------------------
      LOOP:  cpu time    7.0799: real time    7.4354

 eigenvalue-minimisations  :  4080
 total energy-change (2. order) :-0.1604686E+02  (-0.1569369E+02)
 number of electron     270.0000000 magnetization       1.0000000
 augmentation part      270.0000000 magnetization       1.0000000

 Free energy of the ion-electron system (eV)
  ---------------------------------------------------
  alpha Z        PSCENC =       185.27776676
  Ewald energy   TEWEN  =     29764.49410190
  -Hartree energ DENC   =    -40820.57510350
  -exchange      EXHF   =         0.00000000
  -V(xc)+E(xc)   XCENC  =      1062.69938607
  PAW double counting   =     10998.91041168   -11485.61342155
  entropy T*S    EENTRO =         0.00000000
  eigenvalues    EBANDS =     -4801.41567173
  atomic energy  EATOM  =     14592.26033195
  Solvation  Ediel_sol  =         0.00000000
  ---------------------------------------------------
  free energy    TOTEN  =      -503.96219841 eV

  energy without entropy =     -503.96219841  energy(sigma->0) =     -503.96219841


--------------------------------------------------------------------------------------------------------




--------------------------------------- Iteration      1(   5)  ---------------------------------------


     EDDAV:  cpu time    7.8018: real time    7.9925
 BZINTS: Fermi energy: -3.966242;270.000000 electrons
         Band energy:***********;  BLOECHL correction:  0.000000
       DOS:  cpu time    0.0039: real time    0.0039
    CHARGE:  cpu time    0.0913: real time    0.0946
    MIXING:  cpu time    0.0037: real time    0.0038
    --------------------------------------------
      LOOP:  cpu time    7.9008: real time    8.0948

 eigenvalue-minimisations  :  4592
 total energy-change (2. order) :-0.6058215E+00  (-0.6001194E+00)
 number of electron     269.9999907 magnetization       0.0000000
 augmentation part       21.5308037 magnetization       0.0006262

 Broyden mixing:
  rms(total) = 0.50789E+01    rms(broyden)= 0.50763E+01
  rms(prec ) = 0.56494E+01
  weight for this iteration     100.00

 Free energy of the ion-electron system (eV)
  ---------------------------------------------------
  alpha Z        PSCENC =       185.27776676
  Ewald energy   TEWEN  =     29764.49410190
  -Hartree energ DENC   =    -40820.57510350
  -exchange      EXHF   =         0.00000000
  -V(xc)+E(xc)   XCENC  =      1062.69938607
  PAW double counting   =     10998.91041168   -11485.61342155
  entropy T*S    EENTRO =         0.00000000
  eigenvalues    EBANDS =     -4802.02149319
  atomic energy  EATOM  =     14592.26033195
  Solvation  Ediel_sol  =         0.00000000
  ---------------------------------------------------
  free energy    TOTEN  =      -504.56801987 eV

  energy without entropy =     -504.56801987  energy(sigma->0) =     -504.56801987


--------------------------------------------------------------------------------------------------------




--------------------------------------- Iteration      1(   6)  ---------------------------------------


    POTLOK:  cpu time    0.0784: real time    0.0831
    SETDIJ:  cpu time    0.0097: real time    0.0098
     EDDAV:  cpu time    6.9179: real time    7.0351
 BZINTS: Fermi energy: -2.950988;270.000000 electrons
         Band energy:***********;  BLOECHL correction:  0.000000
       DOS:  cpu time    0.0040: real time    0.0041
    CHARGE:  cpu time    0.0911: real time    0.0944
    MIXING:  cpu time    0.0026: real time    0.0026
    --------------------------------------------
      LOOP:  cpu time    7.1037: real time    7.2291

 eigenvalue-minimisations  :  4528
 total energy-change (2. order) : 0.4056875E+02  (-0.5266667E+01)
 number of electron     269.9999907 magnetization      -0.0000000
 augmentation part       20.4905599 magnetization       0.0025868

 Broyden mixing:
  rms(total) = 0.33603E+01    rms(broyden)= 0.33601E+01
  rms(prec ) = 0.36345E+01
  weight for this iteration     100.00

 eigenvalues of (default mixing * dielectric matrix)
  average eigenvalue GAMMA=   1.7929
  1.7929

 Free energy of the ion-electron system (eV)
  ---------------------------------------------------
  alpha Z        PSCENC =       185.27776676
  Ewald energy   TEWEN  =     29764.49410190
  -Hartree energ DENC   =    -41274.25201301
  -exchange      EXHF   =         0.00000000
  -V(xc)+E(xc)   XCENC  =      1081.09318044
  PAW double counting   =     15891.18601067   -16382.30165135
  entropy T*S    EENTRO =         0.00000000
  eigenvalues    EBANDS =     -4321.75699285
  atomic energy  EATOM  =     14592.26033195
  Solvation  Ediel_sol  =         0.00000000
  ---------------------------------------------------
  free energy    TOTEN  =      -463.99926549 eV

  energy without entropy =     -463.99926549  energy(sigma->0) =     -463.99926549


--------------------------------------------------------------------------------------------------------




--------------------------------------- Iteration      1(   7)  ---------------------------------------


    POTLOK:  cpu time    0.1027: real time    0.1072
    SETDIJ:  cpu time    0.0095: real time    0.0096
     EDDAV:  cpu time    6.4625: real time    6.7060
 BZINTS: Fermi energy: -1.805701;270.000000 electrons
         Band energy:***********;  BLOECHL correction:  0.000000
       DOS:  cpu time    0.0037: real time    0.0037
    CHARGE:  cpu time    0.0902: real time    0.0920
    MIXING:  cpu time    0.0025: real time    0.0026
    --------------------------------------------
      LOOP:  cpu time    6.6712: real time    6.9211

 eigenvalue-minimisations  :  4096
 total energy-change (2. order) : 0.1379710E+02  (-0.7151122E+01)
 number of electron     269.9999910 magnetization      -0.0000000
 augmentation part       19.6945122 magnetization       0.0021714

 Broyden mixing:
  rms(total) = 0.19073E+01    rms(broyden)= 0.19067E+01
  rms(prec ) = 0.20399E+01
  weight for this iteration     100.00

 eigenvalues of (default mixing * dielectric matrix)
  average eigenvalue GAMMA=   1.7236
  0.9748  2.4723

 Free energy of the ion-electron system (eV)
  ---------------------------------------------------
  alpha Z        PSCENC =       185.27776676
  Ewald energy   TEWEN  =     29764.49410190
  -Hartree energ DENC   =    -41801.01883209
  -exchange      EXHF   =         0.00000000
  -V(xc)+E(xc)   XCENC  =      1101.33141516
  PAW double counting   =     25118.67371722   -25617.32764020
  entropy T*S    EENTRO =         0.00000000
  eigenvalues    EBANDS =     -3793.89302559
  atomic energy  EATOM  =     14592.26033195
  Solvation  Ediel_sol  =         0.00000000
  ---------------------------------------------------
  free energy    TOTEN  =      -450.20216489 eV

  energy without entropy =     -450.20216489  energy(sigma->0) =     -450.20216489


--------------------------------------------------------------------------------------------------------




--------------------------------------- Iteration      1(   8)  ---------------------------------------


    POTLOK:  cpu time    0.0793: real time    0.0826
    SETDIJ:  cpu time    0.0085: real time    0.0085
     EDDAV:  cpu time    6.2454: real time    6.3730
 BZINTS: Fermi energy: -1.205551;270.000000 electrons
         Band energy:***********;  BLOECHL correction:  0.000000
       DOS:  cpu time    0.0037: real time    0.0037
    CHARGE:  cpu time    0.0905: real time    0.0918
    MIXING:  cpu time    0.0021: real time    0.0022
    --------------------------------------------
      LOOP:  cpu time    6.4295: real time    6.5619

 eigenvalue-minimisations  :  4024
 total energy-change (2. order) : 0.2003779E+01  (-0.1329669E+01)
 number of electron     269.9999912 magnetization       0.0000000
 augmentation part       19.4769166 magnetization       0.0018022

 Broyden mixing:
  rms(total) = 0.13709E+01    rms(broyden)= 0.13707E+01
  rms(prec ) = 0.14294E+01
  weight for this iteration     100.00

 eigenvalues of (default mixing * dielectric matrix)
  average eigenvalue GAMMA=   1.8049
  3.2478  1.4169  0.7499

 Free energy of the ion-electron system (eV)
  ---------------------------------------------------
  alpha Z        PSCENC =       185.27776676
  Ewald energy   TEWEN  =     29764.49410190
  -Hartree energ DENC   =    -41915.50090184
  -exchange      EXHF   =         0.00000000
  -V(xc)+E(xc)   XCENC  =      1106.03554547
  PAW double counting   =     29990.86764776   -30492.71526628
  entropy T*S    EENTRO =         0.00000000
  eigenvalues    EBANDS =     -3678.91761201
  atomic energy  EATOM  =     14592.26033195
  Solvation  Ediel_sol  =         0.00000000
  ---------------------------------------------------
  free energy    TOTEN  =      -448.19838629 eV

  energy without entropy =     -448.19838629  energy(sigma->0) =     -448.19838629


--------------------------------------------------------------------------------------------------------




--------------------------------------- Iteration      1(   9)  ---------------------------------------


    POTLOK:  cpu time    0.0792: real time    0.0832
    SETDIJ:  cpu time    0.0083: real time    0.0084
     EDDAV:  cpu time    7.4503: real time    7.5731
 BZINTS: Fermi energy: -1.160540;270.000000 electrons
         Band energy:***********;  BLOECHL correction:  0.000000
       DOS:  cpu time    0.0037: real time    0.0037
    CHARGE:  cpu time    0.0888: real time    0.0900
    MIXING:  cpu time    0.0021: real time    0.0022
    --------------------------------------------
      LOOP:  cpu time    7.6324: real time    7.7607

 eigenvalue-minimisations  :  5184
 total energy-change (2. order) :-0.2895304E+00  (-0.1031121E+01)
 number of electron     269.9999911 magnetization       0.0000000
 augmentation part       19.5819059 magnetization       0.0003446

 Broyden mixing:
  rms(total) = 0.69225E+00    rms(broyden)= 0.69190E+00
  rms(prec ) = 0.87270E+00
  weight for this iteration     100.00

 eigenvalues of (default mixing * dielectric matrix)
  average eigenvalue GAMMA=   1.7366
  3.7464  1.6049  0.7976  0.7976

 Free energy of the ion-electron system (eV)
  ---------------------------------------------------
  alpha Z        PSCENC =       185.27776676
  Ewald energy   TEWEN  =     29764.49410190
  -Hartree energ DENC   =    -41941.44961629
  -exchange      EXHF   =         0.00000000
  -V(xc)+E(xc)   XCENC  =      1107.34928556
  PAW double counting   =     36235.55706967   -36742.55284831
  entropy T*S    EENTRO =         0.00000000
  eigenvalues    EBANDS =     -3649.42400797
  atomic energy  EATOM  =     14592.26033195
  Solvation  Ediel_sol  =         0.00000000
  ---------------------------------------------------
  free energy    TOTEN  =      -448.48791673 eV

  energy without entropy =     -448.48791673  energy(sigma->0) =     -448.48791673


--------------------------------------------------------------------------------------------------------




--------------------------------------- Iteration      1(  10)  ---------------------------------------


    POTLOK:  cpu time    0.0603: real time    0.0660
    SETDIJ:  cpu time    0.0096: real time    0.0098
     EDDAV:  cpu time    7.2810: real time    7.3673
 BZINTS: Fermi energy: -0.860465;270.000000 electrons
         Band energy:***********;  BLOECHL correction:  0.000000
       DOS:  cpu time    0.0037: real time    0.0037
    CHARGE:  cpu time    0.0908: real time    0.0913
    MIXING:  cpu time    0.0022: real time    0.0022
    --------------------------------------------
      LOOP:  cpu time    7.4476: real time    7.5403

 eigenvalue-minimisations  :  4968
 total energy-change (2. order) : 0.7482508E+00  (-0.6583223E+00)
 number of electron     269.9999911 magnetization      -0.0000000
 augmentation part       19.5646006 magnetization       0.0000397

 Broyden mixing:
  rms(total) = 0.33615E+00    rms(broyden)= 0.33564E+00
  rms(prec ) = 0.38569E+00
  weight for this iteration     100.00

 eigenvalues of (default mixing * dielectric matrix)
  average eigenvalue GAMMA=   1.6210
  3.9693  1.8148  1.0468  0.6370  0.6370

 Free energy of the ion-electron system (eV)
  ---------------------------------------------------
  alpha Z        PSCENC =       185.27776676
  Ewald energy   TEWEN  =     29764.49410190
  -Hartree energ DENC   =    -41944.15601289
  -exchange      EXHF   =         0.00000000
  -V(xc)+E(xc)   XCENC  =      1107.93821553
  PAW double counting   =     38740.65612695   -39247.45838786
  entropy T*S    EENTRO =         0.00000000
  eigenvalues    EBANDS =     -3646.75180831
  atomic energy  EATOM  =     14592.26033195
  Solvation  Ediel_sol  =         0.00000000
  ---------------------------------------------------
  free energy    TOTEN  =      -447.73966597 eV

  energy without entropy =     -447.73966597  energy(sigma->0) =     -447.73966597


--------------------------------------------------------------------------------------------------------




--------------------------------------- Iteration      1(  11)  ---------------------------------------


    POTLOK:  cpu time    0.0769: real time    0.0806
    SETDIJ:  cpu time    0.0084: real time    0.0084
     EDDAV:  cpu time    7.0945: real time    7.1985
 BZINTS: Fermi energy: -0.980495;270.000000 electrons
         Band energy:***********;  BLOECHL correction:  0.000000
       DOS:  cpu time    0.0038: real time    0.0038
    CHARGE:  cpu time    0.0887: real time    0.0901
    MIXING:  cpu time    0.0022: real time    0.0022
    --------------------------------------------
      LOOP:  cpu time    7.2746: real time    7.3836

 eigenvalue-minimisations  :  4920
 total energy-change (2. order) : 0.8151716E-01  (-0.1159022E+00)
 number of electron     269.9999911 magnetization      -0.0000000
 augmentation part       19.5617119 magnetization      -0.0000614

 Broyden mixing:
  rms(total) = 0.17971E+00    rms(broyden)= 0.17961E+00
  rms(prec ) = 0.21298E+00
  weight for this iteration     100.00

 eigenvalues of (default mixing * dielectric matrix)
  average eigenvalue GAMMA=   1.5490
  3.9319  1.8896  1.2932  0.9450  0.6172  0.6172

 Free energy of the ion-electron system (eV)
  ---------------------------------------------------
  alpha Z        PSCENC =       185.27776676
  Ewald energy   TEWEN  =     29764.49410190
  -Hartree energ DENC   =    -41918.27876051
  -exchange      EXHF   =         0.00000000
  -V(xc)+E(xc)   XCENC  =      1107.30585343
  PAW double counting   =     39939.39977556   -40445.52142187
  entropy T*S    EENTRO =         0.00000000
  eigenvalues    EBANDS =     -3672.59579603
  atomic energy  EATOM  =     14592.26033195
  Solvation  Ediel_sol  =         0.00000000
  ---------------------------------------------------
  free energy    TOTEN  =      -447.65814881 eV

  energy without entropy =     -447.65814881  energy(sigma->0) =     -447.65814881


--------------------------------------------------------------------------------------------------------




--------------------------------------- Iteration      1(  12)  ---------------------------------------


    POTLOK:  cpu time    0.0581: real time    0.0621
    SETDIJ:  cpu time    0.0100: real time    0.0103
     EDDAV:  cpu time    6.9518: real time    7.0815
 BZINTS: Fermi energy: -1.040510;270.000000 electrons
         Band energy:***********;  BLOECHL correction:  0.000000
       DOS:  cpu time    0.0040: real time    0.0042
    CHARGE:  cpu time    0.0883: real time    0.0892
    MIXING:  cpu time    0.0023: real time    0.0023
    --------------------------------------------
      LOOP:  cpu time    7.1144: real time    7.2496

 eigenvalue-minimisations  :  4416
 total energy-change (2. order) : 0.3959748E-01  (-0.5598535E-01)
 number of electron     269.9999912 magnetization      -0.0000000
 augmentation part       19.5594187 magnetization      -0.0000534

 Broyden mixing:
  rms(total) = 0.11858E+00    rms(broyden)= 0.11847E+00
  rms(prec ) = 0.14909E+00
  weight for this iteration     100.00

 eigenvalues of (default mixing * dielectric matrix)
  average eigenvalue GAMMA=   1.5450
  3.8919  2.3464  1.5313  0.9255  0.9255  0.5973  0.5973

 Free energy of the ion-electron system (eV)
  ---------------------------------------------------
  alpha Z        PSCENC =       185.27776676
  Ewald energy   TEWEN  =     29764.49410190
  -Hartree energ DENC   =    -41899.20798424
  -exchange      EXHF   =         0.00000000
  -V(xc)+E(xc)   XCENC  =      1106.71704681
  PAW double counting   =     40138.75096770   -40644.26742903
  entropy T*S    EENTRO =         0.00000000
  eigenvalues    EBANDS =     -3691.64335318
  atomic energy  EATOM  =     14592.26033195
  Solvation  Ediel_sol  =         0.00000000
  ---------------------------------------------------
  free energy    TOTEN  =      -447.61855132 eV

  energy without entropy =     -447.61855132  energy(sigma->0) =     -447.61855132


--------------------------------------------------------------------------------------------------------




--------------------------------------- Iteration      1(  13)  ---------------------------------------


    POTLOK:  cpu time    0.0796: real time    0.0842
    SETDIJ:  cpu time    0.0097: real time    0.0097
     EDDAV:  cpu time    6.2916: real time    6.3780
 BZINTS: Fermi energy: -1.080520;270.000000 electrons
         Band energy:***********;  BLOECHL correction:  0.000000
       DOS:  cpu time    0.0041: real time    0.0041
    CHARGE:  cpu time    0.0881: real time    0.0896
    MIXING:  cpu time    0.0024: real time    0.0024
    --------------------------------------------
      LOOP:  cpu time    6.4754: real time    6.5680

 eigenvalue-minimisations  :  3960
 total energy-change (2. order) : 0.2370948E-01  (-0.2482345E-01)
 number of electron     269.9999911 magnetization       0.0000000
 augmentation part       19.5676174 magnetization      -0.0000193

 Broyden mixing:
  rms(total) = 0.49968E-01    rms(broyden)= 0.49853E-01
  rms(prec ) = 0.58822E-01
  weight for this iteration     100.00

 eigenvalues of (default mixing * dielectric matrix)
  average eigenvalue GAMMA=   1.5183
  3.8808  2.5929  1.6460  0.9904  0.9191  0.9191  0.5990  0.5990

 Free energy of the ion-electron system (eV)
  ---------------------------------------------------
  alpha Z        PSCENC =       185.27776676
  Ewald energy   TEWEN  =     29764.49410190
  -Hartree energ DENC   =    -41884.90728012
  -exchange      EXHF   =         0.00000000
  -V(xc)+E(xc)   XCENC  =      1106.23811904
  PAW double counting   =     40303.54761627   -40808.92650805
  entropy T*S    EENTRO =         0.00000000
  eigenvalues    EBANDS =     -3705.57898960
  atomic energy  EATOM  =     14592.26033195
  Solvation  Ediel_sol  =         0.00000000
  ---------------------------------------------------
  free energy    TOTEN  =      -447.59484184 eV

  energy without entropy =     -447.59484184  energy(sigma->0) =     -447.59484184


--------------------------------------------------------------------------------------------------------




--------------------------------------- Iteration      1(  14)  ---------------------------------------


    POTLOK:  cpu time    0.0783: real time    0.0828
    SETDIJ:  cpu time    0.0083: real time    0.0085
     EDDAV:  cpu time    6.2946: real time    6.4544
 BZINTS: Fermi energy: -1.090523;270.000000 electrons
         Band energy:***********;  BLOECHL correction:  0.000000
       DOS:  cpu time    0.0040: real time    0.0040
    CHARGE:  cpu time    0.0876: real time    0.0885
    MIXING:  cpu time    0.0026: real time    0.0026
    --------------------------------------------
      LOOP:  cpu time    6.4754: real time    6.6408

 eigenvalue-minimisations  :  3848
 total energy-change (2. order) :-0.2514140E-03  (-0.5161062E-02)
 number of electron     269.9999911 magnetization      -0.0000000
 augmentation part       19.5701966 magnetization      -0.0000060

 Broyden mixing:
  rms(total) = 0.31063E-01    rms(broyden)= 0.31045E-01
  rms(prec ) = 0.34465E-01
  weight for this iteration     100.00

 eigenvalues of (default mixing * dielectric matrix)
  average eigenvalue GAMMA=   1.4676
  3.8524  2.5998  1.5958  1.1061  1.1061  0.8730  0.8730  0.6012  0.6012

 Free energy of the ion-electron system (eV)
  ---------------------------------------------------
  alpha Z        PSCENC =       185.27776676
  Ewald energy   TEWEN  =     29764.49410190
  -Hartree energ DENC   =    -41882.49063846
  -exchange      EXHF   =         0.00000000
  -V(xc)+E(xc)   XCENC  =      1106.14315298
  PAW double counting   =     40373.69585249   -40878.97855814
  entropy T*S    EENTRO =         0.00000000
  eigenvalues    EBANDS =     -3707.99710274
  atomic energy  EATOM  =     14592.26033195
  Solvation  Ediel_sol  =         0.00000000
  ---------------------------------------------------
  free energy    TOTEN  =      -447.59509325 eV

  energy without entropy =     -447.59509325  energy(sigma->0) =     -447.59509325


--------------------------------------------------------------------------------------------------------




--------------------------------------- Iteration      1(  15)  ---------------------------------------


    POTLOK:  cpu time    0.0759: real time    0.0800
    SETDIJ:  cpu time    0.0084: real time    0.0085
     EDDAV:  cpu time    7.1567: real time    7.2361
 BZINTS: Fermi energy: -1.085521;270.000000 electrons
         Band energy:***********;  BLOECHL correction:  0.000000
       DOS:  cpu time    0.0038: real time    0.0038
    CHARGE:  cpu time    0.0889: real time    0.0896
    MIXING:  cpu time    0.0025: real time    0.0025
    --------------------------------------------
      LOOP:  cpu time    7.3363: real time    7.4205

 eigenvalue-minimisations  :  4880
 total energy-change (2. order) : 0.4949155E-03  (-0.7291259E-03)
 number of electron     269.9999911 magnetization      -0.0000000
 augmentation part       19.5709347 magnetization      -0.0000013

 Broyden mixing:
  rms(total) = 0.20694E-01    rms(broyden)= 0.20690E-01
  rms(prec ) = 0.21299E-01
  weight for this iteration     100.00

 eigenvalues of (default mixing * dielectric matrix)
  average eigenvalue GAMMA=   1.5143
  3.7608  2.5142  2.2324  1.4295  1.4295  0.8907  0.8404  0.8404  0.6024  0.6024

 Free energy of the ion-electron system (eV)
  ---------------------------------------------------
  alpha Z        PSCENC =       185.27776676
  Ewald energy   TEWEN  =     29764.49410190
  -Hartree energ DENC   =    -41883.74174349
  -exchange      EXHF   =         0.00000000
  -V(xc)+E(xc)   XCENC  =      1106.16476250
  PAW double counting   =     40378.06839833   -40883.44196182
  entropy T*S    EENTRO =         0.00000000
  eigenvalues    EBANDS =     -3706.67625447
  atomic energy  EATOM  =     14592.26033195
  Solvation  Ediel_sol  =         0.00000000
  ---------------------------------------------------
  free energy    TOTEN  =      -447.59459834 eV

  energy without entropy =     -447.59459834  energy(sigma->0) =     -447.59459834


--------------------------------------------------------------------------------------------------------




--------------------------------------- Iteration      1(  16)  ---------------------------------------


    POTLOK:  cpu time    0.0800: real time    0.0848
    SETDIJ:  cpu time    0.0096: real time    0.0096
     EDDAV:  cpu time    6.3517: real time    6.4434
 BZINTS: Fermi energy: -1.080520;270.000000 electrons
         Band energy:***********;  BLOECHL correction:  0.000000
       DOS:  cpu time    0.0038: real time    0.0038
    CHARGE:  cpu time    0.0871: real time    0.0885
    MIXING:  cpu time    0.0029: real time    0.0029
    --------------------------------------------
      LOOP:  cpu time    6.5350: real time    6.6329

 eigenvalue-minimisations  :  4152
 total energy-change (2. order) :-0.1941458E-05  (-0.1513604E-03)
 number of electron     269.9999911 magnetization       0.0000000
 augmentation part       19.5701456 magnetization      -0.0000003

 Broyden mixing:
  rms(total) = 0.11771E-01    rms(broyden)= 0.11769E-01
  rms(prec ) = 0.12029E-01
  weight for this iteration     100.00

 eigenvalues of (default mixing * dielectric matrix)
  average eigenvalue GAMMA=   1.5778
  3.6272  3.6272  2.3726  1.3817  1.3817  1.1972  0.8572  0.8572  0.8470  0.6034
  0.6034

 Free energy of the ion-electron system (eV)
  ---------------------------------------------------
  alpha Z        PSCENC =       185.27776676
  Ewald energy   TEWEN  =     29764.49410190
  -Hartree energ DENC   =    -41885.26220443
  -exchange      EXHF   =         0.00000000
  -V(xc)+E(xc)   XCENC  =      1106.20008756
  PAW double counting   =     40372.39451133   -40877.78781758
  entropy T*S    EENTRO =         0.00000000
  eigenvalues    EBANDS =     -3705.17137778
  atomic energy  EATOM  =     14592.26033195
  Solvation  Ediel_sol  =         0.00000000
  ---------------------------------------------------
  free energy    TOTEN  =      -447.59460028 eV

  energy without entropy =     -447.59460028  energy(sigma->0) =     -447.59460028


--------------------------------------------------------------------------------------------------------




--------------------------------------- Iteration      1(  17)  ---------------------------------------


    POTLOK:  cpu time    0.0790: real time    0.0821
    SETDIJ:  cpu time    0.0084: real time    0.0084
     EDDAV:  cpu time    4.6410: real time    4.7227
 BZINTS: Fermi energy: -1.080520;270.000000 electrons
         Band energy:***********;  BLOECHL correction:  0.000000
       DOS:  cpu time    0.0037: real time    0.0037
    --------------------------------------------
      LOOP:  cpu time    4.7321: real time    4.8169

 eigenvalue-minimisations  :  2464
 total energy-change (2. order) :-0.3100678E-04  (-0.2479946E-04)
 number of electron     269.9999911 magnetization       0.0000000
 augmentation part       19.5701456 magnetization      -0.0000003

 Free energy of the ion-electron system (eV)
  ---------------------------------------------------
  alpha Z        PSCENC =       185.27776676
  Ewald energy   TEWEN  =     29764.49410190
  -Hartree energ DENC   =    -41885.51316662
  -exchange      EXHF   =         0.00000000
  -V(xc)+E(xc)   XCENC  =      1106.20304206
  PAW double counting   =     40380.17947132   -40885.56198824
  entropy T*S    EENTRO =         0.00000000
  eigenvalues    EBANDS =     -3704.93419041
  atomic energy  EATOM  =     14592.26033195
  Solvation  Ediel_sol  =         0.00000000
  ---------------------------------------------------
  free energy    TOTEN  =      -447.59463129 eV

  energy without entropy =     -447.59463129  energy(sigma->0) =     -447.59463129


--------------------------------------------------------------------------------------------------------




 average (electrostatic) potential at core
  the test charge radii are     0.6991  0.7089  0.9911
  (the norm of the test charge is              1.0000)
       1 -59.5146       2 -59.9251       3 -59.9253       4 -59.6306       5 -59.6090
       6 -59.6523       7 -59.7198       8 -59.5261       9 -59.4327      10 -60.4352
      11 -59.8019      12 -60.4201      13 -59.5250      14 -59.5287      15 -59.2604
      16 -59.6727      17 -59.6431      18 -59.5983      19 -59.8324      20 -59.5046
      21 -59.5289      22 -59.7435      23 -59.6699      24 -59.7145      25 -73.7371
      26 -71.2839      27 -71.2748      28 -71.5147      29 -71.6228      30 -71.3811
      31 -71.3195      32 -74.4371      33 -73.2934      34 -71.8586      35 -73.0652
      36 -71.4628      37 -71.4728      38 -71.9260      39 -73.0083      40 -74.5752
      41 -73.4773      42 -71.4743      43 -71.3577      44 -71.6685      45 -71.6977
      46 -71.3260      47 -71.3274      48 -74.3061      49 -73.5015      50 -71.6534
      51 -71.5479      52 -71.2888      53 -71.2352      54 -71.5920      55 -71.5335
      56 -74.6169      57 -80.6540
 
 
 
 E-fermi :  -1.0805     XC(G=0):  -3.4120     alpha+bet : -2.8905


 spin component 1

 k-point     1 :       0.0000    0.0000    0.0000
  band No.  band energies     occupation 
      1     -28.1054      1.00000
      2     -27.9787      1.00000
      3     -27.7103      1.00000
      4     -27.6162      1.00000
      5     -26.5167      1.00000
      6     -26.3628      1.00000
      7     -26.3016      1.00000
      8     -26.1201      1.00000
      9     -26.0163      1.00000
     10     -25.9719      1.00000
     11     -25.9020      1.00000
     12     -25.8688      1.00000
     13     -25.2691      1.00000
     14     -25.2433      1.00000
     15     -25.1955      1.00000
     16     -25.1027      1.00000
     17     -25.0481      1.00000
     18     -24.9093      1.00000
     19     -24.0211      1.00000
     20     -23.7824      1.00000
     21     -23.7584      1.00000
     22     -22.8485      1.00000
     23     -22.7851      1.00000
     24     -22.4507      1.00000
     25     -22.3126      1.00000
     26     -22.2708      1.00000
     27     -22.2349      1.00000
     28     -22.1479      1.00000
     29     -22.0753      1.00000
     30     -21.9225      1.00000
     31     -21.8778      1.00000
     32     -21.7531      1.00000
     33     -21.1960      1.00000
     34     -21.1268      1.00000
     35     -20.9842      1.00000
     36     -20.8214      1.00000
     37     -20.4562      1.00000
     38     -18.1817      1.00000
     39     -18.1121      1.00000
     40     -17.9600      1.00000
     41     -17.7460      1.00000
     42     -17.5951      1.00000
     43     -17.5446      1.00000
     44     -17.0786      1.00000
     45     -16.8416      1.00000
     46     -16.0999      1.00000
     47     -15.9220      1.00000
     48     -15.9125      1.00000
     49     -15.7022      1.00000
     50     -15.6037      1.00000
     51     -15.4698      1.00000
     52     -15.0459      1.00000
     53     -14.9180      1.00000
     54     -14.5572      1.00000
     55     -14.4592      1.00000
     56     -14.4209      1.00000
     57     -14.2491      1.00000
     58     -14.1834      1.00000
     59     -14.0675      1.00000
     60     -13.9645      1.00000
     61     -13.8755      1.00000
     62     -13.7671      1.00000
     63     -13.0861      1.00000
     64     -13.0182      1.00000
     65     -12.8171      1.00000
     66     -12.6507      1.00000
     67     -12.6012      1.00000
     68     -12.5081      1.00000
     69     -12.3635      1.00000
     70     -12.2969      1.00000
     71     -12.1627      1.00000
     72     -12.0500      1.00000
     73     -11.8463      1.00000
     74     -11.7864      1.00000
     75     -11.6015      1.00000
     76     -11.5303      1.00000
     77     -11.3328      1.00000
     78     -11.0153      1.00000
     79     -10.8531      1.00000
     80     -10.6911      1.00000
     81     -10.3961      1.00000
     82     -10.2816      1.00000
     83     -10.1273      1.00000
     84      -9.9645      1.00000
     85      -9.8070      1.00000
     86      -9.7483      1.00000
     87      -9.6457      1.00000
     88      -9.4818      1.00000
     89      -9.3867      1.00000
     90      -9.2395      1.00000
     91      -8.9548      1.00000
     92      -8.3243      1.00000
     93      -8.2036      1.00000
     94      -8.1089      1.00000
     95      -7.8517      1.00000
     96      -7.6486      1.00000
     97      -7.4892      1.00000
     98      -7.4249      1.00000
     99      -7.3318      1.00000
    100      -7.2577      1.00000
    101      -7.2408      1.00000
    102      -7.1412      1.00000
    103      -7.1038      1.00000
    104      -7.0250      1.00000
    105      -6.9169      1.00000
    106      -6.8371      1.00000
    107      -6.5776      1.00000
    108      -6.4107      1.00000
    109      -6.1299      1.00000
    110      -5.9067      1.00000
    111      -5.7092      1.00000
    112      -5.6359      1.00000
    113      -5.4989      1.00000
    114      -5.3523      1.00000
    115      -5.2298      1.00000
    116      -5.1103      1.00000
    117      -5.0269      1.00000
    118      -4.9706      1.00000
    119      -4.9387      1.00000
    120      -4.8118      1.00000
    121      -4.6891      1.00000
    122      -4.5756      1.00000
    123      -4.4118      1.00000
    124      -4.2633      1.00000
    125      -4.1706      1.00000
    126      -3.9693      1.00000
    127      -3.8324      1.00000
    128      -3.7443      1.00000
    129      -3.6485      1.00000
    130      -3.5106      1.00000
    131      -3.3197      1.00000
    132      -3.2362      1.00000
    133      -3.0689      1.00000
    134      -3.0060      1.00000
    135      -1.2386      1.00000
    136      -0.8524      0.00000
    137      -0.6579      0.00000
    138      -0.2927      0.00000
    139      -0.1001      0.00000
    140       0.0131      0.00000
    141       0.1329      0.00000
    142       0.4550      0.00000
    143       0.6031      0.00000
    144       0.9371      0.00000
    145       1.0055      0.00000
    146       1.2440      0.00000
    147       1.3646      0.00000
    148       1.5718      0.00000
    149       1.9578      0.00000
    150       1.9888      0.00000
    151       2.0980      0.00000
    152       2.3151      0.00000
    153       2.5274      0.00000
    154       2.5831      0.00000
    155       2.7382      0.00000
    156       2.7839      0.00000
    157       2.9322      0.00000
    158       2.9657      0.00000
    159       3.1142      0.00000
    160       3.1690      0.00000
    161       3.2729      0.00000
    162       3.3084      0.00000
    163       3.3734      0.00000
    164       3.4698      0.00000
    165       3.4923      0.00000
    166       3.6053      0.00000
    167       3.6831      0.00000
    168       3.8109      0.00000

 k-point     2 :       0.3333   -0.0000    0.0000
  band No.  band energies     occupation 
      1     -28.0833      1.00000
      2     -28.0003      1.00000
      3     -27.7086      1.00000
      4     -27.6355      1.00000
      5     -26.4736      1.00000
      6     -26.3446      1.00000
      7     -26.2114      1.00000
      8     -26.1032      1.00000
      9     -26.0199      1.00000
     10     -25.9703      1.00000
     11     -25.9031      1.00000
     12     -25.8687      1.00000
     13     -25.7283      1.00000
     14     -25.2481      1.00000
     15     -25.1824      1.00000
     16     -25.0804      1.00000
     17     -25.0286      1.00000
     18     -24.5165      1.00000
     19     -24.0771      1.00000
     20     -23.7776      1.00000
     21     -23.6878      1.00000
     22     -22.9130      1.00000
     23     -22.6994      1.00000
     24     -22.5908      1.00000
     25     -22.4641      1.00000
     26     -22.4427      1.00000
     27     -22.3526      1.00000
     28     -22.1756      1.00000
     29     -22.1571      1.00000
     30     -21.7777      1.00000
     31     -21.7598      1.00000
     32     -21.5096      1.00000
     33     -21.2705      1.00000
     34     -21.0163      1.00000
     35     -20.9402      1.00000
     36     -20.7145      1.00000
     37     -20.5367      1.00000
     38     -18.1769      1.00000
     39     -18.1677      1.00000
     40     -17.9383      1.00000
     41     -17.7826      1.00000
     42     -17.6084      1.00000
     43     -17.4782      1.00000
     44     -17.3592      1.00000
     45     -17.1517      1.00000
     46     -15.9343      1.00000
     47     -15.8507      1.00000
     48     -15.7438      1.00000
     49     -15.6561      1.00000
     50     -15.3434      1.00000
     51     -15.1878      1.00000
     52     -15.0413      1.00000
     53     -14.7873      1.00000
     54     -14.5873      1.00000
     55     -14.5047      1.00000
     56     -14.4480      1.00000
     57     -14.3784      1.00000
     58     -14.2734      1.00000
     59     -14.1043      1.00000
     60     -13.9734      1.00000
     61     -13.8563      1.00000
     62     -13.7246      1.00000
     63     -13.3487      1.00000
     64     -13.1293      1.00000
     65     -12.9566      1.00000
     66     -12.9258      1.00000
     67     -12.7526      1.00000
     68     -12.5844      1.00000
     69     -12.5071      1.00000
     70     -12.2321      1.00000
     71     -12.1275      1.00000
     72     -11.9310      1.00000
     73     -11.7957      1.00000
     74     -11.7292      1.00000
     75     -11.3839      1.00000
     76     -11.2269      1.00000
     77     -11.1799      1.00000
     78     -10.8992      1.00000
     79     -10.6837      1.00000
     80     -10.6150      1.00000
     81     -10.4319      1.00000
     82     -10.3234      1.00000
     83     -10.2355      1.00000
     84     -10.0530      1.00000
     85      -9.8760      1.00000
     86      -9.7752      1.00000
     87      -9.6979      1.00000
     88      -9.5385      1.00000
     89      -9.4670      1.00000
     90      -9.3623      1.00000
     91      -8.7068      1.00000
     92      -8.3157      1.00000
     93      -8.2416      1.00000
     94      -8.1378      1.00000
     95      -7.8498      1.00000
     96      -7.6503      1.00000
     97      -7.4779      1.00000
     98      -7.4459      1.00000
     99      -7.3781      1.00000
    100      -7.3040      1.00000
    101      -7.2267      1.00000
    102      -7.1727      1.00000
    103      -7.0790      1.00000
    104      -7.0131      1.00000
    105      -6.9313      1.00000
    106      -6.8561      1.00000
    107      -6.6002      1.00000
    108      -6.3117      1.00000
    109      -6.0761      1.00000
    110      -5.8737      1.00000
    111      -5.7389      1.00000
    112      -5.6209      1.00000
    113      -5.5430      1.00000
    114      -5.4442      1.00000
    115      -5.2570      1.00000
    116      -5.1373      1.00000
    117      -5.0260      1.00000
    118      -4.9640      1.00000
    119      -4.8515      1.00000
    120      -4.8332      1.00000
    121      -4.6381      1.00000
    122      -4.5952      1.00000
    123      -4.3418      1.00000
    124      -4.2603      1.00000
    125      -4.1274      1.00000
    126      -4.0324      1.00000
    127      -3.8790      1.00000
    128      -3.6626      1.00000
    129      -3.5980      1.00000
    130      -3.4887      1.00000
    131      -3.3736      1.00000
    132      -3.2372      1.00000
    133      -3.1640      1.00000
    134      -3.0640      1.00000
    135      -1.1248      1.00000
    136      -0.8463      0.00000
    137      -0.5027      0.00000
    138      -0.3197      0.00000
    139      -0.0503      0.00000
    140       0.1114      0.00000
    141       0.1744      0.00000
    142       0.3020      0.00000
    143       0.4687      0.00000
    144       0.8835      0.00000
    145       0.9484      0.00000
    146       1.2233      0.00000
    147       1.3105      0.00000
    148       1.4578      0.00000
    149       1.7723      0.00000
    150       2.0017      0.00000
    151       2.0503      0.00000
    152       2.3548      0.00000
    153       2.5859      0.00000
    154       2.7264      0.00000
    155       2.8037      0.00000
    156       2.8591      0.00000
    157       2.9866      0.00000
    158       3.0594      0.00000
    159       3.1015      0.00000
    160       3.1721      0.00000
    161       3.2584      0.00000
    162       3.3854      0.00000
    163       3.4206      0.00000
    164       3.4996      0.00000
    165       3.5468      0.00000
    166       3.5926      0.00000
    167       3.7206      0.00000
    168       3.8586      0.00000

 k-point     3 :      -0.0000    0.3333    0.0000
  band No.  band energies     occupation 
      1     -28.0944      1.00000
      2     -27.9781      1.00000
      3     -27.7383      1.00000
      4     -27.6174      1.00000
[...]
   -.141E+02 0.348E+02 0.141E+03   0.140E+02 -.351E+02 -.141E+03   0.290E+01 0.591E+00 0.611E+00   0.371E-01 0.518E-02 0.737E-02
   0.765E+02 -.625E+02 -.962E+02   -.799E+02 0.640E+02 0.971E+02   0.326E+01 -.175E+01 -.304E+00   0.124E-02 -.136E-01 0.317E-02
   -.157E+02 0.594E+02 0.222E+03   0.159E+02 -.623E+02 -.224E+03   -.405E+00 0.353E+01 0.204E+01   -.140E-01 0.230E-01 0.198E-01
   -.713E+02 -.204E+02 0.106E+03   0.746E+02 0.218E+02 -.108E+03   -.324E+01 -.163E+01 0.127E+01   -.946E-03 0.740E-02 0.436E-02
   0.451E+02 -.299E+02 -.371E+02   -.452E+02 0.294E+02 0.375E+02   0.636E+00 0.248E+01 0.864E+00   0.778E-02 0.118E-01 0.315E-02
   0.274E+02 -.183E+02 -.544E+02   -.265E+02 0.184E+02 0.542E+02   -.284E+01 -.191E+01 0.464E+00   0.120E-02 -.884E-02 0.716E-02
   -.785E+01 -.193E+01 -.662E+02   0.675E+01 0.180E+01 0.664E+02   0.320E+01 -.161E+01 0.315E+00   0.551E-02 -.956E-03 0.190E-02
   -.274E+02 0.197E+02 -.799E+02   0.256E+02 -.181E+02 0.814E+02   0.114E+01 -.191E+01 -.124E+01   0.601E-02 -.130E-01 -.833E-02
   -.380E+01 0.239E+02 0.524E+02   0.380E+01 -.279E+02 -.524E+02   0.830E-01 0.354E+01 -.648E+00   0.408E-02 -.133E-01 0.123E-01
   0.361E+02 0.179E+02 -.717E+02   -.343E+02 -.162E+02 0.734E+02   -.127E+01 -.233E+01 -.848E+00   0.204E-01 0.143E-01 0.822E-02
   -.423E+01 -.175E+02 -.168E+02   0.454E+01 0.160E+02 0.165E+02   -.148E+00 0.352E+01 -.685E+00   -.180E-01 0.177E-02 0.772E-03
   0.416E+02 0.316E+02 0.214E+03   -.409E+02 -.313E+02 -.214E+03   -.302E+01 -.136E+01 -.905E+00   -.207E-01 0.569E-02 0.811E-02
   -.134E+02 0.241E+02 0.965E+02   0.126E+02 -.244E+02 -.963E+02   0.320E+01 -.131E+01 -.507E+00   -.370E-01 0.150E-01 0.553E-02
   0.739E+02 -.191E+02 0.732E+02   -.773E+02 0.205E+02 -.741E+02   0.327E+01 -.172E+01 0.666E+00   0.702E-02 -.854E-02 0.720E-02
   0.329E+01 0.844E+02 0.238E+03   -.269E+01 -.873E+02 -.240E+03   -.704E-01 0.338E+01 0.193E+01   0.119E-01 0.100E-01 0.486E-02
   -.729E+02 -.660E+02 -.109E+03   0.764E+02 0.675E+02 0.110E+03   -.322E+01 -.169E+01 -.510E+00   -.770E-02 -.229E-01 0.516E-02
   -.379E+02 -.287E+02 -.157E+03   0.374E+02 0.288E+02 0.157E+03   -.345E+00 0.249E+01 0.929E+00   -.637E-02 -.121E-01 -.582E-02
   0.114E+02 -.357E+01 -.121E+03   -.106E+02 0.343E+01 0.121E+03   -.328E+01 -.152E+01 0.561E+00   -.967E-02 -.137E-01 0.156E-02
   -.303E+02 -.135E+02 -.989E+02   0.297E+02 0.136E+02 0.987E+02   0.283E+01 -.202E+01 0.992E+00   0.409E-02 -.227E-01 0.621E-02
   0.815E+02 -.783E+02 0.154E+03   -.840E+02 0.814E+02 -.154E+03   0.326E+01 -.233E+01 0.258E+00   0.596E-02 0.159E-01 0.836E-02
   -.119E+02 0.487E+02 -.209E+03   0.120E+02 -.525E+02 0.211E+03   -.607E-01 0.379E+01 -.164E+01   -.651E-02 0.246E-02 -.248E-02
   -.945E+02 -.286E+02 -.670E+02   0.975E+02 0.300E+02 0.685E+02   -.359E+01 -.115E+01 -.128E+01   -.348E-01 -.158E-01 -.649E-02
   -.159E+02 0.412E+02 0.188E+03   0.165E+02 -.422E+02 -.191E+03   -.348E+00 0.130E+01 0.290E+01   0.532E-01 0.217E-01 0.146E-01
   -.222E+03 -.377E+02 0.251E+03   0.259E+03 0.575E+02 -.266E+03   -.313E+02 -.165E+02 0.126E+02   0.763E-02 0.244E-01 0.709E-02
   0.179E+03 -.174E+03 -.266E+03   -.215E+03 0.193E+03 0.280E+03   0.308E+02 -.164E+02 -.107E+02   0.101E-02 -.131E-01 0.456E-02
   0.581E+01 0.195E+03 0.442E+03   -.276E+01 -.230E+03 -.470E+03   -.216E+01 0.290E+02 0.223E+02   -.297E-01 0.382E-01 0.271E-01
   -.402E+02 0.159E+03 0.467E+03   0.380E+02 -.191E+03 -.498E+03   0.205E+01 0.274E+02 0.252E+02   0.112E-01 0.355E-01 0.333E-01
   0.221E+03 -.113E+03 -.125E+03   -.256E+03 0.137E+03 0.126E+03   0.298E+02 -.195E+02 -.414E-01   -.179E-01 0.492E-02 0.915E-03
   -.167E+03 -.914E+02 0.284E+03   0.203E+03 0.103E+03 -.308E+03   -.303E+02 -.984E+01 0.196E+02   0.119E-02 -.769E-03 0.603E-02
   -.503E+01 -.215E+01 -.270E+02   0.535E+01 0.195E+01 0.284E+02   -.196E+00 0.920E-01 -.104E+01   -.120E-02 -.233E-02 0.483E-02
   0.177E+02 -.250E+02 -.108E+03   -.178E+02 0.259E+02 0.113E+03   0.239E+00 -.763E+00 -.399E+01   0.861E-02 -.115E-02 0.635E-02
   -.406E+01 -.689E+02 -.339E+03   0.297E+02 0.853E+02 0.368E+03   -.221E+02 -.137E+02 -.235E+02   0.284E-01 0.116E-01 0.715E-02
   0.110E+02 0.750E+02 -.853E+02   -.346E+02 -.707E+02 0.978E+02   0.191E+02 -.415E+01 -.105E+02   0.108E-01 0.125E-01 0.669E-02
   -.183E+02 0.131E+03 0.138E+03   0.217E+02 -.171E+03 -.151E+03   -.254E+01 0.339E+02 0.982E+01   -.323E-03 -.301E-01 0.152E-01
   -.597E+00 0.128E+03 0.155E+03   -.187E+01 -.168E+03 -.167E+03   0.172E+01 0.337E+02 0.990E+01   0.133E-01 -.190E-01 0.174E-01
   0.484E+02 -.674E+02 -.372E+03   -.794E+02 0.844E+02 0.395E+03   0.266E+02 -.142E+02 -.177E+02   -.165E-01 -.277E-01 -.126E-01
   -.371E+01 0.857E+02 -.120E+03   0.252E+02 -.821E+02 0.138E+03   -.175E+02 -.357E+01 -.142E+02   0.491E-01 0.293E-01 0.242E-01
   0.548E+02 0.201E+02 0.840E+02   -.602E+02 -.238E+02 -.840E+02   0.397E+01 0.282E+01 -.370E+00   0.154E-01 0.249E-01 0.133E-01
   0.162E+02 0.440E+02 0.167E+03   -.185E+02 -.459E+02 -.172E+03   0.197E+01 0.160E+01 0.402E+01   -.578E-01 0.170E-01 0.666E-02
   -.218E+03 -.119E+03 -.137E+03   0.254E+03 0.142E+03 0.139E+03   -.301E+02 -.186E+02 -.925E+00   -.490E-02 -.156E-01 0.113E-01
   0.171E+03 -.778E+02 0.220E+03   -.208E+03 0.889E+02 -.241E+03   0.313E+02 -.952E+01 0.166E+02   -.125E-02 -.246E-01 0.119E-01
   0.108E+02 0.184E+03 0.483E+03   -.569E+01 -.217E+03 -.512E+03   -.449E+01 0.283E+02 0.230E+02   0.364E-01 -.227E-02 -.327E-02
   0.299E+01 0.268E+03 0.402E+03   -.506E+01 -.309E+03 -.416E+03   0.107E+01 0.339E+02 0.108E+02   -.233E-02 -.112E-01 -.464E-02
   0.223E+03 -.391E+02 0.152E+03   -.261E+03 0.605E+02 -.160E+03   0.318E+02 -.176E+02 0.621E+01   0.200E-01 0.497E-03 0.844E-02
   -.163E+03 -.179E+03 -.327E+03   0.197E+03 0.198E+03 0.344E+03   -.294E+02 -.162E+02 -.138E+02   0.347E-03 -.314E-01 0.648E-02
   0.887E+00 -.365E+02 -.143E+02   -.768E+00 0.380E+02 0.115E+02   -.148E+00 -.112E+01 0.216E+01   -.220E-02 -.235E-01 0.961E-02
   -.171E+02 -.284E+02 -.211E+03   0.167E+02 0.309E+02 0.218E+03   0.158E+00 -.204E+01 -.535E+01   -.575E-02 -.180E-01 0.316E-03
   -.255E+03 -.748E+02 -.104E+03   0.292E+03 0.965E+02 0.105E+03   -.307E+02 -.183E+02 -.113E+01   -.298E-01 -.206E-01 -.540E-02
   0.202E+03 -.168E+03 0.341E+03   -.239E+03 0.187E+03 -.350E+03   0.308E+02 -.164E+02 0.661E+01   -.255E-01 0.181E-01 0.730E-02
   -.305E+00 0.170E+03 -.430E+03   0.571E+01 -.203E+03 0.458E+03   -.431E+01 0.286E+02 -.228E+02   0.241E-02 0.345E-02 -.166E-02
   -.392E+02 0.131E+03 -.483E+03   0.376E+02 -.162E+03 0.516E+03   0.128E+01 0.269E+02 -.262E+02   -.179E-01 -.322E-02 -.588E-02
   0.213E+03 -.146E+03 0.264E+03   -.243E+03 0.172E+03 -.279E+03   0.243E+02 -.225E+02 0.122E+02   0.790E-02 0.199E-01 0.883E-02
   -.191E+03 -.837E+02 -.207E+03   0.230E+03 0.941E+02 0.225E+03   -.321E+02 -.950E+01 -.141E+02   -.532E-01 -.419E-02 -.794E-02
   -.515E+02 0.233E+02 0.495E+02   0.554E+02 -.264E+02 -.526E+02   -.273E+01 0.216E+01 0.212E+01   -.149E-01 -.930E-02 -.212E-02
   0.517E+02 -.128E+03 -.111E+04   -.534E+02 0.148E+03 0.114E+04   0.136E+01 -.187E+02 -.239E+02   0.108E+00 0.255E-02 -.738E-01
 -----------------------------------------------------------------------------------------------
   0.302E+01 -.383E+01 0.309E+01   -.782E-13 -.227E-12 -.114E-11   -.311E+01 0.383E+01 -.331E+01   0.920E-01 -.720E-03 0.251E+00
 
 
 POSITION                                       TOTAL-FORCE (eV/Angst)
 -----------------------------------------------------------------------------------
     -0.01376      2.27883      5.88521        -0.020864      2.602464     -0.886273
      1.12296      4.23900      5.97758        -2.890013      0.287263     -0.001505
     -1.17290      4.19710      5.89657         2.806691      0.297326      0.301599
      5.29063      0.60838      6.97857        -0.108610     -0.287095      0.540203
      3.20901      4.23785      5.69285        -0.191083      0.657329     -0.462496
      1.09103      0.54779      6.19180         0.039398     -0.217474     -0.241113
     -3.30594      7.64294      6.67784         0.532821      2.055921      1.262311
     -2.04657      9.52681      6.91658        -1.967178     -1.812849      0.303195
     -4.30822      9.61465      6.87413         2.104569     -1.739674      0.497671
      2.21338      5.82056      6.92627        -0.664989     -0.382482      0.319295
      0.03626      9.44623      6.74779         0.090005     -0.468484     -0.621607
     -2.34525      5.81756      6.63326         0.557801     -0.640058      0.911334
      6.42764      2.29048      6.52332         0.141586      2.025502     -1.052508
      7.45557      4.05590      5.51838        -2.290934     -0.987927     -0.533098
      5.26270      4.13564      6.00937         2.359033     -1.609895     -0.368532
     11.63260      0.39783      6.35766        -0.137870     -0.358658     -0.254870
      9.51954      3.99381      5.43554         0.548635      0.448542     -0.656581
      7.51413      0.59634      7.06604         0.287812     -0.117893      0.493995
      3.28125      7.54443      7.33123        -0.919872      2.483249      1.234247
      4.34566      9.51567      7.21575        -2.411058     -1.672778      1.235384
      2.07853      9.49579      7.19431         2.250818     -1.894776      0.858088
      8.36628      5.89120      5.80303         0.810336      0.800428     -0.190430
      6.41256      9.53464      7.37837         0.003365     -0.008046      0.773205
      4.38089      5.85883      6.76007        -0.552083      0.269834      0.264097
     -0.01321      3.58007      5.86539         0.224512      0.398977     -0.467692
      1.07306      1.70306      5.80914         5.714917      3.362561     -2.758994
      4.27116     -0.03957      7.20578        -5.593495      3.211370      3.498830
      4.27320      3.70261      5.41493         0.875646     -5.344718     -5.286797
      2.09308      3.82098      5.37859        -0.239536     -4.392588     -5.792958
      5.31458      1.81286      6.80549        -5.626127      4.700614      0.853261
     -4.27135     10.60496      6.16386         5.633017      1.671555     -4.734019
      0.01548      0.01968      6.66322         0.121007     -0.112402      0.321597
     -3.19404      8.91050      6.90358         0.186018      0.118322      1.014566
     -2.40234      6.91929      7.14547         3.532271      2.719015      5.701349
      1.12245      5.22614      6.78340        -4.446585      0.192921      2.011577
      1.11430      8.85061      6.75818         0.895489     -6.419132     -2.750174
     -1.03915      8.86477      6.61536        -0.757807     -6.394038     -2.762825
      2.22887      6.88498      7.51871        -4.391469      2.823589      4.970162
     -1.27470      5.17896      6.69460         4.041024      0.021533      3.181462
      9.42992      5.16283      6.01663        -1.380832     -0.912937     -0.278276
      6.39711      3.43521      5.92458        -0.433312     -0.276630     -1.184003
      7.52301      1.79616      6.83428         5.759687      4.525149      0.545556
      4.25495     10.46620      6.45632        -5.882114      1.496867     -4.388572
     -2.07695      3.74348      5.22747         0.641274     -4.638743     -5.790652
      8.47446      3.40671      5.23749        -1.014485     -6.930745     -3.152866
     11.62095      1.55825      6.00481        -5.920177      3.757932     -1.442084
      8.48527     -0.06095      7.44484         5.097746      3.281253      4.065501
      6.40500     -0.04681      6.87667        -0.033140      0.412237     -0.673851
      3.21157      8.83767      7.37195        -0.278453      0.356822      1.392613
      4.36343      7.04214      7.07201         6.226638      3.440160      0.158079
      7.37131      5.30552      5.46130        -6.610907      2.322022     -3.235162
     -5.23006      9.17508      7.57175         1.106759     -5.203992      5.168740
      5.34224      9.09952      7.81149        -0.359144     -4.191027      6.119479
     -4.25878      7.28633      5.99686        -4.956771      4.304368     -3.265381
      5.37320      5.16880      6.67673         6.628315      0.903309      3.479926
      3.24458      5.31038      6.44683         1.057856     -0.903966     -1.013379
     -0.12323      6.32884      7.69757        -0.196134      1.970574      2.769373
 -----------------------------------------------------------------------------------
    total drift:                                0.005276     -0.002764      0.031120


--------------------------------------------------------------------------------------------------------



  FREE ENERGIE OF THE ION-ELECTRON SYSTEM (eV)
  ---------------------------------------------------
  free  energy   TOTEN  =      -451.78881788 eV

  energy  without entropy=     -451.78881788  energy(sigma->0) =     -451.78881788
 


--------------------------------------------------------------------------------------------------------


    POTLOK:  cpu time    0.0729: real time    0.0732


--------------------------------------------------------------------------------------------------------


 stress matrix after NEB project (eV)
    354.85776     -6.55277      9.72131
     -6.55277    317.65032     17.47370
      9.72131     17.47370     67.44879
  FORCES: max atom, RMS     7.717652    4.893427
  FORCE total and by dimension   36.944565    6.930745
  Stress total and by dimension  481.934269  354.857759
     LOOP+:  cpu time  122.9680: real time  125.9878
    4ORBIT:  cpu time    0.0000: real time    0.0000
 


 total charge     
 
# of ion       s       p       d       tot
------------------------------------------
    1        0.936   2.027   0.000   2.963
    2        0.920   2.007   0.000   2.926
    3        0.923   2.016   0.000   2.939
    4        0.949   2.042   0.000   2.991
    5        0.937   2.035   0.000   2.972
    6        0.954   2.054   0.000   3.008
    7        0.936   2.020   0.000   2.957
    8        0.934   2.013   0.000   2.947
    9        0.941   2.016   0.000   2.957
   10        0.957   2.080   0.000   3.037
   11        0.951   2.046   0.000   2.997
   12        0.963   2.092   0.000   3.055
   13        0.933   2.013   0.000   2.947
   14        0.929   2.016   0.000   2.944
   15        0.926   2.016   0.000   2.942
   16        0.956   2.060   0.000   3.016
   17        0.940   2.047   0.000   2.987
   18        0.945   2.039   0.000   2.984
   19        0.934   2.016   0.000   2.951
   20        0.937   2.012   0.000   2.949
   21        0.930   2.004   0.000   2.934
   22        0.946   2.042   0.000   2.988
   23        0.946   2.028   0.000   2.974
   24        0.952   2.061   0.000   3.013
   25        1.264   2.982   0.000   4.245
   26        1.313   2.895   0.000   4.208
   27        1.309   2.890   0.000   4.199
   28        1.310   2.858   0.000   4.168
   29        1.311   2.882   0.000   4.193
   30        1.307   2.885   0.000   4.193
   31        1.319   2.886   0.000   4.205
   32        1.289   3.022   0.000   4.311
   33        1.276   2.999   0.000   4.275
   34        1.307   2.900   0.000   4.207
   35        1.285   2.909   0.000   4.194
   36        1.305   2.882   0.000   4.187
   37        1.304   2.882   0.000   4.185
   38        1.303   2.890   0.000   4.193
   39        1.287   2.915   0.000   4.202
   40        1.290   3.039   0.000   4.328
   41        1.272   2.981   0.000   4.253
   42        1.305   2.874   0.000   4.178
   43        1.317   2.893   0.000   4.210
   44        1.311   2.883   0.000   4.194
   45        1.310   2.861   0.000   4.171
   46        1.313   2.901   0.000   4.214
   47        1.308   2.880   0.000   4.189
   48        1.286   3.025   0.000   4.311
   49        1.269   2.964   0.000   4.233
   50        1.313   2.894   0.000   4.208
   51        1.309   2.882   0.000   4.191
   52        1.307   2.867   0.000   4.175
   53        1.309   2.871   0.000   4.180
   54        1.305   2.877   0.000   4.182
   55        1.318   2.878   0.000   4.196
   56        1.288   3.031   0.000   4.318
   57        1.318   0.931  10.127  12.375
--------------------------------------------------
tot         65.513 143.013  10.127 218.652
 


 magnetization (x)
 
# of ion       s       p       d       tot
------------------------------------------
    1       -0.000  -0.000   0.000  -0.000
    2        0.000   0.000   0.000   0.000
    3       -0.000  -0.000   0.000  -0.000
    4       -0.000  -0.000   0.000  -0.000
    5        0.000   0.000   0.000   0.000
    6       -0.000  -0.000   0.000  -0.000
    7       -0.000  -0.000   0.000  -0.000
    8       -0.000  -0.000   0.000  -0.000
    9       -0.000  -0.000   0.000  -0.000
   10       -0.000  -0.000   0.000  -0.000
   11       -0.000   0.000   0.000   0.000
   12       -0.000   0.000   0.000   0.000
   13       -0.000  -0.000   0.000  -0.000
   14       -0.000  -0.000   0.000  -0.000
   15        0.000   0.000   0.000   0.000
   16       -0.000   0.000   0.000   0.000
   17       -0.000  -0.000   0.000  -0.000
   18       -0.000  -0.000   0.000  -0.000
   19        0.000   0.000   0.000   0.000
   20       -0.000  -0.000   0.000  -0.000
   21       -0.000   0.000   0.000   0.000
   22       -0.000  -0.000   0.000  -0.000
   23       -0.000  -0.000   0.000  -0.000
   24        0.000   0.000   0.000   0.000
   25        0.000   0.000   0.000   0.000
   26       -0.000   0.000   0.000   0.000
   27        0.000  -0.000   0.000  -0.000
   28       -0.000  -0.000   0.000  -0.000
   29       -0.000  -0.000   0.000  -0.000
   30        0.000  -0.000   0.000  -0.000
   31        0.000   0.000   0.000   0.000
   32        0.000   0.000   0.000   0.000
   33        0.000   0.000   0.000   0.000
   34       -0.000  -0.000   0.000  -0.000
   35        0.000   0.000   0.000   0.000
   36       -0.000  -0.000   0.000  -0.000
   37       -0.000  -0.000   0.000  -0.000
   38        0.000   0.000   0.000   0.000
   39        0.000   0.000   0.000   0.000
   40       -0.000  -0.000   0.000  -0.000
   41        0.000   0.000   0.000   0.000
   42        0.000   0.000   0.000   0.000
   43        0.000   0.000   0.000   0.000
   44        0.000   0.000   0.000   0.000
   45        0.000   0.000   0.000   0.000
   46       -0.000   0.000   0.000   0.000
   47        0.000   0.000   0.000   0.000
   48        0.000  -0.000   0.000  -0.000
   49        0.000   0.000   0.000   0.000
   50       -0.000  -0.000   0.000  -0.000
   51        0.000   0.000   0.000   0.000
   52        0.000  -0.000   0.000  -0.000
   53        0.000   0.000   0.000   0.000
   54        0.000   0.000   0.000   0.000
   55        0.000   0.000   0.000   0.000
   56        0.000   0.000   0.000   0.000
   57       -0.000   0.000   0.000   0.000
--------------------------------------------------
tot          0.000   0.000   0.000   0.000
 
 BZINTS: Fermi energy: -1.080520;270.000000 electrons
         Band energy:***********;  BLOECHL correction:  0.000000

 total amount of memory used by VASP MPI-rank0    72433. kBytes
=======================================================================

   base      :      30000. kBytes
   nonl-proj :      10051. kBytes
   fftplans  :       2745. kBytes
   grid      :       7145. kBytes
   one-center:        155. kBytes
   wavefun   :      22337. kBytes
 
  
  
 General timing and accounting informations for this job:
 ========================================================
  
                  Total CPU time used (sec):      135.123
                            User time (sec):      129.480
                          System time (sec):        5.644
                         Elapsed time (sec):      146.792
  
                   Maximum memory used (kb):      434136.
                   Average memory used (kb):           0.
  
                          Minor page faults:       732535
                          Major page faults:            0
                 Voluntary context switches:         8159
