  71  71   0   0
  0.4011563E+02  0.1487831E-08  0.1477209E-08  0.1500000E-08  0.3000000E-15
  1.000000000000000E-004
  CAR 
 unknown system                          
      5.28138523    -48.68210065  301     -2.22084847      1.00000000
    -48.682  0.0000E+00  0.0000E+00  0.0000E+00  0.0000E+00
    -48.502  0.0000E+00  0.0000E+00  0.0000E+00  0.0000E+00
    -48.322  0.0000E+00  0.0000E+00  0.0000E+00  0.0000E+00
    -48.142  0.0000E+00  0.0000E+00  0.0000E+00  0.0000E+00
    -47.963  0.0000E+00  0.0000E+00  0.0000E+00  0.0000E+00
    -47.783  0.0000E+00  0.0000E+00  0.0000E+00  0.0000E+00
    -47.603  0.0000E+00  0.0000E+00  0.0000E+00  0.0000E+00
    -47.423  0.0000E+00  0.0000E+00  0.0000E+00  0.0000E+00
    -47.243  0.0000E+00  0.0000E+00  0.0000E+00  0.0000E+00
    -47.063  0.0000E+00  0.0000E+00  0.0000E+00  0.0000E+00
    -46.883  0.0000E+00  0.0000E+00  0.0000E+00  0.0000E+00
    -46.703  0.1385E-12  0.0000E+00  0.2491E-13  0.0000E+00
    -46.524  0.2186E-06  0.0000E+00  0.3932E-07  0.0000E+00
    -46.344  0.7329E-03  0.0000E+00  0.1319E-03  0.0000E+00
    -46.164  0.1101E-01  0.0000E+00  0.2112E-02  0.0000E+00
    -45.984  0.1286E-01  0.0000E+00  0.4425E-02  0.0000E+00
    -45.804  0.1502E-01  0.0000E+00  0.7128E-02  0.0000E+00
    -45.624  0.2066E-02  0.0000E+00  0.7500E-02  0.0000E+00
    -45.444  0.2299E-05  0.0000E+00  0.7500E-02  0.0000E+00
    -45.264  0.5966E-11  0.0000E+00  0.7500E-02  0.0000E+00
    -45.085  0.0000E+00  0.0000E+00  0.7500E-02  0.0000E+00
    -44.905  0.0000E+00  0.0000E+00  0.7500E-02  0.0000E+00
    -44.725  0.0000E+00  0.0000E+00  0.7500E-02  0.0000E+00
    -44.545  0.0000E+00  0.0000E+00  0.7500E-02  0.0000E+00
    -44.365  0.0000E+00  0.0000E+00  0.7500E-02  0.0000E+00
    -44.185  0.0000E+00  0.0000E+00  0.7500E-02  0.0000E+00
    -44.005  0.0000E+00  0.1405E-10  0.7500E-02  0.2528E-11
    -43.825  0.0000E+00  0.3865E-05  0.7500E-02  0.6952E-06
    -43.646  0.0000E+00  0.2524E-02  0.7500E-02  0.4547E-03
    -43.466  0.0000E+00  0.1134E-01  0.7500E-02  0.2494E-02
    -43.286  0.0000E+00  0.1133E-01  0.7500E-02  0.4532E-02
    -43.106  0.0000E+00  0.5849E-02  0.7500E-02  0.5584E-02
    -42.926  0.0000E+00  0.1017E-01  0.7500E-02  0.7414E-02
    -42.746  0.0000E+00  0.4802E-03  0.7500E-02  0.7500E-02
    -42.566  0.0000E+00  0.8975E-07  0.7500E-02  0.7500E-02
    -42.386  0.0000E+00  0.3479E-13  0.7500E-02  0.7500E-02
    -42.206  0.0000E+00  0.0000E+00  0.7500E-02  0.7500E-02
    -42.027  0.0000E+00  0.0000E+00  0.7500E-02  0.7500E-02
    -41.847  0.0000E+00  0.0000E+00  0.7500E-02  0.7500E-02
    -41.667  0.0000E+00  0.0000E+00  0.7500E-02  0.7500E-02
    -41.487  0.0000E+00  0.0000E+00  0.7500E-02  0.7500E-02
    -41.307  0.0000E+00  0.0000E+00  0.7500E-02  0.7500E-02
    -41.127  0.0000E+00  0.0000E+00  0.7500E-02  0.7500E-02
    -40.947  0.0000E+00  0.0000E+00  0.7500E-02  0.7500E-02
    -40.767  0.0000E+00  0.0000E+00  0.7500E-02  0.7500E-02
    -40.588  0.0000E+00  0.0000E+00  0.7500E-02  0.7500E-02
    -40.408  0.0000E+00  0.0000E+00  0.7500E-02  0.7500E-02
    -40.228  0.0000E+00  0.0000E+00  0.7500E-02  0.7500E-02
    -40.048  0.0000E+00  0.0000E+00  0.7500E-02  0.7500E-02
    -39.868  0.0000E+00  0.0000E+00  0.7500E-02  0.7500E-02
    -39.688  0.0000E+00  0.0000E+00  0.7500E-02  0.7500E-02
    -39.508  0.0000E+00  0.0000E+00  0.7500E-02  0.7500E-02
    -39.328  0.0000E+00  0.0000E+00  0.7500E-02  0.7500E-02
    -39.149  0.0000E+00  0.0000E+00  0.7500E-02  0.7500E-02
    -38.969  0.0000E+00  0.0000E+00  0.7500E-02  0.7500E-02
    -38.789  0.0000E+00  0.0000E+00  0.7500E-02  0.7500E-02
    -38.609  0.0000E+00  0.0000E+00  0.7500E-02  0.7500E-02
    -38.429  0.0000E+00  0.0000E+00  0.7500E-02  0.7500E-02
    -38.249  0.0000E+00  0.0000E+00  0.7500E-02  0.7500E-02
    -38.069  0.0000E+00  0.0000E+00  0.7500E-02  0.7500E-02
    -37.889  0.0000E+00  0.0000E+00  0.7500E-02  0.7500E-02
    -37.710  0.0000E+00  0.0000E+00  0.7500E-02  0.7500E-02
    -37.530  0.0000E+00  0.0000E+00  0.7500E-02  0.7500E-02
    -37.350  0.0000E+00  0.0000E+00  0.7500E-02  0.7500E-02
    -37.170  0.0000E+00  0.0000E+00  0.7500E-02  0.7500E-02
    -36.990  0.0000E+00  0.0000E+00  0.7500E-02  0.7500E-02
    -36.810  0.0000E+00  0.0000E+00  0.7500E-02  0.7500E-02
    -36.630  0.0000E+00  0.0000E+00  0.7500E-02  0.7500E-02
    -36.450  0.0000E+00  0.0000E+00  0.7500E-02  0.7500E-02
    -36.270  0.0000E+00  0.0000E+00  0.7500E-02  0.7500E-02
    -36.091  0.0000E+00  0.0000E+00  0.7500E-02  0.7500E-02
    -35.911  0.0000E+00  0.0000E+00  0.7500E-02  0.7500E-02
    -35.731  0.0000E+00  0.0000E+00  0.7500E-02  0.7500E-02
    -35.551  0.0000E+00  0.0000E+00  0.7500E-02  0.7500E-02
    -35.371  0.0000E+00  0.0000E+00  0.7500E-02  0.7500E-02
    -35.191  0.0000E+00  0.0000E+00  0.7500E-02  0.7500E-02
    -35.011  0.0000E+00  0.0000E+00  0.7500E-02  0.7500E-02
    -34.831  0.0000E+00  0.0000E+00  0.7500E-02  0.7500E-02
    -34.652  0.0000E+00  0.0000E+00  0.7500E-02  0.7500E-02
    -34.472  0.0000E+00  0.0000E+00  0.7500E-02  0.7500E-02
    -34.292  0.0000E+00  0.0000E+00  0.7500E-02  0.7500E-02
    -34.112  0.0000E+00  0.0000E+00  0.7500E-02  0.7500E-02
    -33.932  0.0000E+00  0.0000E+00  0.7500E-02  0.7500E-02
    -33.752  0.0000E+00  0.0000E+00  0.7500E-02  0.7500E-02
    -33.572  0.0000E+00  0.0000E+00  0.7500E-02  0.7500E-02
    -33.392  0.0000E+00  0.0000E+00  0.7500E-02  0.7500E-02
    -33.213  0.0000E+00  0.0000E+00  0.7500E-02  0.7500E-02
    -33.033  0.0000E+00  0.0000E+00  0.7500E-02  0.7500E-02
    -32.853  0.0000E+00  0.0000E+00  0.7500E-02  0.7500E-02
    -32.673  0.0000E+00  0.0000E+00  0.7500E-02  0.7500E-02
    -32.493  0.0000E+00  0.0000E+00  0.7500E-02  0.7500E-02
    -32.313  0.0000E+00  0.0000E+00  0.7500E-02  0.7500E-02
    -32.133  0.0000E+00  0.0000E+00  0.7500E-02  0.7500E-02
    -31.953  0.0000E+00  0.0000E+00  0.7500E-02  0.7500E-02
    -31.774  0.0000E+00  0.0000E+00  0.7500E-02  0.7500E-02
    -31.594  0.0000E+00  0.0000E+00  0.7500E-02  0.7500E-02
    -31.414  0.0000E+00  0.0000E+00  0.7500E-02  0.7500E-02
    -31.234  0.0000E+00  0.0000E+00  0.7500E-02  0.7500E-02
    -31.054  0.0000E+00  0.0000E+00  0.7500E-02  0.7500E-02
    -30.874  0.0000E+00  0.0000E+00  0.7500E-02  0.7500E-02
    -30.694  0.0000E+00  0.0000E+00  0.7500E-02  0.7500E-02
    -30.514  0.0000E+00  0.0000E+00  0.7500E-02  0.7500E-02
    -30.335  0.0000E+00  0.0000E+00  0.7500E-02  0.7500E-02
    -30.155  0.0000E+00  0.0000E+00  0.7500E-02  0.7500E-02
    -29.975  0.0000E+00  0.0000E+00  0.7500E-02  0.7500E-02
    -29.795  0.0000E+00  0.0000E+00  0.7500E-02  0.7500E-02
    -29.615  0.0000E+00  0.0000E+00  0.7500E-02  0.7500E-02
    -29.435  0.0000E+00  0.0000E+00  0.7500E-02  0.7500E-02
    -29.255  0.0000E+00  0.0000E+00  0.7500E-02  0.7500E-02
    -29.075  0.0000E+00  0.0000E+00  0.7500E-02  0.7500E-02
    -28.895  0.0000E+00  0.0000E+00  0.7500E-02  0.7500E-02
    -28.716  0.0000E+00  0.0000E+00  0.7500E-02  0.7500E-02
    -28.536  0.0000E+00  0.0000E+00  0.7500E-02  0.7500E-02
    -28.356  0.0000E+00  0.0000E+00  0.7500E-02  0.7500E-02
    -28.176  0.0000E+00  0.0000E+00  0.7500E-02  0.7500E-02
    -27.996  0.0000E+00  0.0000E+00  0.7500E-02  0.7500E-02
    -27.816  0.0000E+00  0.0000E+00  0.7500E-02  0.7500E-02
    -27.636  0.0000E+00  0.0000E+00  0.7500E-02  0.7500E-02
    -27.456  0.0000E+00  0.0000E+00  0.7500E-02  0.7500E-02
    -27.277  0.0000E+00  0.0000E+00  0.7500E-02  0.7500E-02
    -27.097  0.0000E+00  0.0000E+00  0.7500E-02  0.7500E-02
    -26.917  0.0000E+00  0.0000E+00  0.7500E-02  0.7500E-02
    -26.737  0.0000E+00  0.0000E+00  0.7500E-02  0.7500E-02
    -26.557  0.0000E+00  0.0000E+00  0.7500E-02  0.7500E-02
    -26.377  0.0000E+00  0.0000E+00  0.7500E-02  0.7500E-02
    -26.197  0.0000E+00  0.0000E+00  0.7500E-02  0.7500E-02
    -26.017  0.0000E+00  0.0000E+00  0.7500E-02  0.7500E-02
    -25.838  0.0000E+00  0.0000E+00  0.7500E-02  0.7500E-02
    -25.658  0.0000E+00  0.0000E+00  0.7500E-02  0.7500E-02
    -25.478  0.0000E+00  0.0000E+00  0.7500E-02  0.7500E-02
    -25.298  0.0000E+00  0.0000E+00  0.7500E-02  0.7500E-02
    -25.118  0.0000E+00  0.0000E+00  0.7500E-02  0.7500E-02
    -24.938  0.0000E+00  0.0000E+00  0.7500E-02  0.7500E-02
    -24.758  0.0000E+00  0.0000E+00  0.7500E-02  0.7500E-02
    -24.578  0.0000E+00  0.0000E+00  0.7500E-02  0.7500E-02
    -24.399  0.0000E+00  0.0000E+00  0.7500E-02  0.7500E-02
    -24.219  0.0000E+00  0.0000E+00  0.7500E-02  0.7500E-02
    -24.039  0.0000E+00  0.0000E+00  0.7500E-02  0.7500E-02
    -23.859  0.0000E+00  0.0000E+00  0.7500E-02  0.7500E-02
    -23.679  0.0000E+00  0.0000E+00  0.7500E-02  0.7500E-02
    -23.499  0.0000E+00  0.0000E+00  0.7500E-02  0.7500E-02
    -23.319  0.0000E+00  0.0000E+00  0.7500E-02  0.7500E-02
    -23.139  0.7715E-18  0.0000E+00  0.7500E-02  0.7500E-02
    -22.960  0.5010E-10  0.3074E-10  0.7500E-02  0.7500E-02
    -22.780  0.8243E-05  0.6173E-05  0.7501E-02  0.7501E-02
    -22.600  0.3362E-02  0.3020E-02  0.8106E-02  0.8044E-02
    -22.420  0.1008E-01  0.1033E-01  0.9919E-02  0.9903E-02
    -22.240  0.4514E-03  0.5401E-03  0.1000E-01  0.1000E-01
    -22.060  0.7904E-07  0.1146E-06  0.1000E-01  0.1000E-01
    -21.880  0.4273E-07  0.3729E-07  0.1000E-01  0.1000E-01
    -21.700  0.2246E-03  0.2099E-03  0.1004E-01  0.1004E-01
    -21.520  0.8086E-02  0.7928E-02  0.1149E-01  0.1146E-01
    -21.341  0.1308E-01  0.1315E-01  0.1385E-01  0.1383E-01
    -21.161  0.8006E-02  0.7983E-02  0.1529E-01  0.1526E-01
    -20.981  0.1708E-01  0.1709E-01  0.1836E-01  0.1834E-01
    -20.801  0.1231E-01  0.1234E-01  0.2057E-01  0.2056E-01
    -20.621  0.6434E-02  0.6385E-02  0.2173E-01  0.2171E-01
    -20.441  0.1992E-01  0.1993E-01  0.2531E-01  0.2529E-01
    -20.261  0.1575E-01  0.1577E-01  0.2815E-01  0.2813E-01
    -20.081  0.1021E-01  0.1025E-01  0.2998E-01  0.2997E-01
    -19.902  0.6461E-02  0.6527E-02  0.3115E-01  0.3115E-01
    -19.722  0.1549E-01  0.1533E-01  0.3393E-01  0.3391E-01
    -19.542  0.2305E-01  0.2301E-01  0.3808E-01  0.3804E-01
    -19.362  0.1299E-01  0.1316E-01  0.4042E-01  0.4041E-01
    -19.182  0.1012E-01  0.1006E-01  0.4224E-01  0.4222E-01
    -19.002  0.1109E-01  0.1123E-01  0.4423E-01  0.4424E-01
    -18.822  0.9498E-02  0.9531E-02  0.4594E-01  0.4596E-01
    -18.642  0.1454E-01  0.1425E-01  0.4856E-01  0.4852E-01
    -18.463  0.2350E-01  0.2355E-01  0.5278E-01  0.5276E-01
    -18.283  0.1764E-01  0.1763E-01  0.5596E-01  0.5593E-01
    -18.103  0.1222E-01  0.1253E-01  0.5815E-01  0.5818E-01
    -17.923  0.1072E-01  0.1058E-01  0.6008E-01  0.6008E-01
    -17.743  0.6006E-02  0.6043E-02  0.6116E-01  0.6117E-01
    -17.563  0.1527E-01  0.1508E-01  0.6391E-01  0.6388E-01
    -17.383  0.1445E-01  0.1458E-01  0.6651E-01  0.6651E-01
    -17.203  0.2775E-01  0.2757E-01  0.7150E-01  0.7147E-01
    -17.024  0.1688E-01  0.1709E-01  0.7453E-01  0.7454E-01
    -16.844  0.1525E-01  0.1522E-01  0.7728E-01  0.7728E-01
    -16.664  0.1584E-01  0.1577E-01  0.8013E-01  0.8012E-01
    -16.484  0.9916E-02  0.1010E-01  0.8191E-01  0.8193E-01
    -16.304  0.8505E-02  0.8409E-02  0.8344E-01  0.8345E-01
    -16.124  0.1421E-01  0.1429E-01  0.8600E-01  0.8602E-01
    -15.944  0.2345E-01  0.2327E-01  0.9021E-01  0.9020E-01
    -15.764  0.1122E-01  0.1157E-01  0.9223E-01  0.9228E-01
    -15.584  0.6930E-02  0.6983E-02  0.9348E-01  0.9354E-01
    -15.405  0.6310E-02  0.5946E-02  0.9461E-01  0.9461E-01
    -15.225  0.6764E-02  0.6892E-02  0.9583E-01  0.9585E-01
    -15.045  0.1398E-01  0.1385E-01  0.9834E-01  0.9834E-01
    -14.865  0.1684E-01  0.1675E-01  0.1014E+00  0.1014E+00
    -14.685  0.2235E-01  0.2248E-01  0.1054E+00  0.1054E+00
    -14.505  0.1527E-01  0.1540E-01  0.1081E+00  0.1082E+00
    -14.325  0.1327E-01  0.1312E-01  0.1105E+00  0.1105E+00
    -14.145  0.1490E-01  0.1480E-01  0.1132E+00  0.1132E+00
    -13.966  0.1836E-01  0.1849E-01  0.1165E+00  0.1165E+00
    -13.786  0.1609E-01  0.1618E-01  0.1194E+00  0.1194E+00
    -13.606  0.1461E-01  0.1455E-01  0.1220E+00  0.1220E+00
    -13.426  0.1980E-01  0.1986E-01  0.1256E+00  0.1256E+00
    -13.246  0.8381E-02  0.8349E-02  0.1271E+00  0.1271E+00
    -13.066  0.1100E-01  0.1082E-01  0.1291E+00  0.1291E+00
    -12.886  0.8370E-02  0.8473E-02  0.1306E+00  0.1306E+00
    -12.706  0.2295E-01  0.2302E-01  0.1347E+00  0.1347E+00
    -12.527  0.1675E-01  0.1684E-01  0.1377E+00  0.1378E+00
    -12.347  0.5954E-02  0.5821E-02  0.1388E+00  0.1388E+00
    -12.167  0.9033E-02  0.8785E-02  0.1404E+00  0.1404E+00
    -11.987  0.1296E-01  0.1302E-01  0.1428E+00  0.1427E+00
    -11.807  0.2492E-01  0.2489E-01  0.1472E+00  0.1472E+00
    -11.627  0.3378E-01  0.3401E-01  0.1533E+00  0.1533E+00
    -11.447  0.1826E-01  0.1834E-01  0.1566E+00  0.1566E+00
    -11.267  0.3738E-02  0.3571E-02  0.1573E+00  0.1573E+00
    -11.088  0.1426E-01  0.1423E-01  0.1598E+00  0.1598E+00
    -10.908  0.1311E-01  0.1309E-01  0.1622E+00  0.1622E+00
    -10.728  0.1773E-01  0.1753E-01  0.1654E+00  0.1653E+00
    -10.548  0.1727E-01  0.1749E-01  0.1685E+00  0.1685E+00
    -10.368  0.2190E-01  0.2185E-01  0.1724E+00  0.1724E+00
    -10.188  0.2456E-01  0.2466E-01  0.1769E+00  0.1768E+00
    -10.008  0.1887E-01  0.1883E-01  0.1802E+00  0.1802E+00
     -9.828  0.2649E-01  0.2567E-01  0.1850E+00  0.1848E+00
     -9.649  0.3118E-01  0.3124E-01  0.1906E+00  0.1905E+00
     -9.469  0.2752E-01  0.2781E-01  0.1956E+00  0.1955E+00
     -9.289  0.2486E-01  0.2430E-01  0.2000E+00  0.1998E+00
     -9.109  0.3690E-01  0.3696E-01  0.2067E+00  0.2065E+00
     -8.929  0.4142E-01  0.4191E-01  0.2141E+00  0.2140E+00
     -8.749  0.3322E-01  0.3282E-01  0.2201E+00  0.2199E+00
     -8.569  0.4749E-01  0.4744E-01  0.2286E+00  0.2285E+00
     -8.389  0.5262E-01  0.5205E-01  0.2381E+00  0.2378E+00
     -8.209  0.3724E-01  0.3792E-01  0.2448E+00  0.2446E+00
     -8.030  0.3402E-01  0.3364E-01  0.2509E+00  0.2507E+00
     -7.850  0.2570E-01  0.2543E-01  0.2556E+00  0.2553E+00
     -7.670  0.2172E-01  0.2174E-01  0.2595E+00  0.2592E+00
     -7.490  0.2865E-01  0.2879E-01  0.2646E+00  0.2644E+00
     -7.310  0.4073E-01  0.3957E-01  0.2719E+00  0.2715E+00
     -7.130  0.4409E-01  0.4366E-01  0.2799E+00  0.2793E+00
     -6.950  0.2757E-01  0.2867E-01  0.2848E+00  0.2845E+00
     -6.770  0.1985E-01  0.1860E-01  0.2884E+00  0.2878E+00
     -6.591  0.1324E-01  0.1452E-01  0.2908E+00  0.2904E+00
     -6.411  0.1935E-01  0.1724E-01  0.2943E+00  0.2935E+00
     -6.231  0.3910E-01  0.3927E-01  0.3013E+00  0.3006E+00
     -6.051  0.3637E-01  0.3744E-01  0.3078E+00  0.3073E+00
     -5.871  0.2889E-01  0.2755E-01  0.3130E+00  0.3123E+00
     -5.691  0.2265E-01  0.2291E-01  0.3171E+00  0.3164E+00
     -5.511  0.1607E-01  0.1842E-01  0.3200E+00  0.3197E+00
     -5.331  0.1876E-01  0.1447E-01  0.3234E+00  0.3223E+00
     -5.152  0.1306E-01  0.1410E-01  0.3257E+00  0.3249E+00
     -4.972  0.2059E-01  0.1549E-01  0.3294E+00  0.3277E+00
     -4.792  0.4305E-01  0.4337E-01  0.3372E+00  0.3355E+00
     -4.612  0.3289E-01  0.3455E-01  0.3431E+00  0.3417E+00
     -4.432  0.1441E-01  0.1576E-01  0.3457E+00  0.3445E+00
     -4.252  0.1477E-01  0.1109E-01  0.3483E+00  0.3465E+00
     -4.072  0.1409E-01  0.1161E-01  0.3509E+00  0.3486E+00
     -3.892  0.1550E-01  0.1353E-01  0.3537E+00  0.3510E+00
     -3.713  0.1131E-01  0.1818E-01  0.3557E+00  0.3543E+00
     -3.533  0.1505E-01  0.1815E-01  0.3584E+00  0.3576E+00
     -3.353  0.1518E-01  0.9940E-02  0.3611E+00  0.3594E+00
     -3.173  0.1364E-01  0.5963E-02  0.3636E+00  0.3604E+00
     -2.993  0.4174E-02  0.5066E-02  0.3643E+00  0.3613E+00
     -2.813  0.1032E-01  0.2780E-02  0.3662E+00  0.3618E+00
     -2.633  0.4062E-02  0.2157E-03  0.3669E+00  0.3619E+00
     -2.453  0.3769E-02  0.1363E-04  0.3676E+00  0.3619E+00
     -2.274  0.9657E-02  0.2157E-02  0.3693E+00  0.3623E+00
     -2.094  0.6712E-02  0.7669E-02  0.3705E+00  0.3636E+00
     -1.914  0.3283E-02  0.9236E-02  0.3711E+00  0.3653E+00
     -1.734  0.1035E-01  0.1768E-02  0.3730E+00  0.3656E+00
     -1.554  0.9859E-02  0.1957E-04  0.3748E+00  0.3656E+00
     -1.374  0.4662E-02  0.1615E-02  0.3756E+00  0.3659E+00
     -1.194  0.2125E-02  0.2584E-02  0.3760E+00  0.3664E+00
     -1.014  0.5270E-02  0.1073E-01  0.3769E+00  0.3683E+00
     -0.834  0.2100E-01  0.2418E-01  0.3807E+00  0.3727E+00
     -0.655  0.2012E-01  0.2312E-01  0.3843E+00  0.3768E+00
     -0.475  0.1010E-01  0.1873E-01  0.3862E+00  0.3802E+00
     -0.295  0.2134E-01  0.2683E-01  0.3900E+00  0.3850E+00
     -0.115  0.1423E-01  0.2252E-01  0.3926E+00  0.3891E+00
      0.065  0.8677E-02  0.1625E-01  0.3941E+00  0.3920E+00
      0.245  0.2672E-01  0.2015E-01  0.3989E+00  0.3956E+00
      0.425  0.1930E-01  0.3377E-01  0.4024E+00  0.4017E+00
      0.605  0.1412E-01  0.1418E-01  0.4049E+00  0.4042E+00
      0.784  0.1304E-01  0.6464E-02  0.4073E+00  0.4054E+00
      0.964  0.1483E-01  0.9615E-02  0.4099E+00  0.4071E+00
      1.144  0.9122E-02  0.2047E-01  0.4116E+00  0.4108E+00
      1.324  0.2107E-01  0.1594E-01  0.4154E+00  0.4137E+00
      1.504  0.1931E-01  0.1854E-01  0.4188E+00  0.4170E+00
      1.684  0.2599E-01  0.2085E-01  0.4235E+00  0.4208E+00
      1.864  0.2913E-01  0.2778E-01  0.4288E+00  0.4258E+00
      2.044  0.3161E-01  0.3257E-01  0.4344E+00  0.4316E+00
      2.223  0.2670E-01  0.3028E-01  0.4393E+00  0.4371E+00
      2.403  0.1927E-01  0.1719E-01  0.4427E+00  0.4402E+00
      2.583  0.4040E-01  0.4027E-01  0.4500E+00  0.4474E+00
      2.763  0.4641E-01  0.5611E-01  0.4583E+00  0.4575E+00
      2.943  0.9129E-02  0.1357E-01  0.4600E+00  0.4599E+00
      3.123  0.1437E-03  0.3526E-03  0.4600E+00  0.4600E+00
      3.303  0.1631E-07  0.7257E-07  0.4600E+00  0.4600E+00
      3.483  0.4673E-14  0.3924E-13  0.4600E+00  0.4600E+00
      3.662  0.0000E+00  0.0000E+00  0.4600E+00  0.4600E+00
      3.842  0.0000E+00  0.0000E+00  0.4600E+00  0.4600E+00
      4.022  0.0000E+00  0.0000E+00  0.4600E+00  0.4600E+00
      4.202  0.0000E+00  0.0000E+00  0.4600E+00  0.4600E+00
      4.382  0.0000E+00  0.0000E+00  0.4600E+00  0.4600E+00
      4.562  0.0000E+00  0.0000E+00  0.4600E+00  0.4600E+00
      4.742  0.0000E+00  0.0000E+00  0.4600E+00  0.4600E+00
      4.922  0.0000E+00  0.0000E+00  0.4600E+00  0.4600E+00
      5.102  0.0000E+00  0.0000E+00  0.4600E+00  0.4600E+00
      5.281  0.0000E+00  0.0000E+00  0.4600E+00  0.4600E+00
