       N       E                     dE             d eps       ncg     rms          rms(c)
DAV:   1     0.274431106983E+04    0.27443E+04   -0.11731E+05  3248   0.127E+03
DAV:   2    -0.172049424891E+03   -0.29164E+04   -0.27870E+04  4296   0.296E+02
DAV:   3    -0.686496460361E+03   -0.51445E+03   -0.51155E+03  3560   0.129E+02
DAV:   4    -0.706069139887E+03   -0.19573E+02   -0.19424E+02  3552   0.313E+01
DAV:   5    -0.706689091632E+03   -0.61995E+00   -0.61824E+00  4016   0.480E+00    0.467E+01
RMM:   6    -0.736838843669E+03   -0.30150E+02   -0.53451E+02  4157   0.400E+01    0.875E+01
RMM:   7    -0.665852217111E+03    0.70987E+02   -0.52708E+01  3001   0.147E+01    0.359E+01
RMM:   8    -0.666158698001E+03   -0.30648E+00   -0.21419E+01  3156   0.728E+00    0.295E+01
RMM:   9    -0.649335687674E+03    0.16823E+02   -0.21232E+01  2967   0.857E+00    0.150E+01
RMM:  10    -0.650218315096E+03   -0.88263E+00   -0.64340E+00  2986   0.431E+00    0.164E+01
RMM:  11    -0.648544670963E+03    0.16736E+01   -0.32764E-01  3309   0.103E+00    0.115E+01
RMM:  12    -0.648147897157E+03    0.39677E+00   -0.22012E-01  3045   0.713E-01    0.798E+00
RMM:  13    -0.648368666246E+03   -0.22077E+00   -0.85804E-02  2981   0.520E-01    0.785E+00
RMM:  14    -0.648386882965E+03   -0.18217E-01   -0.18805E-01  2964   0.540E-01    0.597E+00
RMM:  15    -0.648327485745E+03    0.59397E-01   -0.18232E-01  2973   0.508E-01    0.606E+00
RMM:  16    -0.648336754427E+03   -0.92687E-02   -0.26377E-02  3420   0.169E-01    0.622E+00
RMM:  17    -0.648368391797E+03   -0.31637E-01   -0.47986E-03  3198   0.817E-02    0.661E+00
RMM:  18    -0.648379447439E+03   -0.11056E-01   -0.44349E-03  2977   0.104E-01    0.673E+00
RMM:  19    -0.648081650271E+03    0.29780E+00   -0.55203E-01  2958   0.114E+00    0.512E+00
RMM:  20    -0.647466613043E+03    0.61504E+00   -0.84778E-01  3002   0.148E+00    0.672E+00
RMM:  21    -0.647486447854E+03   -0.19835E-01   -0.84880E-02  3755   0.335E-01    0.674E+00
RMM:  22    -0.647491774144E+03   -0.53263E-02   -0.13568E-02  3716   0.976E-02    0.690E+00
RMM:  23    -0.647850351132E+03   -0.35858E+00   -0.73948E-02  2971   0.430E-01    0.743E+00
RMM:  24    -0.648001833932E+03   -0.15148E+00   -0.47742E-02  2980   0.327E-01    0.736E+00
RMM:  25    -0.648259850771E+03   -0.25802E+00   -0.41885E-01  2960   0.921E-01    0.546E+00
RMM:  26    -0.648409188603E+03   -0.14934E+00   -0.13208E-01  3067   0.473E-01    0.563E+00
RMM:  27    -0.648640234525E+03   -0.23105E+00   -0.42938E-01  2970   0.928E-01    0.762E+00
RMM:  28    -0.648736622970E+03   -0.96388E-01   -0.17699E-01  3082   0.566E-01    0.812E+00
RMM:  29    -0.648732277147E+03    0.43458E-02   -0.89034E-02  3153   0.467E-01    0.819E+00
RMM:  30    -0.648665521545E+03    0.66756E-01   -0.48926E-02  3015   0.317E-01    0.765E+00
RMM:  31    -0.648354930931E+03    0.31059E+00   -0.10660E-01  2959   0.568E-01    0.643E+00
RMM:  32    -0.648324432597E+03    0.30498E-01   -0.64403E-02  3079   0.436E-01    0.542E+00
RMM:  33    -0.648211966603E+03    0.11247E+00   -0.40740E-02  3017   0.319E-01    0.535E+00
RMM:  34    -0.648356023709E+03   -0.14406E+00   -0.18206E-01  2985   0.668E-01    0.418E+00
RMM:  35    -0.648455234313E+03   -0.99211E-01   -0.19211E-01  3002   0.657E-01    0.234E+00
RMM:  36    -0.648486086832E+03   -0.30853E-01   -0.32175E-02  3456   0.282E-01    0.250E+00
RMM:  37    -0.648509257799E+03   -0.23171E-01   -0.10374E-02  3219   0.164E-01    0.256E+00
RMM:  38    -0.648506862801E+03    0.23950E-02   -0.11125E-02  2991   0.184E-01    0.224E+00
RMM:  39    -0.648515128984E+03   -0.82662E-02   -0.23790E-02  2991   0.264E-01    0.195E+00
RMM:  40    -0.648553587849E+03   -0.38459E-01   -0.36857E-02  2974   0.357E-01    0.198E+00
RMM:  41    -0.648557580633E+03   -0.39928E-02   -0.21306E-02  3037   0.241E-01    0.243E+00
RMM:  42    -0.648546579707E+03    0.11001E-01   -0.39990E-02  2992   0.327E-01    0.301E+00
RMM:  43    -0.648510131878E+03    0.36448E-01   -0.35371E-02  3024   0.312E-01    0.299E+00
RMM:  44    -0.648475363950E+03    0.34768E-01   -0.36659E-02  3031   0.277E-01    0.260E+00
RMM:  45    -0.648450606694E+03    0.24757E-01   -0.20932E-02  2967   0.218E-01    0.219E+00
RMM:  46    -0.648486600948E+03   -0.35994E-01   -0.11654E-02  2980   0.181E-01    0.178E+00
RMM:  47    -0.648580825911E+03   -0.94225E-01   -0.64103E-02  2964   0.443E-01    0.120E+00
RMM:  48    -0.648552513254E+03    0.28313E-01   -0.19890E-02  2989   0.254E-01    0.116E+00
RMM:  49    -0.648539567169E+03    0.12946E-01   -0.25559E-02  3059   0.269E-01    0.107E+00
RMM:  50    -0.648550427747E+03   -0.10861E-01   -0.71019E-03  3229   0.123E-01
   1 F= -.65494368E+03 E0= -.65491541E+03  d E =-.654944E+03  mag=     2.4682
       N       E                     dE             d eps       ncg     rms          rms(c)
DAV:   1    -0.648623087001E+03   -0.83520E-01   -0.23916E+01  3296   0.146E+01    0.185E+00
RMM:   2    -0.648759278230E+03   -0.13619E+00   -0.11996E+00  2982   0.239E+00    0.394E+00
RMM:   3    -0.648703944597E+03    0.55334E-01   -0.14011E-01  3155   0.719E-01    0.128E+00
RMM:   4    -0.648708087666E+03   -0.41431E-02   -0.30090E-02  3136   0.326E-01    0.492E-01
RMM:   5    -0.648711945790E+03   -0.38581E-02   -0.91913E-03  3002   0.172E-01    0.258E-01
RMM:   6    -0.648716049068E+03   -0.41033E-02   -0.24649E-03  2999   0.927E-02    0.992E-02
RMM:   7    -0.648717776336E+03   -0.17273E-02   -0.46896E-04  3046   0.353E-02    0.550E-02
RMM:   8    -0.648718837814E+03   -0.10615E-02   -0.11921E-04  2354   0.181E-02    0.245E-02
RMM:   9    -0.648719878547E+03   -0.10407E-02   -0.96505E-05  2222   0.150E-02    0.229E-02
RMM:  10    -0.648720520560E+03   -0.64201E-03   -0.49873E-05  2072   0.862E-03    0.810E-03
RMM:  11    -0.648721178079E+03   -0.65752E-03   -0.49371E-05  2073   0.705E-03    0.707E-03
RMM:  12    -0.648721616731E+03   -0.43865E-03   -0.36339E-05  1638   0.545E-03    0.493E-03
RMM:  13    -0.648721864465E+03   -0.24773E-03   -0.23362E-05  1690   0.465E-03    0.488E-03
RMM:  14    -0.648721945385E+03   -0.80920E-04   -0.77456E-06  1231   0.300E-03    0.257E-03
RMM:  15    -0.648721968732E+03   -0.23347E-04   -0.18586E-06  1082   0.211E-03    0.120E-03
RMM:  16    -0.648721984841E+03   -0.16109E-04   -0.66573E-07   839   0.168E-03    0.900E-04
RMM:  17    -0.648721996295E+03   -0.11454E-04   -0.52100E-07   810   0.160E-03    0.612E-04
RMM:  18    -0.648722003451E+03   -0.71562E-05   -0.34361E-07   702   0.151E-03
   2 F= -.65511256E+03 E0= -.65508678E+03  d E =-.168886E+00  mag=     2.6172
       N       E                     dE             d eps       ncg     rms          rms(c)
DAV:   1    -0.648727495855E+03   -0.54996E-02   -0.25050E-01  3352   0.149E+00    0.183E-01
RMM:   2    -0.648728225522E+03   -0.72967E-03   -0.12097E-02  2989   0.247E-01    0.277E-01
RMM:   3    -0.648728178042E+03    0.47480E-04   -0.13172E-03  3186   0.701E-02    0.202E-01
RMM:   4    -0.648727716576E+03    0.46147E-03   -0.26594E-04  2876   0.315E-02    0.534E-02
RMM:   5    -0.648727713487E+03    0.30888E-05   -0.65671E-05  2277   0.168E-02
   3 F= -.65511862E+03 E0= -.65509219E+03  d E =-.174946E+00  mag=     2.5930
       N       E                     dE             d eps       ncg     rms          rms(c)
DAV:   1    -0.648729142153E+03   -0.14256E-02   -0.57888E-01  3296   0.227E+00    0.301E-01
RMM:   2    -0.648730894647E+03   -0.17525E-02   -0.28607E-02  2986   0.380E-01    0.510E-01
RMM:   3    -0.648730677368E+03    0.21728E-03   -0.35344E-03  3193   0.113E-01    0.326E-01
RMM:   4    -0.648729559797E+03    0.11176E-02   -0.65256E-04  3142   0.495E-02    0.855E-02
RMM:   5    -0.648729733308E+03   -0.17351E-03   -0.16409E-04  2747   0.253E-02    0.682E-02
RMM:   6    -0.648730345256E+03   -0.61195E-03   -0.71083E-05  2236   0.176E-02    0.297E-02
RMM:   7    -0.648730749998E+03   -0.40474E-03   -0.18219E-05  1881   0.855E-03    0.937E-03
RMM:   8    -0.648731125900E+03   -0.37590E-03   -0.99435E-06  1826   0.563E-03    0.641E-03
RMM:   9    -0.648731355512E+03   -0.22961E-03   -0.74016E-06  1687   0.410E-03    0.385E-03
RMM:  10    -0.648731440144E+03   -0.84632E-04   -0.32495E-06  1211   0.263E-03    0.198E-03
RMM:  11    -0.648731474773E+03   -0.34629E-04   -0.14849E-06  1066   0.206E-03    0.106E-03
RMM:  12    -0.648731491582E+03   -0.16808E-04   -0.86715E-07   932   0.181E-03    0.560E-04
RMM:  13    -0.648731495705E+03   -0.41234E-05   -0.41801E-07   755   0.161E-03
   4 F= -.65512290E+03 E0= -.65509553E+03  d E =-.179227E+00  mag=     2.5252
       N       E                     dE             d eps       ncg     rms          rms(c)
DAV:   1    -0.648726631363E+03    0.48602E-02   -0.66499E+00  3264   0.872E+00    0.902E-01
RMM:   2    -0.648771541296E+03   -0.44910E-01   -0.48801E-01  3034   0.129E+00    0.835E-01
RMM:   3    -0.648765908002E+03    0.56333E-02   -0.40251E-02  3539   0.366E-01    0.115E+00
RMM:   4    -0.648761257824E+03    0.46502E-02   -0.67550E-03  3180   0.149E-01    0.286E-01
RMM:   5    -0.648760760798E+03    0.49703E-03   -0.14133E-03  3124   0.704E-02    0.191E-01
RMM:   6    -0.648762100636E+03   -0.13398E-02   -0.10008E-03  2983   0.623E-02    0.111E-01
RMM:   7    -0.648763105843E+03   -0.10052E-02   -0.16488E-04  2475   0.225E-02    0.412E-02
RMM:   8    -0.648764005102E+03   -0.89926E-03   -0.43751E-05  2020   0.112E-02    0.233E-02
RMM:   9    -0.648765067271E+03   -0.10622E-02   -0.43928E-05  2037   0.908E-03    0.137E-02
RMM:  10    -0.648765551743E+03   -0.48447E-03   -0.24295E-05  1892   0.558E-03    0.753E-03
RMM:  11    -0.648765732264E+03   -0.18052E-03   -0.79784E-06  1485   0.373E-03    0.438E-03
RMM:  12    -0.648765847881E+03   -0.11562E-03   -0.60678E-06  1519   0.319E-03    0.160E-03
RMM:  13    -0.648765864015E+03   -0.16133E-04   -0.13744E-06  1074   0.204E-03    0.118E-03
RMM:  14    -0.648765878154E+03   -0.14140E-04   -0.92415E-07   942   0.174E-03    0.708E-04
RMM:  15    -0.648765886250E+03   -0.80959E-05   -0.98272E-07   900   0.170E-03
   5 F= -.65515795E+03 E0= -.65513289E+03  d E =-.350462E-01  mag=     2.6654
       N       E                     dE             d eps       ncg     rms          rms(c)
DAV:   1    -0.648765881074E+03   -0.29191E-05   -0.63115E-03  3496   0.268E-01    0.258E-02
RMM:   2    -0.648765918269E+03   -0.37195E-04   -0.41458E-04  2947   0.385E-02    0.216E-02
RMM:   3    -0.648765909140E+03    0.91286E-05   -0.29035E-05  1904   0.110E-02
   6 F= -.65515799E+03 E0= -.65513295E+03  d E =-.350821E-01  mag=     2.6667
       N       E                     dE             d eps       ncg     rms          rms(c)
DAV:   1    -0.648768260618E+03   -0.23423E-02   -0.51688E+00  3264   0.755E+00    0.748E-01
RMM:   2    -0.648796682910E+03   -0.28422E-01   -0.31254E-01  3044   0.104E+00    0.796E-01
RMM:   3    -0.648794142163E+03    0.25407E-02   -0.25809E-02  3328   0.290E-01    0.774E-01
RMM:   4    -0.648791001061E+03    0.31411E-02   -0.35305E-03  3265   0.110E-01    0.212E-01
RMM:   5    -0.648790984898E+03    0.16163E-04   -0.93886E-04  3045   0.568E-02    0.126E-01
RMM:   6    -0.648791640394E+03   -0.65550E-03   -0.43671E-04  2953   0.412E-02    0.432E-02
RMM:   7    -0.648792124628E+03   -0.48423E-03   -0.61035E-05  2119   0.143E-02    0.209E-02
RMM:   8    -0.648792465203E+03   -0.34057E-03   -0.14486E-05  1840   0.799E-03    0.914E-03
RMM:   9    -0.648792753891E+03   -0.28869E-03   -0.10269E-05  1811   0.548E-03    0.790E-03
RMM:  10    -0.648792890553E+03   -0.13666E-03   -0.47799E-06  1482   0.347E-03    0.298E-03
RMM:  11    -0.648792972117E+03   -0.81564E-04   -0.30833E-06  1256   0.261E-03    0.218E-03
RMM:  12    -0.648793012209E+03   -0.40091E-04   -0.17702E-06  1124   0.211E-03    0.899E-04
RMM:  13    -0.648793030698E+03   -0.18490E-04   -0.11817E-06   955   0.185E-03    0.917E-04
RMM:  14    -0.648793040149E+03   -0.94505E-05   -0.11223E-06   890   0.177E-03
   7 F= -.65518381E+03 E0= -.65516007E+03  d E =-.258220E-01  mag=     2.7288
       N       E                     dE             d eps       ncg     rms          rms(c)
DAV:   1    -0.648793015783E+03    0.14916E-04   -0.29504E-01  3320   0.181E+00    0.181E-01
RMM:   2    -0.648794581134E+03   -0.15654E-02   -0.17958E-02  3044   0.249E-01    0.206E-01
RMM:   3    -0.648794452172E+03    0.12896E-03   -0.15280E-03  3301   0.704E-02    0.182E-01
RMM:   4    -0.648794234024E+03    0.21815E-03   -0.20007E-04  2532   0.267E-02    0.504E-02
RMM:   5    -0.648794219119E+03    0.14905E-04   -0.52224E-05  2141   0.149E-02    0.301E-02
RMM:   6    -0.648794272870E+03   -0.53751E-04   -0.24799E-05  1879   0.114E-02    0.999E-03
RMM:   7    -0.648794330461E+03   -0.57592E-04   -0.47444E-06  1767   0.563E-03    0.391E-03
RMM:   8    -0.648794369440E+03   -0.38978E-04   -0.16466E-06  1668   0.326E-03    0.220E-03
RMM:   9    -0.648794400145E+03   -0.30706E-04   -0.73526E-07  1078   0.205E-03    0.168E-03
RMM:  10    -0.648794415953E+03   -0.15807E-04   -0.45366E-07   853   0.169E-03    0.745E-04
RMM:  11    -0.648794426032E+03   -0.10079E-04   -0.24451E-07   663   0.153E-03    0.391E-04
RMM:  12    -0.648794431998E+03   -0.59666E-05   -0.29271E-07   675   0.153E-03
   8 F= -.65518486E+03 E0= -.65516145E+03  d E =-.268717E-01  mag=     2.7416
       N       E                     dE             d eps       ncg     rms          rms(c)
DAV:   1    -0.648801274300E+03   -0.68483E-02   -0.44987E+00  3136   0.668E+00    0.755E-01
RMM:   2    -0.648822974558E+03   -0.21700E-01   -0.21707E-01  3048   0.909E-01    0.134E+00
RMM:   3    -0.648816288411E+03    0.66861E-02   -0.24504E-02  3249   0.287E-01    0.555E-01
RMM:   4    -0.648814121396E+03    0.21670E-02   -0.27851E-03  3262   0.101E-01    0.193E-01
RMM:   5    -0.648813799853E+03    0.32154E-03   -0.95516E-04  2959   0.588E-02    0.898E-02
RMM:   6    -0.648814492225E+03   -0.69237E-03   -0.25052E-04  2956   0.327E-02    0.257E-02
RMM:   7    -0.648815094623E+03   -0.60240E-03   -0.39513E-05  2053   0.115E-02    0.171E-02
RMM:   8    -0.648815541831E+03   -0.44721E-03   -0.17653E-05  1864   0.769E-03    0.841E-03
RMM:   9    -0.648815824929E+03   -0.28310E-03   -0.11797E-05  1804   0.497E-03    0.536E-03
RMM:  10    -0.648815943693E+03   -0.11876E-03   -0.47628E-06  1377   0.312E-03    0.258E-03
RMM:  11    -0.648816010782E+03   -0.67089E-04   -0.28819E-06  1207   0.245E-03    0.160E-03
RMM:  12    -0.648816034082E+03   -0.23300E-04   -0.14334E-06  1040   0.201E-03    0.847E-04
RMM:  13    -0.648816042899E+03   -0.88176E-05   -0.91289E-07   880   0.180E-03
   9 F= -.65520422E+03 E0= -.65518314E+03  d E =-.193586E-01  mag=     2.8148
       N       E                     dE             d eps       ncg     rms          rms(c)
DAV:   1    -0.648816486188E+03   -0.45211E-03   -0.42019E-01  3208   0.204E+00    0.227E-01
RMM:   2    -0.648818371078E+03   -0.18849E-02   -0.20415E-02  3054   0.279E-01    0.383E-01
RMM:   3    -0.648817814220E+03    0.55686E-03   -0.22531E-03  3252   0.869E-02    0.158E-01
RMM:   4    -0.648817606632E+03    0.20759E-03   -0.26361E-04  3013   0.308E-02    0.559E-02
RMM:   5    -0.648817577294E+03    0.29338E-04   -0.88007E-05  2590   0.183E-02    0.273E-02
RMM:   6    -0.648817666806E+03   -0.89512E-04   -0.22328E-05  1882   0.107E-02    0.861E-03
RMM:   7    -0.648817752008E+03   -0.85202E-04   -0.49458E-06  1774   0.540E-03    0.462E-03
RMM:   8    -0.648817807834E+03   -0.55825E-04   -0.19601E-06  1539   0.321E-03    0.227E-03
RMM:   9    -0.648817850416E+03   -0.42582E-04   -0.13399E-06  1271   0.233E-03    0.190E-03
RMM:  10    -0.648817866014E+03   -0.15598E-04   -0.51347E-07   861   0.175E-03    0.745E-04
RMM:  11    -0.648817878646E+03   -0.12632E-04   -0.45192E-07   758   0.162E-03    0.417E-04
RMM:  12    -0.648817881743E+03   -0.30974E-05   -0.26736E-07   646   0.150E-03
  10 F= -.65520533E+03 E0= -.65518496E+03  d E =-.204740E-01  mag=     2.8331
       N       E                     dE             d eps       ncg     rms          rms(c)
DAV:   1    -0.648822277223E+03   -0.43986E-02   -0.42830E+00  3112   0.622E+00    0.500E-01
RMM:   2    -0.648835210847E+03   -0.12934E-01   -0.15158E-01  3069   0.829E-01    0.368E-01
RMM:   3    -0.648833750022E+03    0.14608E-02   -0.11347E-02  3701   0.216E-01    0.486E-01
RMM:   4    -0.648832739668E+03    0.10104E-02   -0.21766E-03  3151   0.855E-02    0.170E-01
RMM:   5    -0.648832550953E+03    0.18872E-03   -0.75950E-04  2998   0.521E-02    0.717E-02
RMM:   6    -0.648832858518E+03   -0.30757E-03   -0.16630E-04  2956   0.252E-02    0.313E-02
RMM:   7    -0.648833077751E+03   -0.21923E-03   -0.27309E-05  1954   0.991E-03    0.192E-02
RMM:   8    -0.648833231380E+03   -0.15363E-03   -0.82743E-06  1798   0.631E-03    0.706E-03
RMM:   9    -0.648833342712E+03   -0.11133E-03   -0.46906E-06  1771   0.391E-03    0.415E-03
RMM:  10    -0.648833385612E+03   -0.42900E-04   -0.16963E-06  1238   0.239E-03    0.216E-03
RMM:  11    -0.648833415252E+03   -0.29639E-04   -0.10548E-06  1017   0.196E-03    0.162E-03
RMM:  12    -0.648833426638E+03   -0.11387E-04   -0.68088E-07   873   0.177E-03    0.657E-04
RMM:  13    -0.648833432264E+03   -0.56260E-05   -0.40664E-07   702   0.158E-03
  11 F= -.65522113E+03 E0= -.65520216E+03  d E =-.158013E-01  mag=     2.8647
       N       E                     dE             d eps       ncg     rms          rms(c)
DAV:   1    -0.648833139024E+03    0.28761E-03   -0.57505E-01  3176   0.228E+00    0.183E-01
RMM:   2    -0.648834848793E+03   -0.17098E-02   -0.20301E-02  3072   0.304E-01    0.138E-01
RMM:   3    -0.648834634902E+03    0.21389E-03   -0.15344E-03  3662   0.794E-02    0.172E-01
RMM:   4    -0.648834506467E+03    0.12844E-03   -0.28415E-04  2844   0.313E-02    0.610E-02
RMM:   5    -0.648834478424E+03    0.28043E-04   -0.10383E-04  2768   0.197E-02    0.264E-02
RMM:   6    -0.648834531769E+03   -0.53345E-04   -0.20485E-05  1876   0.997E-03    0.108E-02
RMM:   7    -0.648834578803E+03   -0.47034E-04   -0.49313E-06  1774   0.536E-03    0.661E-03
RMM:   8    -0.648834611960E+03   -0.33156E-04   -0.17883E-06  1565   0.335E-03    0.237E-03
RMM:   9    -0.648834634135E+03   -0.22175E-04   -0.81245E-07  1125   0.219E-03    0.122E-03
RMM:  10    -0.648834642257E+03   -0.81219E-05   -0.41140E-07   858   0.173E-03
  12 F= -.65522241E+03 E0= -.65520393E+03  d E =-.170788E-01  mag=     2.8739
       N       E                     dE             d eps       ncg     rms          rms(c)
DAV:   1    -0.648835877319E+03   -0.12432E-02   -0.48124E+00  3000   0.631E+00    0.511E-01
RMM:   2    -0.648847532401E+03   -0.11655E-01   -0.13908E-01  3038   0.853E-01    0.444E-01
RMM:   3    -0.648846237714E+03    0.12947E-02   -0.12138E-02  3664   0.226E-01    0.425E-01
RMM:   4    -0.648845141470E+03    0.10962E-02   -0.22646E-03  3111   0.919E-02    0.157E-01
RMM:   5    -0.648844967754E+03    0.17372E-03   -0.96862E-04  2991   0.602E-02    0.610E-02
RMM:   6    -0.648845087396E+03   -0.11964E-03   -0.94099E-05  2625   0.210E-02    0.224E-02
RMM:   7    -0.648845163232E+03   -0.75836E-04   -0.14954E-05  1839   0.877E-03    0.134E-02
RMM:   8    -0.648845213007E+03   -0.49775E-04   -0.53619E-06  1777   0.550E-03    0.618E-03
RMM:   9    -0.648845244957E+03   -0.31950E-04   -0.24243E-06  1761   0.351E-03    0.254E-03
RMM:  10    -0.648845257334E+03   -0.12377E-04   -0.80824E-07  1083   0.207E-03    0.139E-03
RMM:  11    -0.648845266000E+03   -0.86661E-05   -0.56637E-07   951   0.179E-03
  13 F= -.65523382E+03 E0= -.65521614E+03  d E =-.114135E-01  mag=     2.8807
       N       E                     dE             d eps       ncg     rms          rms(c)
DAV:   1    -0.648845283101E+03   -0.25767E-04   -0.13319E-03  3240   0.105E-01    0.862E-03
RMM:   2    -0.648845287886E+03   -0.47852E-05   -0.35057E-05  1938   0.142E-02
  14 F= -.65523383E+03 E0= -.65521611E+03  d E =-.114232E-01  mag=     2.8806
       N       E                     dE             d eps       ncg     rms          rms(c)
DAV:   1    -0.648849083907E+03   -0.38008E-02   -0.28649E+00  2968   0.468E+00    0.371E-01
RMM:   2    -0.648853943329E+03   -0.48594E-02   -0.63579E-02  3014   0.607E-01    0.339E-01
RMM:   3    -0.648853499230E+03    0.44410E-03   -0.59893E-03  3547   0.163E-01    0.278E-01
RMM:   4    -0.648852824974E+03    0.67426E-03   -0.13524E-03  3056   0.729E-02    0.108E-01
RMM:   5    -0.648852790678E+03    0.34296E-04   -0.48008E-04  2987   0.428E-02    0.381E-02
RMM:   6    -0.648852854489E+03   -0.63811E-04   -0.34313E-05  1994   0.133E-02    0.171E-02
RMM:   7    -0.648852907197E+03   -0.52708E-04   -0.12202E-05  1792   0.782E-03    0.797E-03
RMM:   8    -0.648852939315E+03   -0.32118E-04   -0.34987E-06  1766   0.482E-03    0.340E-03
RMM:   9    -0.648852965898E+03   -0.26583E-04   -0.17097E-06  1552   0.283E-03    0.152E-03
RMM:  10    -0.648852975840E+03   -0.99423E-05   -0.66424E-07  1081   0.193E-03
  15 F= -.65524096E+03 E0= -.65522414E+03  d E =-.713113E-02  mag=     2.8914
       N       E                     dE             d eps       ncg     rms          rms(c)
DAV:   1    -0.648852966771E+03   -0.87318E-06   -0.20475E-03  3176   0.125E-01    0.100E-02
RMM:   2    -0.648852972398E+03   -0.56272E-05   -0.41108E-05  2066   0.162E-02
  16 F= -.65524098E+03 E0= -.65522415E+03  d E =-.714368E-02  mag=     2.8914
       N       E                     dE             d eps       ncg     rms          rms(c)
DAV:   1    -0.648855379001E+03   -0.24122E-02   -0.10019E+00  2992   0.272E+00    0.200E-01
RMM:   2    -0.648856755448E+03   -0.13764E-02   -0.19377E-02  3004   0.345E-01    0.161E-01
RMM:   3    -0.648856651650E+03    0.10380E-03   -0.17385E-03  3534   0.911E-02    0.155E-01
RMM:   4    -0.648856467441E+03    0.18421E-03   -0.51840E-04  2999   0.450E-02    0.579E-02
RMM:   5    -0.648856468618E+03   -0.11776E-05   -0.11288E-04  2937   0.216E-02    0.201E-02
RMM:   6    -0.648856474335E+03   -0.57163E-05   -0.10647E-05  1787   0.754E-03
  17 F= -.65524429E+03 E0= -.65522778E+03  d E =-.331008E-02  mag=     2.8925
       N       E                     dE             d eps       ncg     rms          rms(c)
DAV:   1    -0.648856477353E+03   -0.87343E-05   -0.37400E-04  3232   0.532E-02    0.507E-03
RMM:   2    -0.648856481225E+03   -0.38720E-05   -0.61936E-06  1720   0.680E-03
  18 F= -.65524430E+03 E0= -.65522778E+03  d E =-.332110E-02  mag=     2.8926
       N       E                     dE             d eps       ncg     rms          rms(c)
DAV:   1    -0.648857381959E+03   -0.90461E-03   -0.55092E-01  3016   0.203E+00    0.159E-01
RMM:   2    -0.648858253797E+03   -0.87184E-03   -0.11492E-02  2993   0.260E-01    0.150E-01
RMM:   3    -0.648858130131E+03    0.12367E-03   -0.10845E-03  3513   0.718E-02    0.117E-01
RMM:   4    -0.648858034778E+03    0.95352E-04   -0.28678E-04  2962   0.341E-02    0.421E-02
RMM:   5    -0.648858036348E+03   -0.15691E-05   -0.80881E-05  2771   0.182E-02
  19 F= -.65524630E+03 E0= -.65522980E+03  d E =-.200162E-02  mag=     2.8919
       N       E                     dE             d eps       ncg     rms          rms(c)
DAV:   1    -0.648858015288E+03    0.19491E-04   -0.16343E-03  3288   0.111E-01    0.127E-02
RMM:   2    -0.648858020451E+03   -0.51638E-05   -0.38977E-05  2132   0.162E-02
  20 F= -.65524631E+03 E0= -.65522984E+03  d E =-.200925E-02  mag=     2.8919
       N       E                     dE             d eps       ncg     rms          rms(c)
DAV:   1    -0.648858785805E+03   -0.77052E-03   -0.43429E-01  2992   0.180E+00    0.135E-01
RMM:   2    -0.648859430789E+03   -0.64498E-03   -0.89264E-03  2987   0.230E-01    0.947E-02
RMM:   3    -0.648859368863E+03    0.61926E-04   -0.75017E-04  3433   0.610E-02    0.101E-01
RMM:   4    -0.648859320526E+03    0.48337E-04   -0.21908E-04  2963   0.286E-02    0.449E-02
RMM:   5    -0.648859319396E+03    0.11300E-05   -0.53518E-05  2331   0.153E-02
  21 F= -.65524778E+03 E0= -.65523126E+03  d E =-.147012E-02  mag=     2.8917
       N       E                     dE             d eps       ncg     rms          rms(c)
DAV:   1    -0.648859301096E+03    0.19429E-04   -0.14889E-02  3184   0.332E-01    0.269E-02
RMM:   2    -0.648859328136E+03   -0.27040E-04   -0.32599E-04  2987   0.440E-02    0.180E-02
RMM:   3    -0.648859328155E+03   -0.19219E-07   -0.19698E-05  1926   0.111E-02
  22 F= -.65524782E+03 E0= -.65523129E+03  d E =-.150928E-02  mag=     2.8916
       N       E                     dE             d eps       ncg     rms          rms(c)
DAV:   1    -0.648860224235E+03   -0.89610E-03   -0.42067E-01  2992   0.173E+00    0.132E-01
RMM:   2    -0.648860837036E+03   -0.61280E-03   -0.83228E-03  2993   0.221E-01    0.146E-01
RMM:   3    -0.648860706717E+03    0.13032E-03   -0.77378E-04  3556   0.607E-02    0.895E-02
RMM:   4    -0.648860641462E+03    0.65255E-04   -0.20521E-04  2940   0.281E-02    0.341E-02
RMM:   5    -0.648860644680E+03   -0.32180E-05   -0.60493E-05  2485   0.159E-02
  23 F= -.65524912E+03 E0= -.65523259E+03  d E =-.130067E-02  mag=     2.8905
