 vasp.5.4.4.18Apr17-6-g9f103f2a35 (build Sep 02 2021 13:24:58) complex          
  
 executed on             LinuxIFC date 2023.01.15  13:02:12
 running on   48 total cores
 distrk:  each k-point on   48 cores,    1 groups
 distr:  one band on NCORES_PER_BAND=  12 cores,    4 groups


--------------------------------------------------------------------------------------------------------


 INCAR:
 POTCAR:    PAW_PBE C 08Apr2002                   
 POTCAR:    PAW_PBE N 08Apr2002                   
 POTCAR:    PAW_PBE C 08Apr2002                   
 POTCAR:    PAW_PBE Cr_pv 02Aug2007               
 POTCAR:    PAW_PBE C 08Apr2002                   
   SHA256 =  253f7b50bb8d59471dbedb8285d89021f4a42ed1a2c5d38a03a736e69125dd95 C/
   COPYR  = (c) Copyright 08Apr2002 Georg Kresse                                
   COPYR  = This file is part of the software VASP. Any use, copying, and all ot
   COPYR  = If you do not have a valid VASP license, you may not use, copy or di
   VRHFIN =C: s2p2                                                              
   LEXCH  = PE                                                                  
   EATOM  =   147.1560 eV,   10.8157 Ry                                         
                                                                                
   TITEL  = PAW_PBE C 08Apr2002                                                 
   LULTRA =        F    use ultrasoft PP ?                                      
   IUNSCR =        1    unscreen: 0-lin 1-nonlin 2-no                           
   RPACOR =    1.200    partial core radius                                     
   POMASS =   12.011; ZVAL   =    4.000    mass and valenz                      
   RCORE  =    1.500    outmost cutoff radius                                   
   RWIGS  =    1.630; RWIGS  =    0.863    wigner-seitz radius (au A)           
   ENMAX  =  400.000; ENMIN  =  300.000 eV                                      
   ICORE  =        2    local potential                                         
   LCOR   =        T    correct aug charges                                     
   LPAW   =        T    paw PP                                                  
   EAUG   =  644.873                                                            
   DEXC   =    0.000                                                            
   RMAX   =    1.529    core radius for proj-oper                               
   RAUG   =    1.300    factor for augmentation sphere                          
   RDEP   =    1.501    radius for radial grids                                 
   RDEPT  =    1.300    core radius for aug-charge                              
                                                                                
   Atomic configuration                                                         
    4 entries                                                                   
     n  l   j            E        occ.                                          
     1  0  0.50      -273.3789   2.0000                                         
     2  0  0.50       -13.7508   2.0000                                         
     2  1  0.50        -5.2854   2.0000                                         
     3  2  1.50        -5.4423   0.0000                                         
   Description                                                                  
     l       E           TYP  RCUT    TYP  RCUT                                 
     0    -13.7508458     23  1.200                                             
     0     -8.2022199     23  1.200                                             
     1     -5.2854383     23  1.500                                             
     1     34.0145650     23  1.500                                             
     2     -5.4423304      7  1.500                                             
  local pseudopotential read in
  partial core-charges read in
  partial kinetic energy density read in
  atomic valenz-charges read in
  non local Contribution for L=           0  read in
    real space projection operators read in
  non local Contribution for L=           0  read in
    real space projection operators read in
  non local Contribution for L=           1  read in
    real space projection operators read in
  non local Contribution for L=           1  read in
    real space projection operators read in
    PAW grid and wavefunctions read in
 
   number of l-projection  operators is LMAX  =           4
   number of lm-projection operators is LMMAX =           8
 
 POTCAR:    PAW_PBE N 08Apr2002                   
   SHA256 =  e053789ff3a61a86a1b75d8a110fcc91f86041011e7b0817c7c99e4e8a6349d7 N/
   COPYR  = (c) Copyright 08Apr2002 Georg Kresse                                
   COPYR  = This file is part of the software VASP. Any use, copying, and all ot
   COPYR  = If you do not have a valid VASP license, you may not use, copy or di
   VRHFIN =N: s2p3                                                              
   LEXCH  = PE                                                                  
   EATOM  =   264.5486 eV,   19.4438 Ry                                         
                                                                                
   TITEL  = PAW_PBE N 08Apr2002                                                 
   LULTRA =        F    use ultrasoft PP ?                                      
   IUNSCR =        1    unscreen: 0-lin 1-nonlin 2-no                           
   RPACOR =    1.200    partial core radius                                     
   POMASS =   14.001; ZVAL   =    5.000    mass and valenz                      
   RCORE  =    1.500    outmost cutoff radius                                   
   RWIGS  =    1.400; RWIGS  =    0.741    wigner-seitz radius (au A)           
   ENMAX  =  400.000; ENMIN  =  300.000 eV                                      
   ICORE  =        2    local potential                                         
   LCOR   =        T    correct aug charges                                     
   LPAW   =        T    paw PP                                                  
   EAUG   =  627.112                                                            
   DEXC   =    0.000                                                            
   RMAX   =    1.529    core radius for proj-oper                               
   RAUG   =    1.300    factor for augmentation sphere                          
   RDEP   =    1.514    radius for radial grids                                 
   RDEPT  =    1.338    core radius for aug-charge                              
                                                                                
   Atomic configuration                                                         
    4 entries                                                                   
     n  l   j            E        occ.                                          
     1  0  0.50      -384.7179   2.0000                                         
     2  0  0.50       -18.5828   2.0000                                         
     2  1  0.50        -7.0898   3.0000                                         
     3  2  1.50        -6.8029   0.0000                                         
   Description                                                                  
     l       E           TYP  RCUT    TYP  RCUT                                 
     0    -18.5828119     23  1.200                                             
     0    -13.5018863     23  1.200                                             
     1     -7.0897853     23  1.500                                             
     1      9.5240782     23  1.500                                             
     2     -6.8029130      7  1.500                                             
  local pseudopotential read in
  partial core-charges read in
  partial kinetic energy density read in
  atomic valenz-charges read in
  non local Contribution for L=           0  read in
    real space projection operators read in
  non local Contribution for L=           0  read in
    real space projection operators read in
  non local Contribution for L=           1  read in
    real space projection operators read in
  non local Contribution for L=           1  read in
    real space projection operators read in
    PAW grid and wavefunctions read in
 
   number of l-projection  operators is LMAX  =           4
   number of lm-projection operators is LMMAX =           8
 
 POTCAR:    PAW_PBE C 08Apr2002                   
   SHA256 =  253f7b50bb8d59471dbedb8285d89021f4a42ed1a2c5d38a03a736e69125dd95 C/
   COPYR  = (c) Copyright 08Apr2002 Georg Kresse                                
   COPYR  = This file is part of the software VASP. Any use, copying, and all ot
   COPYR  = If you do not have a valid VASP license, you may not use, copy or di
   VRHFIN =C: s2p2                                                              
   LEXCH  = PE                                                                  
   EATOM  =   147.1560 eV,   10.8157 Ry                                         
                                                                                
   TITEL  = PAW_PBE C 08Apr2002                                                 
   LULTRA =        F    use ultrasoft PP ?                                      
   IUNSCR =        1    unscreen: 0-lin 1-nonlin 2-no                           
   RPACOR =    1.200    partial core radius                                     
   POMASS =   12.011; ZVAL   =    4.000    mass and valenz                      
   RCORE  =    1.500    outmost cutoff radius                                   
   RWIGS  =    1.630; RWIGS  =    0.863    wigner-seitz radius (au A)           
   ENMAX  =  400.000; ENMIN  =  300.000 eV                                      
   ICORE  =        2    local potential                                         
   LCOR   =        T    correct aug charges                                     
   LPAW   =        T    paw PP                                                  
   EAUG   =  644.873                                                            
   DEXC   =    0.000                                                            
   RMAX   =    1.529    core radius for proj-oper                               
   RAUG   =    1.300    factor for augmentation sphere                          
   RDEP   =    1.501    radius for radial grids                                 
   RDEPT  =    1.300    core radius for aug-charge                              
                                                                                
   Atomic configuration                                                         
    4 entries                                                                   
     n  l   j            E        occ.                                          
     1  0  0.50      -273.3789   2.0000                                         
     2  0  0.50       -13.7508   2.0000                                         
     2  1  0.50        -5.2854   2.0000                                         
     3  2  1.50        -5.4423   0.0000                                         
   Description                                                                  
     l       E           TYP  RCUT    TYP  RCUT                                 
     0    -13.7508458     23  1.200                                             
     0     -8.2022199     23  1.200                                             
     1     -5.2854383     23  1.500                                             
     1     34.0145650     23  1.500                                             
     2     -5.4423304      7  1.500                                             
  local pseudopotential read in
  partial core-charges read in
  partial kinetic energy density read in
  atomic valenz-charges read in
  non local Contribution for L=           0  read in
    real space projection operators read in
  non local Contribution for L=           0  read in
    real space projection operators read in
  non local Contribution for L=           1  read in
    real space projection operators read in
  non local Contribution for L=           1  read in
    real space projection operators read in
    PAW grid and wavefunctions read in
 
   number of l-projection  operators is LMAX  =           4
   number of lm-projection operators is LMMAX =           8
 
 POTCAR:    PAW_PBE Cr_pv 02Aug2007               
   SHA256 =  c9a7df34d3cdbacf1090e328ef39c0b420964e11c23f63548d1ac9dd218cdba0 Cr
   COPYR  = (c) Copyright 02Aug2007 Georg Kresse                                
   COPYR  = This file is part of the software VASP. Any use, copying, and all ot
   COPYR  = If you do not have a valid VASP license, you may not use, copy or di
   VRHFIN =Cr : p6d5s1                                                          
   LEXCH  = PE                                                                  
   EATOM  =  1647.9177 eV,  121.1185 Ry                                         
                                                                                
   TITEL  = PAW_PBE Cr_pv 02Aug2007                                             
   LULTRA =        F    use ultrasoft PP ?                                      
   IUNSCR =        1    unscreen: 0-lin 1-nonlin 2-no                           
   RPACOR =    2.080    partial core radius                                     
   POMASS =   51.996; ZVAL   =   12.000    mass and valenz                      
   RCORE  =    2.300    outmost cutoff radius                                   
   RWIGS  =    2.500; RWIGS  =    1.323    wigner-seitz radius (au A)           
   ENMAX  =  265.681; ENMIN  =  199.261 eV                                      
   ICORE  =        3    local potential                                         
   LCOR   =        T    correct aug charges                                     
   LPAW   =        T    paw PP                                                  
   EAUG   =  519.424                                                            
   DEXC   =    0.000                                                            
   RMAX   =    2.356    core radius for proj-oper                               
   RAUG   =    1.300    factor for augmentation sphere                          
   RDEP   =    2.447    radius for radial grids                                 
   RDEPT  =    1.882    core radius for aug-charge                              
                                                                                
   Atomic configuration                                                         
    8 entries                                                                   
     n  l   j            E        occ.                                          
     1  0  0.50     -5880.4963   2.0000                                         
     2  0  0.50      -667.0865   2.0000                                         
     2  1  1.50      -560.6250   6.0000                                         
     3  0  0.50       -73.9860   2.0000                                         
     3  1  1.50       -45.4378   6.0000                                         
     3  2  2.50        -2.9137   5.0000                                         
     4  0  0.50        -4.0071   1.0000                                         
     4  3  2.50        -1.3606   0.0000                                         
   Description                                                                  
     l       E           TYP  RCUT    TYP  RCUT                                 
     1    -45.4377911     23  2.000                                             
     1      1.3605826     23  2.000                                             
     2     -2.9136672     23  2.300                                             
     2     -4.2742498     23  2.300                                             
     0     -4.0071320     23  2.300                                             
     0      9.4498803     23  2.300                                             
     3      2.7211652     23  2.300                                             
  local pseudopotential read in
  partial core-charges read in
  partial kinetic energy density read in
  atomic valenz-charges read in
  non local Contribution for L=           1  read in
    real space projection operators read in
  non local Contribution for L=           1  read in
    real space projection operators read in
  non local Contribution for L=           2  read in
    real space projection operators read in
  non local Contribution for L=           2  read in
    real space projection operators read in
  non local Contribution for L=           0  read in
    real space projection operators read in
  non local Contribution for L=           0  read in
    real space projection operators read in
    PAW grid and wavefunctions read in
 
   number of l-projection  operators is LMAX  =           6
   number of lm-projection operators is LMMAX =          18
 
 Optimization of the real space projectors (new method)

 maximal supplied QI-value         = 25.13
 optimisation between [QCUT,QGAM] = [ 11.81, 23.88] = [ 39.08,159.64] Ry 
 Optimized for a Real-space Cutoff    1.18 Angstroem

   l    n(q)    QCUT    max X(q) W(low)/X(q) W(high)/X(q)  e(spline) 
   0      8    11.813   115.676    0.10E-03    0.16E-03    0.35E-06
   0      8    11.813    87.132    0.10E-03    0.16E-03    0.35E-06
   1      8    11.813     4.429    0.16E-03    0.13E-04    0.22E-06
   1      8    11.813     2.733    0.13E-03    0.10E-04    0.18E-06
 Optimization of the real space projectors (new method)

 maximal supplied QI-value         = 25.13
 optimisation between [QCUT,QGAM] = [ 11.81, 23.88] = [ 39.08,159.64] Ry 
 Optimized for a Real-space Cutoff    1.41 Angstroem

   l    n(q)    QCUT    max X(q) W(low)/X(q) W(high)/X(q)  e(spline) 
   0     10    11.813    79.467    0.48E-04    0.30E-04    0.67E-06
   0     10    11.813    66.151    0.47E-04    0.30E-04    0.67E-06
   1     10    11.813    20.169    0.11E-03    0.17E-03    0.11E-05
   1     10    11.813    14.454    0.11E-03    0.17E-03    0.11E-05
 Optimization of the real space projectors (new method)

 maximal supplied QI-value         = 25.13
 optimisation between [QCUT,QGAM] = [ 11.81, 23.88] = [ 39.08,159.64] Ry 
 Optimized for a Real-space Cutoff    1.18 Angstroem

   l    n(q)    QCUT    max X(q) W(low)/X(q) W(high)/X(q)  e(spline) 
   0      8    11.813   115.676    0.10E-03    0.16E-03    0.35E-06
   0      8    11.813    87.132    0.10E-03    0.16E-03    0.35E-06
   1      8    11.813     4.429    0.16E-03    0.13E-04    0.22E-06
   1      8    11.813     2.733    0.13E-03    0.10E-04    0.18E-06
 Optimization of the real space projectors (new method)

 maximal supplied QI-value         = 16.25
 optimisation between [QCUT,QGAM] = [ 11.86, 23.89] = [ 39.41,159.82] Ry 
 Optimized for a Real-space Cutoff    1.33 Angstroem

   l    n(q)    QCUT    max X(q) W(low)/X(q) W(high)/X(q)  e(spline) 
   1      9    11.864     3.262    0.48E-04    0.16E-03    0.14E-06
   1      9    11.864     5.741    0.74E-04    0.40E-03    0.35E-06
   2      9    11.864    60.438    0.17E-03    0.21E-03    0.26E-06
   2      9    11.864    55.380    0.17E-03    0.21E-03    0.27E-06
   0      9    11.864    80.273    0.40E-04    0.47E-04    0.12E-06
   0      9    11.864    36.654    0.35E-04    0.41E-04    0.11E-06
  PAW_PBE C 08Apr2002                   :
 energy of atom  1       EATOM= -147.1560
 kinetic energy error for atom=    0.0066 (will be added to EATOM!!)
  PAW_PBE N 08Apr2002                   :
 energy of atom  2       EATOM= -264.5486
 kinetic energy error for atom=    0.0116 (will be added to EATOM!!)
  PAW_PBE C 08Apr2002                   :
 energy of atom  3       EATOM= -147.1560
 kinetic energy error for atom=    0.0066 (will be added to EATOM!!)
  PAW_PBE Cr_pv 02Aug2007               :
 energy of atom  4       EATOM=-1647.9177
 kinetic energy error for atom=    0.0054 (will be added to EATOM!!)
 
 
 POSCAR: POSCAR-clean                            
  positions in cartesian coordinates
  No initial velocities read in
 exchange correlation table for  LEXCH =        8
   RHO(1)=    0.500       N(1)  =     2000
   RHO(2)=  100.500       N(2)  =     4000
 


--------------------------------------------------------------------------------------------------------


 ion  position               nearest neighbor table
   1  0.000  1.000  0.498-   2 1.42  60 1.42  70 1.43
   2  0.056  0.111  0.498-   1 1.42  13 1.42  15 1.43
   3  0.168  0.002  0.498-   4 1.42  62 1.43  60 1.43
   4  0.224  0.113  0.498-   3 1.42  15 1.42  17 1.44
   5  0.334  0.002  0.498-   6 1.42  62 1.43  64 1.43
   6  0.390  0.113  0.498-   5 1.42  19 1.42  17 1.44
   7  0.500  1.000  0.498-   8 1.42  64 1.42  66 1.43
   8  0.556  0.111  0.498-   7 1.42  21 1.42  19 1.43
   9  0.666  0.998  0.498-  10 1.42  66 1.42  68 1.44
  10  0.722  0.109  0.498-   9 1.42  23 1.43  21 1.43
  11  0.832  0.998  0.498-  12 1.42  70 1.42  68 1.44
  12  0.888  0.109  0.498-  11 1.42  23 1.43  13 1.43
  13  0.999  0.165  0.498-  14 1.42   2 1.42  12 1.43
  14  0.054  0.277  0.499-  13 1.42  25 1.42  27 1.43
  15  0.167  0.168  0.498-  16 1.42   4 1.42   2 1.43
  16  0.223  0.280  0.500-  15 1.42  27 1.43  29 1.44
  17  0.335  0.170  0.499-  18 1.42   4 1.44   6 1.44
  18  0.391  0.281  0.503-  17 1.42  31 1.44  29 1.44
  19  0.501  0.168  0.498-  20 1.42   6 1.42   8 1.43
  20  0.557  0.280  0.500-  19 1.42  33 1.43  31 1.44
  21  0.667  0.165  0.498-  22 1.42   8 1.42  10 1.43
  22  0.723  0.277  0.498-  21 1.42  35 1.42  33 1.43
  23  0.833  0.165  0.498-  24 1.42  10 1.43  12 1.43
  24  0.888  0.276  0.498-  23 1.42  25 1.42  35 1.43
  25  0.999  0.332  0.498-  14 1.42  26 1.42  24 1.42
  26  0.054  0.444  0.499-  39 1.42  37 1.42  25 1.42
  27  0.165  0.333  0.500-  28 1.42  16 1.43  14 1.43
  28  0.219  0.444  0.502-  41 1.41  27 1.42  39 1.42
  29  0.335  0.338  0.503-  30 1.41  18 1.44  16 1.44
  30  0.387  0.448  0.510-  41 1.41  29 1.41  71 2.00
  31  0.503  0.338  0.504-  32 1.41  18 1.44  20 1.44
  32  0.562  0.448  0.510-  43 1.41  31 1.41  71 2.00
  33  0.668  0.333  0.500-  34 1.42  20 1.43  22 1.43
  34  0.725  0.444  0.501-  43 1.41  33 1.42  45 1.42
  35  0.833  0.332  0.498-  22 1.42  36 1.42  24 1.43
  36  0.890  0.444  0.498-  45 1.42  37 1.42  35 1.42
  37  0.000  0.500  0.498-  36 1.42  26 1.42  38 1.42
  38  0.056  0.611  0.498-  47 1.42  49 1.42  37 1.42
  39  0.165  0.500  0.500-  26 1.42  28 1.42  40 1.42
  40  0.220  0.611  0.500-  49 1.42  51 1.42  39 1.42
  41  0.329  0.499  0.505-  30 1.41  28 1.41  42 1.44
  42  0.385  0.612  0.505-  53 1.41  51 1.41  41 1.44
  43  0.671  0.499  0.505-  32 1.41  34 1.41  44 1.44
  44  0.727  0.612  0.505-  55 1.41  57 1.41  43 1.44
  45  0.836  0.500  0.499-  36 1.42  34 1.42  46 1.42
  46  0.891  0.611  0.499-  47 1.42  57 1.42  45 1.42
  47  0.001  0.667  0.498-  46 1.42  38 1.42  48 1.42
  48  0.057  0.779  0.498-  59 1.42  47 1.42  61 1.43
  49  0.166  0.667  0.499-  40 1.42  38 1.42  50 1.42
  50  0.222  0.779  0.498-  63 1.42  49 1.42  61 1.42
  51  0.331  0.667  0.502-  42 1.41  52 1.42  40 1.42
  52  0.388  0.778  0.500-  51 1.42  65 1.43  63 1.43
  53  0.494  0.663  0.510-  42 1.41  54 1.41  71 2.00
  54  0.553  0.773  0.503-  53 1.41  67 1.44  65 1.44
  55  0.669  0.663  0.510-  44 1.41  56 1.41  71 2.00
  56  0.721  0.773  0.504-  55 1.41  67 1.44  69 1.44
  57  0.837  0.667  0.501-  44 1.41  58 1.42  46 1.42
  58  0.891  0.778  0.500-  57 1.42  69 1.42  59 1.43
  59  0.002  0.835  0.498-  60 1.42  48 1.42  58 1.43
  60  0.057  0.946  0.498-  59 1.42   1 1.42   3 1.43
  61  0.168  0.835  0.498-  62 1.42  50 1.42  48 1.43
  62  0.223  0.946  0.498-  61 1.42   3 1.43   5 1.43
  63  0.333  0.835  0.499-  64 1.42  50 1.42  52 1.43
  64  0.389  0.946  0.498-  63 1.42   7 1.42   5 1.43
  65  0.499  0.832  0.500-  66 1.42  52 1.43  54 1.44
  66  0.555  0.943  0.498-  65 1.42   9 1.42   7 1.43
  67  0.665  0.830  0.503-  68 1.42  56 1.44  54 1.44
  68  0.721  0.941  0.499-  67 1.42   9 1.44  11 1.44
  69  0.833  0.832  0.500-  70 1.42  58 1.42  56 1.44
  70  0.889  0.943  0.498-  69 1.42  11 1.42   1 1.43
  71  0.528  0.556  0.554-  55 2.00  32 2.00  53 2.00  30 2.00
 

IMPORTANT INFORMATION: All symmetrisations will be switched off!
NOSYMM: (Re-)initialisation of all symmetry stuff for point group C_1.

 
 
 KPOINTS: K-Points                                

Automatic generation of k-mesh.
Space group operators:
 irot       det(A)        alpha          n_x          n_y          n_z        tau_x        tau_y        tau_z
    1     1.000000     0.000000     1.000000     0.000000     0.000000     0.000000     0.000000     0.000000
 
 Subroutine IBZKPT returns following result:
 ===========================================
 
 Found      4 irreducible k-points:
 
 Following reciprocal coordinates:
            Coordinates               Weight
  0.000000  0.000000  0.000000      1.000000
  0.500000  0.000000  0.000000      1.000000
 -0.000000  0.500000  0.000000      1.000000
  0.500000  0.500000  0.000000      1.000000
 
 Following cartesian coordinates:
            Coordinates               Weight
  0.000000  0.000000  0.000000      1.000000
  0.033606  0.019589  0.000000      1.000000
 -0.000000  0.039178  0.000000      1.000000
  0.033606  0.058767  0.000000      1.000000
 


--------------------------------------------------------------------------------------------------------




 Dimension of arrays:
   k-points           NKPTS =      4   k-points in BZ     NKDIM =      4   number of bands    NBANDS=    184
   number of dos      NEDOS =    301   number of ions     NIONS =     71
   non local maximal  LDIM  =      6   non local SUM 2l+1 LMDIM =     18
   total plane-waves  NPLWV = ******
   max r-space proj   IRMAX =   7110   max aug-charges    IRDMAX=  21308
   dimension x,y,z NGX =   120 NGY =  120 NGZ =  120
   dimension x,y,z NGXF=   240 NGYF=  240 NGZF=  240
   support grid    NGXF=   240 NGYF=  240 NGZF=  240
   ions per type =              52   1  17   1
   NGX,Y,Z   is equivalent  to a cutoff of  13.41, 13.50, 13.30 a.u.
   NGXF,Y,Z  is equivalent  to a cutoff of  26.82, 27.01, 26.60 a.u.

 SYSTEM =  unknown system                          
 POSCAR =  POSCAR-clean                            

 Startparameter for this run:
   NWRITE =      2    write-flag & timer
   PREC   = accura    normal or accurate (medium, high low for compatibility)
   ISTART =      0    job   : 0-new  1-cont  2-samecut
   ICHARG =      2    charge: 1-file 2-atom 10-const
   ISPIN  =      2    spin polarized calculation?
   LNONCOLLINEAR =      F non collinear calculations
   LSORBIT =      F    spin-orbit coupling
   INIWAV =      1    electr: 0-lowe 1-rand  2-diag
   LASPH  =      F    aspherical Exc in radial PAW
   METAGGA=      F    non-selfconsistent MetaGGA calc.

 Electronic Relaxation 1
   ENCUT  =  550.0 eV  40.42 Ry    6.36 a.u.  28.45 28.25 28.68*2*pi/ulx,y,z
   ENINI  =  550.0     initial cutoff
   ENAUG  =  644.9 eV  augmentation charge cutoff
   NELM   =     50;   NELMIN=  2; NELMDL= -5     # of ELM steps 
   EDIFF  = 0.1E-04   stopping-criterion for ELM
   LREAL  =      T    real-space projection
   NLSPLINE    = F    spline interpolate recip. space projectors
   LCOMPAT=      F    compatible to vasp.4.4
   GGA_COMPAT  = T    GGA compatible to vasp.4.4-vasp.4.6
   LMAXPAW     = -100 max onsite density
   LMAXMIX     =    2 max onsite mixed and CHGCAR
   VOSKOWN=      0    Vosko Wilk Nusair interpolation
   ROPT   =   -0.00025  -0.00025  -0.00025  -0.00025
 Ionic relaxation
   EDIFFG = -.5E-01   stopping-criterion for IOM
   NSW    =    400    number of steps for IOM
   NBLOCK =      1;   KBLOCK =    400    inner block; outer block 
   IBRION =      2    ionic relax: 0-MD 1-quasi-New 2-CG
   NFREE  =      1    steps in history (QN), initial steepest desc. (CG)
   ISIF   =      3    stress and relaxation
   IWAVPR =     11    prediction:  0-non 1-charg 2-wave 3-comb
   ISYM   =      0    0-nonsym 1-usesym 2-fastsym
   LCORR  =      T    Harris-Foulkes like correction to forces

   POTIM  = 0.3000    time-step for ionic-motion
   TEIN   =    0.0    initial temperature
   TEBEG  =    0.0;   TEEND  =   0.0 temperature during run
   SMASS  =  -3.00    Nose mass-parameter (am)
   estimated Nose-frequenzy (Omega)   =  0.10E-29 period in steps =****** mass=  -0.506E-26a.u.
   SCALEE = 1.0000    scale energy and forces
   NPACO  =    256;   APACO  = 16.0  distance and # of slots for P.C.
   PSTRESS=    0.0 pullay stress

  Mass of Ions in am
   POMASS =  12.01 14.00 12.01 52.00
  Ionic Valenz
   ZVAL   =   4.00  5.00  4.00 12.00
  Atomic Wigner-Seitz radii
   RWIGS  =  -1.00 -1.00 -1.00 -1.00
  virtual crystal weights 
   VCA    =   1.00  1.00  1.00  1.00
   NELECT =     293.0000    total number of electrons
   NUPDOWN=      -1.0000    fix difference up-down

 DOS related values:
   EMIN   =  10.00;   EMAX   =-10.00  energy-range for DOS
   EFERMI =   0.00
   ISMEAR =     0;   SIGMA  =   0.10  broadening in eV -4-tet -1-fermi 0-gaus

 Electronic relaxation 2 (details)
   IALGO  =     68    algorithm
   LDIAG  =      T    sub-space diagonalisation (order eigenvalues)
   LSUBROT=      F    optimize rotation matrix (better conditioning)
   TURBO    =      0    0=normal 1=particle mesh
   IRESTART =      0    0=no restart 2=restart with 2 vectors
   NREBOOT  =      0    no. of reboots
   NMIN     =      0    reboot dimension
   EREF     =   0.00    reference energy to select bands
   IMIX   =      4    mixing-type and parameters
     AMIX     =   0.40;   BMIX     =  1.00
     AMIX_MAG =   1.60;   BMIX_MAG =  1.00
     AMIN     =   0.10
     WC   =   100.;   INIMIX=   1;  MIXPRE=   1;  MAXMIX= -45

 Intra band minimization:
   WEIMIN = 0.0010     energy-eigenvalue tresh-hold
   EBREAK =  0.14E-07  absolut break condition
   DEPER  =   0.30     relativ break condition  

   TIME   =   0.40     timestep for ELM

  volume/ion in A,a.u.               =      40.12       270.71
  Fermi-wavevector in a.u.,A,eV,Ry     =   0.767079  1.449569  8.005805  0.588410
  Thomas-Fermi vector in A             =   1.867557
 
 Write flags
   LWAVE        =      F    write WAVECAR
   LDOWNSAMPLE  =      F    k-point downsampling of WAVECAR
   LCHARG       =      F    write CHGCAR
   LVTOT        =      F    write LOCPOT, total local potential
   LVHAR        =      F    write LOCPOT, Hartree potential only
   LELF         =      F    write electronic localiz. function (ELF)
   LORBIT       =      0    0 simple, 1 ext, 2 COOP (PROOUT), +10 PAW based schemes


 Dipole corrections
   LMONO  =      F    monopole corrections only (constant potential shift)
   LDIPOL =      F    correct potential (dipole corrections)
   IDIPOL =      0    1-x, 2-y, 3-z, 4-all directions 
   EPSILON=  1.0000000 bulk dielectric constant

 Exchange correlation treatment:
   GGA     =    --    GGA type
   LEXCH   =     8    internal setting for exchange type
   VOSKOWN=      0    Vosko Wilk Nusair interpolation
   LHFCALC =     F    Hartree Fock is set to
   LHFONE  =     F    Hartree Fock one center treatment
   AEXX    =    0.0000 exact exchange contribution

 Linear response parameters
   LEPSILON=     F    determine dielectric tensor
   LRPA    =     F    only Hartree local field effects (RPA)
   LNABLA  =     F    use nabla operator in PAW spheres
   LVEL    =     F    velocity operator in full k-point grid
   LINTERFAST=   F  fast interpolation
   KINTER  =     0    interpolate to denser k-point grid
   CSHIFT  =0.1000    complex shift for real part using Kramers Kronig
   OMEGAMAX=  -1.0    maximum frequency
   DEG_THRESHOLD= 0.2000000E-02 threshold for treating states as degnerate
   RTIME   =   -0.100 relaxation time in fs
  (WPLASMAI=    0.000 imaginary part of plasma frequency in eV, 0.658/RTIME)
   DFIELD  = 0.0000000 0.0000000 0.0000000 field for delta impulse in time
 
 Orbital magnetization related:
   ORBITALMAG=     F  switch on orbital magnetization
   LCHIMAG   =     F  perturbation theory with respect to B field
   DQ        =  0.001000  dq finite difference perturbation B field
   LLRAUG    =     F  two centre corrections for induced B field



--------------------------------------------------------------------------------------------------------


 conjugate gradient relaxation of ions
 charge density and potential will be updated during run
 spin polarized calculation
 RMM-DIIS sequential band-by-band and
  variant of blocked Davidson during initial phase
 perform sub-space diagonalisation
    before iterative eigenvector-optimisation
 modified Broyden-mixing scheme, WC =      100.0
 initial mixing is a Kerker type mixing with AMIX =  0.4000 and BMIX =      1.0000
 Hartree-type preconditioning will be used
 using additional bands           37
 real space projection scheme for non local part
 use partial core corrections
 calculate Harris-corrections to forces 
   (improved forces if not selfconsistent)
 use gradient corrections 
 use of overlap-Matrix (Vanderbilt PP)
 Gauss-broadening in eV      SIGMA  =   0.10


--------------------------------------------------------------------------------------------------------


  energy-cutoff  :      550.00
  volume of cell :     2848.21
      direct lattice vectors                 reciprocal lattice vectors
    14.878307727  0.000105424  0.000000000     0.067211667  0.039178051  0.000000000
    -7.439153864 12.762195204  0.000000000    -0.000000555  0.078356102  0.000000000
     0.000000000  0.000000000 15.000000000     0.000000000  0.000000000  0.066666667

  length of vectors
    14.878307728 14.772089786 15.000000000     0.077796709  0.078356102  0.066666667


 
 k-points in units of 2pi/SCALE and weight: K-Points                                
   0.00000000  0.00000000  0.00000000       0.250
   0.03360583  0.01958903  0.00000000       0.250
  -0.00000028  0.03917805  0.00000000       0.250
   0.03360556  0.05876708  0.00000000       0.250
 
 k-points in reciprocal lattice and weights: K-Points                                
   0.00000000  0.00000000  0.00000000       0.250
   0.50000000  0.00000000  0.00000000       0.250
  -0.00000000  0.50000000  0.00000000       0.250
   0.50000000  0.50000000  0.00000000       0.250
 
 position of ions in fractional coordinates (direct lattice) 
   0.00014703  0.99993181  0.49766807
   0.05571316  0.11129367  0.49774774
   0.16803225  0.00210520  0.49753985
   0.22355821  0.11343998  0.49825115
   0.33432830  0.00207694  0.49777234
   0.39014706  0.11341551  0.49841838
   0.50002407  0.99989044  0.49775648
   0.55582710  0.11125266  0.49767590
   0.66571506  0.99774295  0.49825147
   0.72152612  0.10907882  0.49753824
   0.83231512  0.99776674  0.49841003
   0.88783929  0.10910686  0.49776801
   0.99908442  0.16549374  0.49784405
   0.05430809  0.27667161  0.49853746
   0.16734775  0.16806595  0.49834347
   0.22284185  0.27957445  0.49997583
   0.33528932  0.17029644  0.49941211
   0.39084341  0.28141813  0.50254970
   0.50097822  0.16802960  0.49842000
   0.55697129  0.27954076  0.49998817
   0.66664919  0.16545038  0.49752014
   0.72257294  0.27663324  0.49802908
   0.83255361  0.16485921  0.49764969
   0.88821716  0.27620991  0.49780056
   0.99906908  0.33222521  0.49838447
   0.05442247  0.44382388  0.49884723
   0.16531768  0.33288444  0.50001215
   0.21898612  0.44382270  0.50165224
   0.33514858  0.33773328  0.50339031
   0.38694525  0.44827387  0.50958670
   0.50284791  0.33770682  0.50360105
   0.56160602  0.44823797  0.50998391
   0.66778145  0.33285443  0.49963749
   0.72504010  0.44380782  0.50114295
   0.83335701  0.33221195  0.49791518
   0.88957865  0.44380677  0.49825237
   0.00003314  0.49990030  0.49835048
   0.05573614  0.61130743  0.49834565
   0.16452790  0.49985599  0.50032235
   0.22027264  0.61134265  0.50031499
   0.32877881  0.49923631  0.50514604
   0.38513300  0.61194665  0.50514739
   0.67071104  0.49923365  0.50517220
   0.72707059  0.61195035  0.50517224
   0.83551700  0.49986026  0.49948453
   0.89125350  0.61133457  0.49948422
   0.00136430  0.66739252  0.49824937
   0.05673614  0.77898562  0.49790902
   0.16620335  0.66738054  0.49883406
   0.22244721  0.77897560  0.49837060
   0.33076298  0.66736579  0.50164604
   0.38803591  0.77830247  0.50000539
   0.49425975  0.66291375  0.50958718
   0.55300964  0.77344715  0.50338828
   0.66896610  0.66295341  0.50998288
   0.72073432  0.77348097  0.50359479
   0.83682433  0.66738081  0.50114212
   0.89051054  0.77833045  0.49963539
   0.00151950  0.83455528  0.49802741
   0.05677874  0.94573836  0.49751926
   0.16759972  0.83498348  0.49779087
   0.22328727  0.94632847  0.49764984
   0.33324173  0.83452222  0.49853136
   0.38919606  0.94569806  0.49784785
   0.49886656  0.83160652  0.49997424
   0.55488261  0.94311446  0.49834783
   0.66501623  0.82976534  0.50254304
   0.72058356  0.94088512  0.49940688
   0.83301728  0.83164625  0.49998031
   0.88852543  0.94315192  0.49840894
   0.52788678  0.55561308  0.55407295
 
 position of ions in cartesian coordinates  (Angst):
  -7.43645893 12.76132490  7.46502101
   0.00098677  1.42035737  7.46621609
   2.48437460  0.02688469  7.46309769
   2.48227038  1.44776676  7.47376727
   4.95878870  0.02654158  7.46658504
   4.96101252  1.44747206  7.47627575
   0.00117320 12.76084966  7.46634727
   7.44214093  1.41988678  7.46513856
   2.48235028 12.73346045  7.47377203
   9.92363354  1.39216125  7.46307356
   4.96090025 12.73378160  7.47615045
  12.39788345  1.39253665  7.46652020
  13.63355202  2.11216869  7.46766080
  -1.25019027  3.53094287  7.47806186
   1.23958287  2.14490807  7.47515208
   1.23571236  3.56800714  7.49963746
   3.72167632  2.17339173  7.49118168
   3.72157576  3.59155433  7.53824552
   6.20371007  2.14447940  7.47630003
   6.20724356  3.56761241  7.49982262
   8.68780104  2.11158030  7.46280215
   8.69274532  3.53052356  7.47043619
  11.16057575  2.10405319  7.46474541
  11.16040021  3.52513843  7.46700843
  12.39298273  4.24002833  7.47576708
  -2.49195986  5.66417272  7.48270852
  -0.01673121  4.24835367  7.50018218
  -0.04352248  5.66417505  7.52478359
   2.47399392  4.31025334  7.55085470
   2.42231217  5.72099937  7.64380057
   4.96927299  4.30993342  7.55401582
   5.02123589  5.72055973  7.64975858
   7.45930259  4.24802358  7.49456242
   7.48581505  5.66403852  7.51714419
   9.92756627  4.23984160  7.46872767
   9.93387816  5.66404236  7.47378561
  -3.71834223  6.37982525  7.47525727
  -3.71835051  7.80163060  7.47518475
  -1.27060894  6.37927707  7.50483528
  -1.27058799  7.80209747  7.50472492
   1.17777658  6.37138591  7.57719062
   1.17776199  7.80982318  7.57721079
   6.26516932  6.37138797  7.57758296
   6.26518706  7.80990654  7.57758361
   8.71254167  6.37940228  7.49226792
   8.71253189  7.80206507  7.49226324
  -4.94453714  8.51739379  7.47374059
  -4.95085604  9.94157246  7.46863529
  -2.49192199  8.51725823  7.48251084
  -2.48528121  9.94146208  7.47555906
  -0.04344336  8.51708741  7.52469062
  -0.01659412  9.93288892  7.50008080
   2.42223119  8.46028680  7.64380763
   2.47405524  9.87094181  7.55082413
   5.02127100  8.46081135  7.64974323
   4.96926315  9.87139105  7.55392179
   7.48578134  8.51733237  7.51713176
   7.45916989  9.93329897  7.49453080
  -6.18577746 10.65075751  7.47041111
  -6.19072161 12.06970350  7.46278894
  -3.71797037 10.65623981  7.46686302
  -3.71774635 12.07725221  7.46474766
  -1.25006613 10.65037063  7.47797042
  -1.24461459 12.06922431  7.46771775
   1.23584141 10.61317732  7.49961357
   1.23974067 12.03626939  7.47521740
   3.72156413 10.58969736  7.53814562
   3.72167477 12.00783549  7.49110317
   6.20714301 10.61371955  7.49970466
   6.20350242 12.03678263  7.47613410
   3.72077071  7.09089829  8.31109430
 


--------------------------------------------------------------------------------------------------------


 k-point  1 :   0.0000 0.0000 0.0000  plane waves:   83445
 k-point  2 :   0.5000 0.0000 0.0000  plane waves:   83448
 k-point  3 :  -0.0000 0.5000 0.0000  plane waves:   83436
 k-point  4 :   0.5000 0.5000 0.0000  plane waves:   83444

 maximum and minimum number of plane-waves per node :      6984     6935

 maximum number of plane-waves:     83448
 maximum index in each direction: 
   IXMAX=   28   IYMAX=   28   IZMAX=   28
   IXMIN=  -28   IYMIN=  -28   IZMIN=  -28


 real space projection operators:
  total allocation   :      18580.42 KBytes
  max/ min on nodes  :       1558.48       1535.16


 parallel 3D FFT for wavefunctions:
    minimum data exchange during FFTs selected (reduces bandwidth)
 parallel 3D FFT for charge:
    minimum data exchange during FFTs selected (reduces bandwidth)


 total amount of memory used by VASP MPI-rank0   135477. kBytes
=======================================================================

   base      :      30000. kBytes
   nonlr-proj:      10488. kBytes
   fftplans  :      14072. kBytes
   grid      :      39398. kBytes
   one-center:        186. kBytes
   wavefun   :      41333. kBytes
 
     INWAV:  cpu time    0.0000: real time    0.0000
 Broyden mixing: mesh for mixing (old mesh)
   NGX = 57   NGY = 57   NGZ = 57
  (NGX  =240   NGY  =240   NGZ  =240)
  gives a total of 185193 points

 initial charge density was supplied:
 charge density of overlapping atoms calculated
 number of electron     293.0000000 magnetization       1.0000000
 keeping initial charge density in first step


--------------------------------------------------------------------------------------------------------


 Maximum index for non-local projection operator          511
 Maximum index for augmentation-charges          402 (set IRDMAX)


--------------------------------------------------------------------------------------------------------


 First call to EWALD:  gamma=   0.125
 Maximum number of real-space cells 3x 3x 3
 Maximum number of reciprocal cells 3x 3x 3

    FEWALD:  cpu time    0.0050: real time    0.0052


--------------------------------------- Iteration      1(   1)  ---------------------------------------


    POTLOK:  cpu time    0.5397: real time    0.5668
    SETDIJ:  cpu time    0.0173: real time    0.0214
     EDDAV:  cpu time   16.7954: real time   17.2539
       DOS:  cpu time    0.0013: real time    0.0014
    --------------------------------------------
      LOOP:  cpu time   17.3536: real time   17.8435

 eigenvalue-minimisations  :  3248
 total energy-change (2. order) : 0.2744311E+04  (-0.1173057E+05)
 number of electron     293.0000000 magnetization       1.0000000
 augmentation part      293.0000000 magnetization       1.0000000

 Free energy of the ion-electron system (eV)
  ---------------------------------------------------
  alpha Z        PSCENC =       156.95040625
  Ewald energy   TEWEN  =     30386.92065522
  -Hartree energ DENC   =    -39552.63226426
  -exchange      EXHF   =         0.00000000
  -V(xc)+E(xc)   XCENC  =       982.47265178
  PAW double counting   =      9000.30529238    -9089.18527416
  entropy T*S    EENTRO =        -0.11220725
  eigenvalues    EBANDS =     -1206.16610461
  atomic energy  EATOM  =     12065.75791449
  Solvation  Ediel_sol  =         0.00000000
  ---------------------------------------------------
  free energy    TOTEN  =      2744.31106983 eV

  energy without entropy =     2744.42327708  energy(sigma->0) =     2744.36717346


--------------------------------------------------------------------------------------------------------




--------------------------------------- Iteration      1(   2)  ---------------------------------------


     EDDAV:  cpu time   21.6576: real time   21.9497
       DOS:  cpu time    0.0009: real time    0.0009
    --------------------------------------------
      LOOP:  cpu time   21.6585: real time   21.9505

 eigenvalue-minimisations  :  4296
 total energy-change (2. order) :-0.2916360E+04  (-0.2787045E+04)
 number of electron     293.0000000 magnetization       1.0000000
 augmentation part      293.0000000 magnetization       1.0000000

 Free energy of the ion-electron system (eV)
  ---------------------------------------------------
  alpha Z        PSCENC =       156.95040625
  Ewald energy   TEWEN  =     30386.92065522
  -Hartree energ DENC   =    -39552.63226426
  -exchange      EXHF   =         0.00000000
  -V(xc)+E(xc)   XCENC  =       982.47265178
  PAW double counting   =      9000.30529238    -9089.18527416
  entropy T*S    EENTRO =        -0.03102412
  eigenvalues    EBANDS =     -4122.60778246
  atomic energy  EATOM  =     12065.75791449
  Solvation  Ediel_sol  =         0.00000000
  ---------------------------------------------------
  free energy    TOTEN  =      -172.04942489 eV

  energy without entropy =     -172.01840077  energy(sigma->0) =     -172.03391283


--------------------------------------------------------------------------------------------------------




--------------------------------------- Iteration      1(   3)  ---------------------------------------


     EDDAV:  cpu time   18.5005: real time   18.7480
       DOS:  cpu time    0.0009: real time    0.0009
    --------------------------------------------
      LOOP:  cpu time   18.5014: real time   18.7489

 eigenvalue-minimisations  :  3560
 total energy-change (2. order) :-0.5144470E+03  (-0.5115488E+03)
 number of electron     293.0000000 magnetization       1.0000000
 augmentation part      293.0000000 magnetization       1.0000000

 Free energy of the ion-electron system (eV)
  ---------------------------------------------------
  alpha Z        PSCENC =       156.95040625
  Ewald energy   TEWEN  =     30386.92065522
  -Hartree energ DENC   =    -39552.63226426
  -exchange      EXHF   =         0.00000000
  -V(xc)+E(xc)   XCENC  =       982.47265178
  PAW double counting   =      9000.30529238    -9089.18527416
  entropy T*S    EENTRO =        -0.02054791
  eigenvalues    EBANDS =     -4637.06529414
  atomic energy  EATOM  =     12065.75791449
  Solvation  Ediel_sol  =         0.00000000
  ---------------------------------------------------
  free energy    TOTEN  =      -686.49646036 eV

  energy without entropy =     -686.47591245  energy(sigma->0) =     -686.48618640


--------------------------------------------------------------------------------------------------------




--------------------------------------- Iteration      1(   4)  ---------------------------------------


     EDDAV:  cpu time   18.7959: real time   18.9934
       DOS:  cpu time    0.0009: real time    0.0009
    --------------------------------------------
      LOOP:  cpu time   18.7968: real time   18.9943

 eigenvalue-minimisations  :  3552
 total energy-change (2. order) :-0.1957268E+02  (-0.1942390E+02)
 number of electron     293.0000000 magnetization       1.0000000
 augmentation part      293.0000000 magnetization       1.0000000

 Free energy of the ion-electron system (eV)
  ---------------------------------------------------
  alpha Z        PSCENC =       156.95040625
  Ewald energy   TEWEN  =     30386.92065522
  -Hartree energ DENC   =    -39552.63226426
  -exchange      EXHF   =         0.00000000
  -V(xc)+E(xc)   XCENC  =       982.47265178
  PAW double counting   =      9000.30529238    -9089.18527416
  entropy T*S    EENTRO =        -0.01493212
  eigenvalues    EBANDS =     -4656.64358947
  atomic energy  EATOM  =     12065.75791449
  Solvation  Ediel_sol  =         0.00000000
  ---------------------------------------------------
  free energy    TOTEN  =      -706.06913989 eV

  energy without entropy =     -706.05420777  energy(sigma->0) =     -706.06167383


--------------------------------------------------------------------------------------------------------




--------------------------------------- Iteration      1(   5)  ---------------------------------------


     EDDAV:  cpu time   20.6685: real time   20.9221
       DOS:  cpu time    0.0010: real time    0.0010
    CHARGE:  cpu time    0.9592: real time    0.9728
    MIXING:  cpu time    0.0087: real time    0.0116
    --------------------------------------------
      LOOP:  cpu time   21.6374: real time   21.9075

 eigenvalue-minimisations  :  4016
 total energy-change (2. order) :-0.6199517E+00  (-0.6182413E+00)
 number of electron     292.9999997 magnetization       0.7666150
 augmentation part       11.6515237 magnetization       0.7777928

 Broyden mixing:
  rms(total) = 0.46735E+01    rms(broyden)= 0.46731E+01
  rms(prec ) = 0.54619E+01
  weight for this iteration     100.00

 Free energy of the ion-electron system (eV)
  ---------------------------------------------------
  alpha Z        PSCENC =       156.95040625
  Ewald energy   TEWEN  =     30386.92065522
  -Hartree energ DENC   =    -39552.63226426
  -exchange      EXHF   =         0.00000000
  -V(xc)+E(xc)   XCENC  =       982.47265178
  PAW double counting   =      9000.30529238    -9089.18527416
  entropy T*S    EENTRO =        -0.01514050
  eigenvalues    EBANDS =     -4657.26333282
  atomic energy  EATOM  =     12065.75791449
  Solvation  Ediel_sol  =         0.00000000
  ---------------------------------------------------
  free energy    TOTEN  =      -706.68909163 eV

  energy without entropy =     -706.67395113  energy(sigma->0) =     -706.68152138


--------------------------------------------------------------------------------------------------------




--------------------------------------- Iteration      1(   6)  ---------------------------------------


    POTLOK:  cpu time    0.5592: real time    0.5708
    SETDIJ:  cpu time    0.0149: real time    0.0156
    EDDIAG:  cpu time    3.2750: real time    3.3139
  RMM-DIIS:  cpu time   18.0324: real time   18.1789
    ORTHCH:  cpu time    0.2728: real time    0.2735
       DOS:  cpu time    0.0010: real time    0.0010
    CHARGE:  cpu time    0.9583: real time    0.9736
    MIXING:  cpu time    0.0091: real time    0.0100
    --------------------------------------------
      LOOP:  cpu time   23.1227: real time   23.3374

 eigenvalue-minimisations  :  4157
 total energy-change (2. order) :-0.3014975E+02  (-0.5345109E+02)
 number of electron     293.0000007 magnetization       0.7215077
 augmentation part       17.4203922 magnetization       0.7934639

 Broyden mixing:
  rms(total) = 0.87506E+01    rms(broyden)= 0.87505E+01
  rms(prec ) = 0.96189E+01
  weight for this iteration     100.00

 eigenvalues of (default mixing * dielectric matrix)
  average eigenvalue GAMMA=   0.2032
  0.2032

 Free energy of the ion-electron system (eV)
  ---------------------------------------------------
  alpha Z        PSCENC =       156.95040625
  Ewald energy   TEWEN  =     30386.92065522
  -Hartree energ DENC   =    -39846.19005122
  -exchange      EXHF   =         0.00000000
  -V(xc)+E(xc)   XCENC  =       996.43974363
  PAW double counting   =     15150.05351332   -15238.56801571
  entropy T*S    EENTRO =        -0.06327079
  eigenvalues    EBANDS =     -4408.13973886
  atomic energy  EATOM  =     12065.75791449
  Solvation  Ediel_sol  =         0.00000000
  ---------------------------------------------------
  free energy    TOTEN  =      -736.83884367 eV

  energy without entropy =     -736.77557288  energy(sigma->0) =     -736.80720827


--------------------------------------------------------------------------------------------------------




--------------------------------------- Iteration      1(   7)  ---------------------------------------


    POTLOK:  cpu time    0.5539: real time    0.5612
    SETDIJ:  cpu time    0.0153: real time    0.0153
    EDDIAG:  cpu time    3.1561: real time    3.1845
  RMM-DIIS:  cpu time   13.1506: real time   13.2684
    ORTHCH:  cpu time    0.4671: real time    0.4689
       DOS:  cpu time    0.0010: real time    0.0010
    CHARGE:  cpu time    0.9670: real time    0.9824
    MIXING:  cpu time    0.0094: real time    0.0098
    --------------------------------------------
      LOOP:  cpu time   18.3204: real time   18.4915

 eigenvalue-minimisations  :  3001
 total energy-change (2. order) : 0.7098663E+02  (-0.5270830E+01)
 number of electron     293.0000005 magnetization       0.6330410
 augmentation part       15.6292399 magnetization       0.5792630

 Broyden mixing:
  rms(total) = 0.35944E+01    rms(broyden)= 0.35943E+01
  rms(prec ) = 0.43553E+01
  weight for this iteration     100.00

 eigenvalues of (default mixing * dielectric matrix)
  average eigenvalue GAMMA=   0.4605
  0.4605  0.4605

 Free energy of the ion-electron system (eV)
  ---------------------------------------------------
  alpha Z        PSCENC =       156.95040625
  Ewald energy   TEWEN  =     30386.92065522
  -Hartree energ DENC   =    -39965.71768946
  -exchange      EXHF   =         0.00000000
  -V(xc)+E(xc)   XCENC  =      1000.86868977
  PAW double counting   =     16693.23806395   -16788.43210588
  entropy T*S    EENTRO =        -0.04875685
  eigenvalues    EBANDS =     -4215.38939461
  atomic energy  EATOM  =     12065.75791449
  Solvation  Ediel_sol  =         0.00000000
  ---------------------------------------------------
  free energy    TOTEN  =      -665.85221711 eV

  energy without entropy =     -665.80346026  energy(sigma->0) =     -665.82783869


--------------------------------------------------------------------------------------------------------




--------------------------------------- Iteration      1(   8)  ---------------------------------------


    POTLOK:  cpu time    0.5351: real time    0.5389
    SETDIJ:  cpu time    0.0150: real time    0.0151
    EDDIAG:  cpu time    3.2535: real time    3.2784
  RMM-DIIS:  cpu time   13.8000: real time   13.9067
    ORTHCH:  cpu time    0.5029: real time    0.5036
       DOS:  cpu time    0.0009: real time    0.0009
    CHARGE:  cpu time    0.9663: real time    0.9795
    MIXING:  cpu time    0.0100: real time    0.0104
    --------------------------------------------
      LOOP:  cpu time   19.0838: real time   19.2335

 eigenvalue-minimisations  :  3156
 total energy-change (2. order) :-0.3064809E+00  (-0.2141879E+01)
 number of electron     292.9999999 magnetization       0.3630788
 augmentation part       11.1574176 magnetization       0.3276356

 Broyden mixing:
  rms(total) = 0.29516E+01    rms(broyden)= 0.29514E+01
  rms(prec ) = 0.36316E+01
  weight for this iteration     100.00

 eigenvalues of (default mixing * dielectric matrix)
  average eigenvalue GAMMA=   0.8440
  1.8565  0.3378  0.3378

 Free energy of the ion-electron system (eV)
  ---------------------------------------------------
  alpha Z        PSCENC =       156.95040625
  Ewald energy   TEWEN  =     30386.92065522
  -Hartree energ DENC   =    -40143.57685906
  -exchange      EXHF   =         0.00000000
  -V(xc)+E(xc)   XCENC  =      1007.34658021
  PAW double counting   =     19406.78728247   -19506.25188453
  entropy T*S    EENTRO =        -0.01250430
  eigenvalues    EBANDS =     -4040.08028874
  atomic energy  EATOM  =     12065.75791449
  Solvation  Ediel_sol  =         0.00000000
  ---------------------------------------------------
  free energy    TOTEN  =      -666.15869800 eV

  energy without entropy =     -666.14619370  energy(sigma->0) =     -666.15244585


--------------------------------------------------------------------------------------------------------




--------------------------------------- Iteration      1(   9)  ---------------------------------------


    POTLOK:  cpu time    0.5422: real time    0.5471
    SETDIJ:  cpu time    0.0150: real time    0.0154
    EDDIAG:  cpu time    3.2323: real time    3.2582
  RMM-DIIS:  cpu time   12.9076: real time   13.0006
    ORTHCH:  cpu time    0.5768: real time    0.5791
       DOS:  cpu time    0.0010: real time    0.0010
    CHARGE:  cpu time    0.9783: real time    0.9892
    MIXING:  cpu time    0.0102: real time    0.0104
    --------------------------------------------
      LOOP:  cpu time   18.2633: real time   18.4009

 eigenvalue-minimisations  :  2967
 total energy-change (2. order) : 0.1682301E+02  (-0.2123160E+01)
 number of electron     293.0000001 magnetization       0.2750325
 augmentation part       11.7987590 magnetization       0.2787349

 Broyden mixing:
  rms(total) = 0.14967E+01    rms(broyden)= 0.14966E+01
  rms(prec ) = 0.17962E+01
  weight for this iteration     100.00

 eigenvalues of (default mixing * dielectric matrix)
  average eigenvalue GAMMA=   0.9189
  2.2375  0.7301  0.3539  0.3539

 Free energy of the ion-electron system (eV)
  ---------------------------------------------------
  alpha Z        PSCENC =       156.95040625
  Ewald energy   TEWEN  =     30386.92065522
  -Hartree energ DENC   =    -40466.60949228
  -exchange      EXHF   =         0.00000000
  -V(xc)+E(xc)   XCENC  =      1020.95771945
  PAW double counting   =     28005.16754960   -28107.62815637
  entropy T*S    EENTRO =        -0.00853575
  eigenvalues    EBANDS =     -3710.84374828
  atomic energy  EATOM  =     12065.75791449
  Solvation  Ediel_sol  =         0.00000000
  ---------------------------------------------------
  free energy    TOTEN  =      -649.33568767 eV

  energy without entropy =     -649.32715193  energy(sigma->0) =     -649.33141980


--------------------------------------------------------------------------------------------------------




--------------------------------------- Iteration      1(  10)  ---------------------------------------


    POTLOK:  cpu time    0.5267: real time    0.5310
    SETDIJ:  cpu time    0.0218: real time    0.0220
    EDDIAG:  cpu time    3.2641: real time    3.2884
  RMM-DIIS:  cpu time   13.0496: real time   13.1584
    ORTHCH:  cpu time    0.3838: real time    0.3855
       DOS:  cpu time    0.0008: real time    0.0008
    CHARGE:  cpu time    0.9740: real time    0.9845
    MIXING:  cpu time    0.0119: real time    0.0125
    --------------------------------------------
      LOOP:  cpu time   18.2326: real time   18.3831

 eigenvalue-minimisations  :  2986
 total energy-change (2. order) :-0.8826274E+00  (-0.6434016E+00)
 number of electron     293.0000005 magnetization       0.2201657
 augmentation part       13.9290361 magnetization       0.2479267

 Broyden mixing:
  rms(total) = 0.16355E+01    rms(broyden)= 0.16351E+01
  rms(prec ) = 0.20430E+01
  weight for this iteration     100.00

 eigenvalues of (default mixing * dielectric matrix)
  average eigenvalue GAMMA=   0.9038
  2.2999  1.0476  0.3475  0.3475  0.4766

 Free energy of the ion-electron system (eV)
  ---------------------------------------------------
  alpha Z        PSCENC =       156.95040625
  Ewald energy   TEWEN  =     30386.92065522
  -Hartree energ DENC   =    -40503.69062797
  -exchange      EXHF   =         0.00000000
  -V(xc)+E(xc)   XCENC  =      1021.61344787
  PAW double counting   =     29482.36360472   -29583.42179024
  entropy T*S    EENTRO =        -0.00000366
  eigenvalues    EBANDS =     -3676.71192178
  atomic energy  EATOM  =     12065.75791449
  Solvation  Ediel_sol  =         0.00000000
  ---------------------------------------------------
  free energy    TOTEN  =      -650.21831510 eV

  energy without entropy =     -650.21831143  energy(sigma->0) =     -650.21831326


--------------------------------------------------------------------------------------------------------




--------------------------------------- Iteration      1(  11)  ---------------------------------------


    POTLOK:  cpu time    0.5316: real time    0.5358
    SETDIJ:  cpu time    0.0157: real time    0.0158
    EDDIAG:  cpu time    3.2539: real time    3.2862
  RMM-DIIS:  cpu time   14.2928: real time   14.4057
    ORTHCH:  cpu time    0.6316: real time    0.6334
       DOS:  cpu time    0.0010: real time    0.0010
    CHARGE:  cpu time    0.9718: real time    0.9820
    MIXING:  cpu time    0.0126: real time    0.0126
    --------------------------------------------
      LOOP:  cpu time   19.7111: real time   19.8724

 eigenvalue-minimisations  :  3309
 total energy-change (2. order) : 0.1673644E+01  (-0.3276450E-01)
 number of electron     293.0000004 magnetization       0.1787811
 augmentation part       13.4928406 magnetization       0.1580663

 Broyden mixing:
  rms(total) = 0.11492E+01    rms(broyden)= 0.11492E+01
  rms(prec ) = 0.13944E+01
  weight for this iteration     100.00

 eigenvalues of (default mixing * dielectric matrix)
  average eigenvalue GAMMA=   0.9387
  2.2680  1.3533  0.3543  0.3543  0.6511  0.6511

 Free energy of the ion-electron system (eV)
  ---------------------------------------------------
  alpha Z        PSCENC =       156.95040625
  Ewald energy   TEWEN  =     30386.92065522
  -Hartree energ DENC   =    -40529.69133893
  -exchange      EXHF   =         0.00000000
  -V(xc)+E(xc)   XCENC  =      1021.79620563
  PAW double counting   =     29985.68039842   -30086.08005088
  entropy T*S    EENTRO =        -0.02174022
  eigenvalues    EBANDS =     -3649.85712094
  atomic energy  EATOM  =     12065.75791449
  Solvation  Ediel_sol  =         0.00000000
  ---------------------------------------------------
  free energy    TOTEN  =      -648.54467096 eV

  energy without entropy =     -648.52293074  energy(sigma->0) =     -648.53380085


--------------------------------------------------------------------------------------------------------




--------------------------------------- Iteration      1(  12)  ---------------------------------------


    POTLOK:  cpu time    0.5364: real time    0.5403
    SETDIJ:  cpu time    0.0157: real time    0.0157
    EDDIAG:  cpu time    3.2999: real time    3.3261
  RMM-DIIS:  cpu time   13.2442: real time   13.3371
    ORTHCH:  cpu time    0.6302: real time    0.6368
       DOS:  cpu time    0.0010: real time    0.0010
    CHARGE:  cpu time    0.9992: real time    1.0090
    MIXING:  cpu time    0.0125: real time    0.0129
    --------------------------------------------
      LOOP:  cpu time   18.7391: real time   18.8789

 eigenvalue-minimisations  :  3045
 total energy-change (2. order) : 0.3967738E+00  (-0.2201212E-01)
 number of electron     293.0000003 magnetization       0.2173433
 augmentation part       13.0064400 magnetization      -0.1411487

 Broyden mixing:
  rms(total) = 0.79793E+00    rms(broyden)= 0.79758E+00
  rms(prec ) = 0.85213E+00
  weight for this iteration     100.00

 eigenvalues of (default mixing * dielectric matrix)
  average eigenvalue GAMMA=   0.8604
  2.1565  1.7646  0.5321  0.5321  0.3572  0.3572  0.3229

 Free energy of the ion-electron system (eV)
  ---------------------------------------------------
  alpha Z        PSCENC =       156.95040625
  Ewald energy   TEWEN  =     30386.92065522
  -Hartree energ DENC   =    -40559.94493757
  -exchange      EXHF   =         0.00000000
  -V(xc)+E(xc)   XCENC  =      1021.84455878
  PAW double counting   =     30329.99607582   -30429.37236721
  entropy T*S    EENTRO =        -0.04641176
  eigenvalues    EBANDS =     -3620.25379117
  atomic energy  EATOM  =     12065.75791449
  Solvation  Ediel_sol  =         0.00000000
  ---------------------------------------------------
  free energy    TOTEN  =      -648.14789716 eV

  energy without entropy =     -648.10148539  energy(sigma->0) =     -648.12469128


--------------------------------------------------------------------------------------------------------




--------------------------------------- Iteration      1(  13)  ---------------------------------------


    POTLOK:  cpu time    0.5354: real time    0.5402
    SETDIJ:  cpu time    0.0148: real time    0.0156
    EDDIAG:  cpu time    3.3761: real time    3.4023
  RMM-DIIS:  cpu time   12.9928: real time   13.0853
    ORTHCH:  cpu time    0.5212: real time    0.5222
       DOS:  cpu time    0.0009: real time    0.0009
    CHARGE:  cpu time    0.9955: real time    1.0053
    MIXING:  cpu time    0.0133: real time    0.0134
    --------------------------------------------
      LOOP:  cpu time   18.4501: real time   18.5853

 eigenvalue-minimisations  :  2981
 total energy-change (2. order) :-0.2207691E+00  (-0.8580410E-02)
 number of electron     293.0000004 magnetization       0.3958100
 augmentation part       13.1039233 magnetization      -0.0246375

 Broyden mixing:
  rms(total) = 0.78521E+00    rms(broyden)= 0.78517E+00
  rms(prec ) = 0.86903E+00
  weight for this iteration     100.00

 eigenvalues of (default mixing * dielectric matrix)
  average eigenvalue GAMMA=   0.9335
  2.0382  2.0382  0.7829  0.7829  0.3533  0.3533  0.5599  0.5599

 Free energy of the ion-electron system (eV)
  ---------------------------------------------------
  alpha Z        PSCENC =       156.95040625
  Ewald energy   TEWEN  =     30386.92065522
  -Hartree energ DENC   =    -40567.22372752
  -exchange      EXHF   =         0.00000000
  -V(xc)+E(xc)   XCENC  =      1021.74038426
  PAW double counting   =     30416.85670633   -30515.72143492
  entropy T*S    EENTRO =        -0.02449240
  eigenvalues    EBANDS =     -3613.62507795
  atomic energy  EATOM  =     12065.75791449
  Solvation  Ediel_sol  =         0.00000000
  ---------------------------------------------------
  free energy    TOTEN  =      -648.36866625 eV

  energy without entropy =     -648.34417385  energy(sigma->0) =     -648.35642005


--------------------------------------------------------------------------------------------------------




--------------------------------------- Iteration      1(  14)  ---------------------------------------


    POTLOK:  cpu time    0.5400: real time    0.5444
    SETDIJ:  cpu time    0.0148: real time    0.0149
    EDDIAG:  cpu time    3.3522: real time    3.3856
  RMM-DIIS:  cpu time   12.9510: real time   13.0476
    ORTHCH:  cpu time    0.2365: real time    0.2377
       DOS:  cpu time    0.0009: real time    0.0009
    CHARGE:  cpu time    0.9760: real time    0.9877
    MIXING:  cpu time    0.0117: real time    0.0117
    --------------------------------------------
      LOOP:  cpu time   18.0832: real time   18.2305

 eigenvalue-minimisations  :  2964
 total energy-change (2. order) :-0.1821672E-01  (-0.1880534E-01)
 number of electron     293.0000003 magnetization       0.6119273
 augmentation part       13.0425891 magnetization       0.2169498

 Broyden mixing:
  rms(total) = 0.59713E+00    rms(broyden)= 0.59712E+00
  rms(prec ) = 0.66866E+00
  weight for this iteration     100.00

 eigenvalues of (default mixing * dielectric matrix)
  average eigenvalue GAMMA=   0.9605
  2.0971  2.0971  1.0291  1.0291  0.3537  0.3537  0.5149  0.5849  0.5849

 Free energy of the ion-electron system (eV)
  ---------------------------------------------------
  alpha Z        PSCENC =       156.95040625
  Ewald energy   TEWEN  =     30386.92065522
  -Hartree energ DENC   =    -40578.44330880
  -exchange      EXHF   =         0.00000000
  -V(xc)+E(xc)   XCENC  =      1021.99121782
  PAW double counting   =     30422.94176960   -30521.81718738
  entropy T*S    EENTRO =        -0.02935631
  eigenvalues    EBANDS =     -3602.65899386
  atomic energy  EATOM  =     12065.75791449
  Solvation  Ediel_sol  =         0.00000000
  ---------------------------------------------------
  free energy    TOTEN  =      -648.38688297 eV

  energy without entropy =     -648.35752666  energy(sigma->0) =     -648.37220481


--------------------------------------------------------------------------------------------------------




--------------------------------------- Iteration      1(  15)  ---------------------------------------


    POTLOK:  cpu time    0.5345: real time    0.5397
    SETDIJ:  cpu time    0.0152: real time    0.0153
    EDDIAG:  cpu time    3.2447: real time    3.2667
  RMM-DIIS:  cpu time   12.9055: real time   13.0037
    ORTHCH:  cpu time    0.4616: real time    0.4635
       DOS:  cpu time    0.0009: real time    0.0009
    CHARGE:  cpu time    0.9845: real time    0.9938
    MIXING:  cpu time    0.0139: real time    0.0140
    --------------------------------------------
      LOOP:  cpu time   18.1609: real time   18.2974

 eigenvalue-minimisations  :  2973
 total energy-change (2. order) : 0.5939722E-01  (-0.1823245E-01)
 number of electron     293.0000003 magnetization       0.6245828
 augmentation part       13.1035538 magnetization       0.0920350

 Broyden mixing:
  rms(total) = 0.60626E+00    rms(broyden)= 0.60622E+00
  rms(prec ) = 0.70099E+00
  weight for this iteration     100.00

 eigenvalues of (default mixing * dielectric matrix)
  average eigenvalue GAMMA=   0.9286
  2.0925  2.0925  1.1808  1.1808  0.5981  0.5981  0.3534  0.3534  0.4861  0.3498

 Free energy of the ion-electron system (eV)
  ---------------------------------------------------
  alpha Z        PSCENC =       156.95040625
  Ewald energy   TEWEN  =     30386.92065522
  -Hartree energ DENC   =    -40592.87993261
  -exchange      EXHF   =         0.00000000
  -V(xc)+E(xc)   XCENC  =      1022.36592407
  PAW double counting   =     30440.20083373   -30538.96899562
  entropy T*S    EENTRO =        -0.03884311
  eigenvalues    EBANDS =     -3588.63544817
  atomic energy  EATOM  =     12065.75791449
  Solvation  Ediel_sol  =         0.00000000
  ---------------------------------------------------
  free energy    TOTEN  =      -648.32748575 eV

  energy without entropy =     -648.28864264  energy(sigma->0) =     -648.30806419


--------------------------------------------------------------------------------------------------------




--------------------------------------- Iteration      1(  16)  ---------------------------------------


    POTLOK:  cpu time    0.5387: real time    0.5429
    SETDIJ:  cpu time    0.0153: real time    0.0155
    EDDIAG:  cpu time    3.1970: real time    3.2245
  RMM-DIIS:  cpu time   14.8798: real time   14.9819
    ORTHCH:  cpu time    0.2866: real time    0.2875
       DOS:  cpu time    0.0010: real time    0.0010
    CHARGE:  cpu time    0.9917: real time    1.0041
    MIXING:  cpu time    0.0128: real time    0.0129
    --------------------------------------------
      LOOP:  cpu time   19.9229: real time   20.0704

 eigenvalue-minimisations  :  3420
 total energy-change (2. order) :-0.9268682E-02  (-0.2637729E-02)
 number of electron     293.0000003 magnetization       0.6155956
 augmentation part       13.1192471 magnetization       0.0765132

 Broyden mixing:
  rms(total) = 0.62164E+00    rms(broyden)= 0.62164E+00
  rms(prec ) = 0.72233E+00
  weight for this iteration     100.00

 eigenvalues of (default mixing * dielectric matrix)
  average eigenvalue GAMMA=   0.8761
  2.1015  2.1015  1.1857  1.1857  0.6247  0.6247  0.3534  0.3534  0.4617  0.4617
  0.1833

 Free energy of the ion-electron system (eV)
  ---------------------------------------------------
  alpha Z        PSCENC =       156.95040625
  Ewald energy   TEWEN  =     30386.92065522
  -Hartree energ DENC   =    -40593.20309882
  -exchange      EXHF   =         0.00000000
  -V(xc)+E(xc)   XCENC  =      1022.37919087
  PAW double counting   =     30439.53552462   -30538.28478744
  entropy T*S    EENTRO =        -0.03871833
  eigenvalues    EBANDS =     -3588.35384128
  atomic energy  EATOM  =     12065.75791449
  Solvation  Ediel_sol  =         0.00000000
  ---------------------------------------------------
  free energy    TOTEN  =      -648.33675443 eV

  energy without entropy =     -648.29803609  energy(sigma->0) =     -648.31739526


--------------------------------------------------------------------------------------------------------




--------------------------------------- Iteration      1(  17)  ---------------------------------------


    POTLOK:  cpu time    0.5360: real time    0.5406
    SETDIJ:  cpu time    0.0146: real time    0.0202
    EDDIAG:  cpu time    3.2603: real time    3.2903
  RMM-DIIS:  cpu time   13.8821: real time   13.9810
    ORTHCH:  cpu time    0.3657: real time    0.3668
       DOS:  cpu time    0.0009: real time    0.0009
    CHARGE:  cpu time    0.9816: real time    0.9910
    MIXING:  cpu time    0.0130: real time    0.0131
    --------------------------------------------
      LOOP:  cpu time   19.0543: real time   19.2039

 eigenvalue-minimisations  :  3198
 total energy-change (2. order) :-0.3163737E-01  (-0.4798578E-03)
 number of electron     293.0000003 magnetization       0.5676069
 augmentation part       13.1481426 magnetization       0.0069618

 Broyden mixing:
  rms(total) = 0.66095E+00    rms(broyden)= 0.66095E+00
  rms(prec ) = 0.77102E+00
  weight for this iteration     100.00

 eigenvalues of (default mixing * dielectric matrix)
  average eigenvalue GAMMA=   0.8883
  2.1136  2.1136  1.1682  1.1682  0.8510  0.6378  0.6378  0.3533  0.3533  0.4948
  0.3842  0.3842

 Free energy of the ion-electron system (eV)
  ---------------------------------------------------
  alpha Z        PSCENC =       156.95040625
  Ewald energy   TEWEN  =     30386.92065522
  -Hartree energ DENC   =    -40593.24374444
  -exchange      EXHF   =         0.00000000
  -V(xc)+E(xc)   XCENC  =      1022.35158434
  PAW double counting   =     30446.53127307   -30545.25372012
  entropy T*S    EENTRO =        -0.03864720
  eigenvalues    EBANDS =     -3588.34411342
  atomic energy  EATOM  =     12065.75791449
  Solvation  Ediel_sol  =         0.00000000
  ---------------------------------------------------
  free energy    TOTEN  =      -648.36839180 eV

  energy without entropy =     -648.32974459  energy(sigma->0) =     -648.34906820


--------------------------------------------------------------------------------------------------------




--------------------------------------- Iteration      1(  18)  ---------------------------------------


    POTLOK:  cpu time    0.5117: real time    0.5193
    SETDIJ:  cpu time    0.0148: real time    0.0148
    EDDIAG:  cpu time    3.2328: real time    3.2573
  RMM-DIIS:  cpu time   13.0005: real time   13.0986
    ORTHCH:  cpu time    0.5100: real time    0.5107
       DOS:  cpu time    0.0010: real time    0.0010
    CHARGE:  cpu time    1.0110: real time    1.0233
    MIXING:  cpu time    0.0148: real time    0.0149
    --------------------------------------------
      LOOP:  cpu time   18.2965: real time   18.4399

 eigenvalue-minimisations  :  2977
 total energy-change (2. order) :-0.1105564E-01  (-0.4434870E-03)
 number of electron     293.0000003 magnetization       0.0334768
 augmentation part       13.1573911 magnetization      -0.5077278

 Broyden mixing:
  rms(total) = 0.67277E+00    rms(broyden)= 0.67277E+00
  rms(prec ) = 0.78684E+00
  weight for this iteration     100.00

 eigenvalues of (default mixing * dielectric matrix)
  average eigenvalue GAMMA=   1.1128
  3.1492  2.1791  2.1791  1.3010  1.3010  0.7560  0.7560  0.3535  0.3535  0.5719
  0.5719  0.4968  0.4968

 Free energy of the ion-electron system (eV)
  ---------------------------------------------------
  alpha Z        PSCENC =       156.95040625
  Ewald energy   TEWEN  =     30386.92065522
  -Hartree energ DENC   =    -40592.33460896
  -exchange      EXHF   =         0.00000000
  -V(xc)+E(xc)   XCENC  =      1022.29420048
  PAW double counting   =     30459.04054282   -30557.72888357
  entropy T*S    EENTRO =        -0.04008913
  eigenvalues    EBANDS =     -3589.23958504
  atomic energy  EATOM  =     12065.75791449
  Solvation  Ediel_sol  =         0.00000000
  ---------------------------------------------------
  free energy    TOTEN  =      -648.37944744 eV

  energy without entropy =     -648.33935831  energy(sigma->0) =     -648.35940287


--------------------------------------------------------------------------------------------------------




--------------------------------------- Iteration      1(  19)  ---------------------------------------


    POTLOK:  cpu time    0.5252: real time    0.5298
    SETDIJ:  cpu time    0.0149: real time    0.0151
    EDDIAG:  cpu time    3.3697: real time    3.3915
  RMM-DIIS:  cpu time   12.9599: real time   13.0604
    ORTHCH:  cpu time    0.5807: real time    0.5842
       DOS:  cpu time    0.0010: real time    0.0010
    CHARGE:  cpu time    0.9749: real time    0.9837
    MIXING:  cpu time    0.0149: real time    0.0152
    --------------------------------------------
      LOOP:  cpu time   18.4412: real time   18.5808

 eigenvalue-minimisations  :  2958
 total energy-change (2. order) : 0.2977972E+00  (-0.5520254E-01)
 number of electron     293.0000003 magnetization      -0.3481168
 augmentation part       12.9071570 magnetization      -0.6828811

 Broyden mixing:
  rms(total) = 0.51210E+00    rms(broyden)= 0.51203E+00
  rms(prec ) = 0.54548E+00
  weight for this iteration     100.00

 eigenvalues of (default mixing * dielectric matrix)
  average eigenvalue GAMMA=   1.1296
  4.0647  2.1501  2.1501  1.2864  1.2864  0.7878  0.7878  0.3535  0.3535  0.5340
  0.5340  0.5689  0.5689  0.3878

 Free energy of the ion-electron system (eV)
  ---------------------------------------------------
  alpha Z        PSCENC =       156.95040625
  Ewald energy   TEWEN  =     30386.92065522
  -Hartree energ DENC   =    -40594.01493413
  -exchange      EXHF   =         0.00000000
  -V(xc)+E(xc)   XCENC  =      1022.19976025
  PAW double counting   =     30537.41309669   -30635.72480879
  entropy T*S    EENTRO =        -0.03136187
  eigenvalues    EBANDS =     -3587.55237839
  atomic energy  EATOM  =     12065.75791449
  Solvation  Ediel_sol  =         0.00000000
  ---------------------------------------------------
  free energy    TOTEN  =      -648.08165027 eV

  energy without entropy =     -648.05028840  energy(sigma->0) =     -648.06596934


--------------------------------------------------------------------------------------------------------




--------------------------------------- Iteration      1(  20)  ---------------------------------------


    POTLOK:  cpu time    0.5372: real time    0.5440
    SETDIJ:  cpu time    0.0156: real time    0.0157
    EDDIAG:  cpu time    3.2784: real time    3.3019
  RMM-DIIS:  cpu time   13.2263: real time   13.3284
    ORTHCH:  cpu time    0.2871: real time    0.2884
       DOS:  cpu time    0.0009: real time    0.0009
    CHARGE:  cpu time    0.9803: real time    0.9895
    MIXING:  cpu time    0.0166: real time    0.0168
    --------------------------------------------
      LOOP:  cpu time   18.3424: real time   18.4856

 eigenvalue-minimisations  :  3002
 total energy-change (2. order) : 0.6150372E+00  (-0.8477783E-01)
 number of electron     293.0000003 magnetization      -0.3514269
 augmentation part       13.0832142 magnetization      -0.4110286

 Broyden mixing:
  rms(total) = 0.67203E+00    rms(broyden)= 0.67195E+00
  rms(prec ) = 0.77800E+00
  weight for this iteration     100.00

 eigenvalues of (default mixing * dielectric matrix)
  average eigenvalue GAMMA=   1.0612
  4.0883  2.1300  2.1300  1.2599  1.2599  0.7574  0.7574  0.5717  0.5717  0.3535
  0.3535  0.5219  0.5219  0.3208  0.3208

 Free energy of the ion-electron system (eV)
  ---------------------------------------------------
  alpha Z        PSCENC =       156.95040625
  Ewald energy   TEWEN  =     30386.92065522
  -Hartree energ DENC   =    -40587.70777731
  -exchange      EXHF   =         0.00000000
  -V(xc)+E(xc)   XCENC  =      1022.62494819
  PAW double counting   =     30543.94065863   -30642.11607190
  entropy T*S    EENTRO =        -0.02511778
  eigenvalues    EBANDS =     -3593.81222884
  atomic energy  EATOM  =     12065.75791449
  Solvation  Ediel_sol  =         0.00000000
  ---------------------------------------------------
  free energy    TOTEN  =      -647.46661304 eV

  energy without entropy =     -647.44149526  energy(sigma->0) =     -647.45405415


[...]
  E(xc)   -1111.28481 -1110.90106 -1150.32265    -0.01764    -0.00572    -0.01054
  Local  -83628.22990-83627.61935 85980.24771    53.78680    34.13364   -36.81223
  n-local  -288.80101  -286.74124  -264.58835     1.26766    -0.48073     0.13695
  augment    66.02382    65.17443    66.05294    -1.71042     0.33939     0.21358
  Kinetic  4390.74966  4373.71078  4968.15654    -5.02118     1.14865    -1.23525
  Fock        0.00000     0.00000     0.00000     0.00000     0.00000     0.00000
  vdW        -1.60632    -1.73429    -0.04508     0.03109     0.00156    -0.00051
  -------------------------------------------------------------------------------------
  Total      -0.07968    -0.12510    -0.77118     0.21237     0.00679    -0.00442
  in kB      -0.04477    -0.07029    -0.43333     0.11933     0.00382    -0.00249
  external pressure =       -0.18 kB  Pullay stress =        0.00 kB


 VOLUME and BASIS-vectors are now :
 -----------------------------------------------------------------------------
  energy-cutoff  :      550.00
  volume of cell :     2851.36
      direct lattice vectors                 reciprocal lattice vectors
    14.900557007 -0.060417792  0.000000000     0.067270503  0.039193260  0.000000000
    -7.450278504 12.787504481  0.000000000     0.000317836  0.078386520  0.000000000
     0.000000000  0.000000000 15.000000000     0.000000000  0.000000000  0.066666667

  length of vectors
    14.900679496 14.799558123 15.000000000     0.077855200  0.078387164  0.066666667


 FORCES acting on ions
    electron-ion (+dipol)            ewald-force                    non-local-force                 convergence-correction
 -----------------------------------------------------------------------------------------------
   0.210E+01 0.354E-01 0.683E+01   -.213E+01 -.402E-01 -.685E+01   0.595E-01 -.443E-02 0.253E-01   -.202E-02 -.662E-03 0.167E-02
   -.247E+01 -.134E+00 0.618E+01   0.253E+01 0.151E+00 -.618E+01   -.467E-01 -.375E-01 -.425E-02   -.171E-02 0.223E-02 0.167E-02
   0.964E+00 -.513E+00 0.845E+01   -.103E+01 0.630E+00 -.849E+01   0.696E-01 -.117E+00 0.519E-01   0.396E-03 0.152E-02 0.613E-03
   -.181E+01 0.468E+00 0.843E+01   0.186E+01 -.340E+00 -.848E+01   -.478E-01 -.161E+00 0.523E-01   0.203E-02 0.263E-02 0.119E-02
   0.227E+01 0.161E+00 0.680E+01   -.231E+01 0.475E-01 -.681E+01   0.631E-01 -.225E+00 0.896E-02   0.123E-02 0.549E-02 -.973E-03
   0.489E+01 -.747E+00 0.773E+01   -.493E+01 0.947E+00 -.766E+01   0.354E-01 -.225E+00 -.569E-01   0.127E-02 0.583E-02 0.203E-02
   -.836E+00 -.356E+00 0.985E+01   0.836E+00 0.482E+00 -.989E+01   0.784E-02 -.133E+00 0.278E-01   -.401E-03 0.517E-03 -.129E-02
   0.148E+01 -.279E+01 0.114E+02   -.155E+01 0.297E+01 -.115E+02   0.977E-01 -.171E+00 0.569E-01   -.417E-02 0.663E-04 -.130E-02
   -.568E+01 -.327E+01 0.631E+01   0.583E+01 0.334E+01 -.628E+01   -.158E+00 -.685E-01 -.255E-01   0.312E-02 -.294E-02 0.238E-02
   -.148E+01 -.133E+01 0.656E+01   0.150E+01 0.136E+01 -.658E+01   -.262E-01 -.319E-01 0.658E-02   0.291E-02 -.314E-02 -.272E-03
   0.188E+01 -.129E+01 0.674E+01   -.187E+01 0.128E+01 -.677E+01   -.559E-02 0.157E-01 0.236E-01   -.234E-02 -.299E-02 0.210E-02
   -.178E+01 0.156E+00 0.796E+01   0.178E+01 -.213E+00 -.799E+01   -.940E-02 0.806E-01 0.520E-01   -.412E-03 -.148E-02 0.185E-02
   0.192E+01 0.365E+01 0.738E+01   -.196E+01 -.371E+01 -.739E+01   0.139E-01 0.740E-01 0.282E-01   0.571E-03 0.859E-03 0.161E-02
   0.118E+00 0.471E+01 0.575E+01   -.105E+00 -.478E+01 -.578E+01   -.372E-01 0.802E-01 0.202E-01   0.182E-02 0.567E-03 -.111E-03
   0.271E+01 0.476E+01 0.590E+01   -.269E+01 -.465E+01 -.587E+01   -.480E-02 -.118E+00 -.356E-01   -.309E-03 0.249E-02 -.122E-04
   -.115E+01 0.910E+01 0.811E+01   0.170E+01 -.891E+01 -.818E+01   -.524E+00 -.197E+00 0.591E-01   0.104E-02 0.408E-02 -.255E-02
   0.144E+01 0.729E+01 0.733E+01   -.143E+01 -.681E+01 -.736E+01   -.274E-01 -.511E+00 0.311E-01   0.362E-02 0.528E-02 0.303E-02
   0.270E+01 0.552E+01 0.394E+00   -.242E+01 -.465E+01 0.178E-01   -.293E+00 -.907E+00 -.413E+00   0.326E-02 0.617E-02 0.475E-02
   -.930E+00 0.584E+01 0.134E+02   0.876E+00 -.558E+01 -.134E+02   0.502E-01 -.261E+00 0.843E-01   -.370E-02 0.877E-03 0.291E-02
   0.160E+01 0.678E+01 0.124E+02   -.216E+01 -.637E+01 -.126E+02   0.583E+00 -.443E+00 0.211E+00   -.638E-02 0.845E-04 0.758E-02
   -.235E+01 0.413E+01 0.864E+01   0.238E+01 -.411E+01 -.863E+01   -.575E-02 -.778E-02 -.209E-01   -.266E-02 -.446E-04 -.222E-02
   -.263E+01 0.293E+01 0.973E+01   0.251E+01 -.287E+01 -.974E+01   0.112E+00 -.445E-01 0.220E-01   -.131E-02 0.581E-03 -.133E-02
   -.148E+01 0.254E+01 0.597E+01   0.152E+01 -.255E+01 -.595E+01   -.512E-01 0.929E-02 -.185E-01   0.236E-02 -.254E-02 0.191E-03
   -.114E+01 0.241E+01 0.543E+01   0.107E+01 -.245E+01 -.546E+01   0.344E-01 0.528E-01 0.104E-01   0.194E-02 -.750E-03 -.135E-02
   0.134E+01 0.423E+01 0.460E+01   -.132E+01 -.430E+01 -.459E+01   -.280E-01 0.984E-01 0.772E-03   0.327E-02 -.137E-02 -.320E-03
   0.452E+01 0.580E+01 0.376E+01   -.457E+01 -.587E+01 -.378E+01   0.393E-01 0.823E-01 0.122E-01   0.352E-02 -.639E-03 -.138E-02
   0.468E+01 0.120E+02 0.526E+01   -.447E+01 -.121E+02 -.528E+01   -.225E+00 0.932E-01 -.131E-01   0.158E-02 0.318E-02 -.294E-02
   0.117E+02 0.105E+02 0.341E+01   -.116E+02 -.105E+02 -.346E+01   -.656E-01 0.264E-01 0.376E-01   0.451E-02 0.140E-02 -.341E-02
   -.342E+01 0.216E+02 0.162E+02   0.375E+01 -.209E+02 -.164E+02   -.326E+00 -.775E+00 0.181E+00   0.617E-02 0.611E-02 -.181E-03
   -.684E+01 0.435E+02 0.560E+02   0.138E+02 -.400E+02 -.559E+02   -.698E+01 -.345E+01 -.196E+00   0.107E-01 0.106E-01 0.251E-02
   0.416E+01 0.216E+02 -.595E+01   -.424E+01 -.202E+02 0.601E+01   0.950E-01 -.139E+01 -.506E-01   -.602E-02 0.364E-02 0.983E-02
   0.198E+00 0.406E+02 -.404E+02   -.755E+01 -.363E+02 0.425E+02   0.738E+01 -.437E+01 -.207E+01   -.126E-01 0.893E-02 0.129E-01
   -.447E+01 0.106E+02 0.107E+02   0.422E+01 -.106E+02 -.106E+02   0.242E+00 0.198E-02 -.142E+00   -.396E-02 0.251E-03 0.469E-02
   -.122E+02 0.625E+01 0.156E+02   0.117E+02 -.615E+01 -.159E+02   0.474E+00 -.115E+00 0.328E+00   -.524E-02 0.286E-02 0.465E-02
   -.270E+01 0.301E+01 0.684E+01   0.264E+01 -.305E+01 -.682E+01   0.449E-01 0.643E-01 -.426E-01   -.673E-03 -.117E-03 -.316E-02
   -.344E+01 0.500E+01 0.890E+01   0.335E+01 -.507E+01 -.894E+01   0.823E-01 0.593E-01 0.387E-01   -.460E-03 0.415E-03 -.324E-02
   -.629E+00 0.109E+01 0.523E+01   0.585E+00 -.110E+01 -.525E+01   0.553E-01 -.909E-02 0.686E-02   -.233E-03 0.194E-02 -.291E-02
   0.187E+01 -.294E-01 0.499E+01   -.199E+01 -.622E-01 -.499E+01   0.120E+00 0.603E-01 -.961E-02   -.121E-02 0.242E-02 -.285E-02
   0.662E+01 0.354E+01 0.255E+01   -.665E+01 -.372E+01 -.246E+01   0.232E-01 0.188E+00 -.923E-01   0.597E-02 -.705E-03 -.169E-02
   0.964E+01 0.195E+01 0.853E+01   -.997E+01 -.228E+01 -.861E+01   0.353E+00 0.321E+00 0.851E-01   0.466E-02 -.108E-02 -.652E-03
   0.304E+02 0.164E+02 0.180E+02   -.295E+02 -.177E+02 -.187E+02   -.886E+00 0.129E+01 0.662E+00   0.676E-02 0.279E-02 -.194E-02
   0.530E+02 0.155E+02 0.107E+02   -.562E+02 -.176E+02 -.113E+02   0.326E+01 0.219E+01 0.641E+00   0.811E-02 -.920E-03 0.150E-02
   -.257E+02 0.684E+01 0.280E+01   0.245E+02 -.753E+01 -.277E+01   0.119E+01 0.690E+00 -.126E-01   -.944E-02 0.315E-02 0.857E-02
   -.262E+02 -.705E+01 0.162E+02   0.253E+02 0.705E+01 -.165E+02   0.889E+00 -.488E-01 0.252E+00   -.795E-02 0.187E-02 0.297E-02
   -.612E+01 -.349E+00 0.130E+02   0.596E+01 0.260E+00 -.131E+02   0.153E+00 0.100E+00 0.965E-01   -.327E-02 0.309E-02 -.971E-03
   -.421E+01 -.680E+00 0.722E+01   0.411E+01 0.628E+00 -.716E+01   0.129E+00 0.501E-01 -.696E-01   -.371E-02 0.449E-02 -.255E-02
   -.376E+01 -.525E+01 0.507E+01   0.368E+01 0.523E+01 -.510E+01   0.627E-01 0.339E-01 0.138E-01   -.245E-02 0.143E-02 -.266E-02
   -.162E+00 -.381E+01 0.528E+01   0.309E-01 0.382E+01 -.527E+01   0.135E+00 0.936E-02 -.146E-01   -.395E-02 -.427E-02 -.142E-02
   0.522E+01 -.416E+01 0.704E+01   -.533E+01 0.413E+01 -.706E+01   0.127E+00 0.296E-01 0.245E-01   -.584E-03 -.878E-03 -.196E-02
   0.535E+01 -.372E+01 0.603E+01   -.546E+01 0.376E+01 -.602E+01   0.106E+00 -.159E-01 -.108E-01   0.386E-03 -.332E-02 -.189E-02
   0.233E+02 -.394E+01 0.122E+02   -.239E+02 0.390E+01 -.124E+02   0.589E+00 0.448E-01 0.192E+00   0.740E-02 -.164E-02 0.159E-02
   0.119E+02 -.144E+02 0.743E+01   -.121E+02 0.148E+02 -.731E+01   0.222E+00 -.323E+00 -.109E+00   0.652E-02 -.358E-02 0.251E-02
   -.151E+02 -.375E+02 -.168E+02   0.340E+02 0.266E+02 0.191E+02   -.189E+02 0.109E+02 -.226E+01   0.133E-01 -.926E-02 0.613E-02
   -.115E+02 -.546E+02 0.139E+01   0.121E+02 0.585E+02 -.184E+01   -.666E+00 -.392E+01 0.444E+00   0.412E-02 -.745E-02 0.454E-02
   -.103E+00 -.337E+02 0.433E+02   -.629E+01 0.296E+02 -.427E+02   0.640E+01 0.406E+01 -.648E+00   -.970E-02 -.668E-02 0.526E-02
   -.150E+01 -.237E+02 0.146E+02   0.162E+01 0.226E+02 -.148E+02   -.103E+00 0.109E+01 0.275E+00   -.386E-02 -.641E-02 0.182E-03
   -.133E+02 -.765E+01 0.994E+01   0.130E+02 0.752E+01 -.100E+02   0.290E+00 0.133E+00 0.780E-01   -.392E-02 0.285E-02 -.227E-02
   -.378E+01 -.119E+02 0.829E+01   0.353E+01 0.120E+02 -.830E+01   0.256E+00 0.246E-01 -.902E-02   -.294E-02 -.484E-02 -.271E-02
   -.129E+01 -.406E+01 0.744E+01   0.118E+01 0.410E+01 -.747E+01   0.118E+00 -.242E-01 0.258E-01   -.414E-02 -.531E-02 -.103E-02
   -.111E+01 -.479E+01 0.778E+01   0.110E+01 0.484E+01 -.779E+01   0.219E-01 -.397E-01 0.200E-01   -.171E-02 -.186E-02 0.747E-03
   0.120E+01 -.291E+01 0.542E+01   -.130E+01 0.298E+01 -.544E+01   0.131E+00 -.795E-01 0.961E-02   -.230E-02 -.260E-02 -.145E-02
   0.162E+01 -.361E+01 0.591E+01   -.166E+01 0.370E+01 -.589E+01   0.560E-01 -.934E-01 -.273E-01   -.187E-02 0.229E-02 -.784E-03
   0.555E+01 -.511E+01 0.717E+01   -.583E+01 0.536E+01 -.721E+01   0.281E+00 -.256E+00 0.351E-01   0.381E-02 -.933E-03 -.871E-03
   0.390E+01 -.630E+01 0.725E+01   -.399E+01 0.650E+01 -.725E+01   0.814E-01 -.215E+00 -.188E-01   0.370E-02 0.173E-02 -.191E-02
   0.208E+01 -.180E+02 0.102E+02   -.202E+01 0.185E+02 -.103E+02   -.821E-01 -.457E+00 0.127E+00   0.364E-02 -.608E-02 0.428E-02
   0.191E+01 -.105E+02 0.105E+02   -.180E+01 0.109E+02 -.105E+02   -.107E+00 -.411E+00 0.560E-01   0.101E-02 -.263E-02 0.211E-02
   -.855E+01 -.125E+02 0.161E+01   0.935E+01 0.122E+02 -.145E+01   -.812E+00 0.360E+00 -.154E+00   0.119E-02 -.707E-02 0.259E-02
   -.410E+01 -.820E+01 0.511E+01   0.412E+01 0.801E+01 -.513E+01   -.573E-01 0.214E+00 0.230E-01   0.180E-02 -.397E-02 0.290E-02
   0.813E+00 -.847E+01 0.784E+01   -.121E+01 0.824E+01 -.791E+01   0.405E+00 0.220E+00 0.537E-01   -.268E-02 -.623E-02 -.188E-02
   -.316E+01 -.563E+01 0.575E+01   0.314E+01 0.551E+01 -.573E+01   0.391E-01 0.112E+00 -.323E-01   -.336E-02 -.315E-02 0.635E-03
   -.185E+02 0.156E+02 -.555E+03   0.225E+02 -.192E+02 0.542E+03   -.395E+01 0.367E+01 0.132E+02   0.454E-02 -.450E-02 0.137E-01
 -----------------------------------------------------------------------------------------------
   0.945E+01 -.688E+01 -.112E+02   0.213E-13 -.181E-12 -.227E-12   -.945E+01 0.689E+01 0.111E+02   0.858E-02 -.731E-02 0.679E-01
 
 
 POSITION                                       TOTAL-FORCE (eV/Angst)
 -----------------------------------------------------------------------------------
     -7.45363     12.78338      7.46887         0.026327     -0.009146      0.004401
      0.00067      1.42029      7.47085         0.014273     -0.019089      0.000882
      2.48135      0.02065      7.46070         0.005693      0.003013      0.014731
      2.48377      1.44550      7.47365         0.006973     -0.029097      0.002987
      4.95903      0.01317      7.46397         0.018472     -0.009133     -0.010407
      4.96760      1.43328      7.47399        -0.004731     -0.019807      0.013162
      7.44589     -0.02856      7.45854         0.006374     -0.003588     -0.009772
      7.45523      1.38774      7.45333         0.023700      0.005497     -0.004174
      2.48527     12.71029      7.47953        -0.002879     -0.000920      0.005889
      9.94391      1.34559      7.46467        -0.006297     -0.006904     -0.014579
      4.96159     12.69391      7.47938         0.004534     -0.000617      0.005826
     12.41842      1.33252      7.46425        -0.016239      0.020043      0.025098
     13.65747      2.05425      7.46699        -0.023978      0.016305      0.019152
     -1.24316      3.53901      7.47849        -0.021652      0.002395     -0.002602
      1.24211      2.14591      7.48235         0.014827     -0.005295     -0.009359
      1.24479      3.57376      7.50204         0.027307     -0.004254     -0.010178
      3.72859      2.16722      7.49555        -0.014647     -0.024429      0.001606
      3.73879      3.58596      7.55892        -0.011719     -0.023453      0.005583
      6.21896      2.11393      7.46546        -0.010729      0.005342      0.017019
      6.23200      3.53297      7.50508         0.011104     -0.027722      0.024158
      8.70933      2.06762      7.45777         0.018476      0.007123     -0.014254
      8.71991      3.48595      7.46324        -0.009149      0.013369      0.006759
     11.18472      2.05127      7.46412        -0.009533      0.003741      0.000545
     11.18789      3.47306      7.46610        -0.028259      0.008752     -0.015801
     12.42234      4.18694      7.47552        -0.003851      0.019627      0.004833
     -2.48840      5.67248      7.48363        -0.001816      0.006528     -0.006825
     -0.00670      4.26193      7.50148        -0.015631     -0.010857     -0.032166
     -0.03599      5.68230      7.52457        -0.010147      0.010256     -0.018319
      2.48588      4.31486      7.53324         0.020203      0.010582      0.008242
      2.43049      5.73359      7.55955         0.016272      0.017491     -0.007574
      5.00533      4.27626      7.61641        -0.011236      0.010572      0.021621
      5.06806      5.67541      7.78968        -0.003099     -0.006868      0.018245
      7.48956      4.20411      7.48854        -0.010575      0.004959      0.027252
      7.51632      5.61898      7.50410         0.001619     -0.014617      0.012780
      9.95697      4.19003      7.46425        -0.020371      0.021603     -0.019978
      9.96111      5.61597      7.46536        -0.005941     -0.011073     -0.006536
     -3.71521      6.39173      7.47348         0.010957     -0.022250     -0.012298
     -3.72381      7.81401      7.47407        -0.001013     -0.027010     -0.015148
     -1.26827      6.38811      7.50386        -0.009978      0.004244     -0.007620
     -1.28017      7.81034      7.49061         0.018907     -0.005243      0.002558
      1.19153      6.39760      7.55659        -0.011872      0.015319     -0.009982
      1.16397      7.84509      7.59065         0.025485     -0.002713     -0.000600
      6.30264      6.32213      7.61377        -0.006413     -0.003599      0.019656
      6.28989      7.76141      7.56395         0.016756     -0.034410      0.005770
      8.74145      6.33274      7.47429        -0.007823      0.013260     -0.000700
      8.73274      7.75655      7.48611         0.025009      0.005176     -0.007839
     -4.94972      8.53168      7.47589        -0.018269      0.014502     -0.016452
     -4.96599      9.95722      7.47028         0.000782      0.015061     -0.007846
     -2.49971      8.52852      7.47419         0.013901     -0.003629      0.004041
     -2.50096      9.95270      7.46999         0.003939      0.023741     -0.001319
     -0.05924      8.53156      7.51323        -0.009180      0.001291      0.001222
     -0.03954      9.94502      7.49978        -0.026144      0.021659      0.010469
      2.35133      8.49729      7.70768        -0.023453      0.009038     -0.018462
      2.42942      9.85788      7.59316        -0.019820     -0.001016      0.001001
      5.04376      8.40812      7.58788        -0.026182     -0.016299      0.017350
      4.96667      9.81944      7.53998         0.003041      0.011358      0.005521
      7.50459      8.47321      7.50674        -0.006269      0.015207     -0.017569
      7.46412      9.88957      7.49013         0.005962      0.030068     -0.023583
     -6.20153     10.66805      7.47019         0.009891      0.013880     -0.005719
     -6.20695     12.08904      7.46303         0.014170      0.012374      0.011954
     -3.73351     10.67098      7.46595         0.028018     -0.019608     -0.011552
     -3.73233     12.09291      7.46317         0.018235     -0.003458     -0.007689
     -1.26845     10.66139      7.47359         0.005977     -0.010684      0.001376
     -1.25675     12.07921      7.46367         0.002185     -0.012694     -0.014553
      1.21418     10.61615      7.50995        -0.002934      0.001820      0.018706
      1.23363     12.03409      7.47438         0.004806     -0.008396      0.012750
      3.70710     10.53794      7.55491        -0.004672      0.004052      0.005870
      3.71618     11.96634      7.50165        -0.027411      0.013715      0.006500
      6.20728     10.57005      7.50180        -0.000476     -0.012577     -0.014031
      6.20511     11.99661      7.48319         0.013280     -0.013305     -0.004737
      3.72290      7.06990      8.23392         0.006935      0.010798      0.014706
 -----------------------------------------------------------------------------------
    total drift:                                0.000971      0.005571     -0.027746


--------------------------------------------------------------------------------------------------------



  FREE ENERGIE OF THE ION-ELECTRON SYSTEM (eV)
  ---------------------------------------------------
  free  energy   TOTEN  =      -655.24911769 eV

  energy  without entropy=     -655.21606330  energy(sigma->0) =     -655.23259049
 
 d Force = 0.1322209E-02[ 0.529E-03, 0.212E-02]  d Energy = 0.1300670E-02 0.215E-04
 d Force = 0.4568957E+00[ 0.473E+00, 0.441E+00]  d Ewald  = 0.3850662E+01-0.339E+01


--------------------------------------------------------------------------------------------------------


    POTLOK:  cpu time    0.5492: real time    0.5515


--------------------------------------------------------------------------------------------------------


 Conjugate gradient step on ions:
 trial-energy change:   -0.001301  1 .order   -0.001324   -0.002130   -0.000517
  (g-gl).g = 0.245E-02      g.g   = 0.249E-02  gl.gl    = 0.278E-02
 g(Force)  = 0.242E-02   g(Stress)= 0.668E-04 ortho     = 0.617E-05
 gamma     =   0.87992
 trial     =   0.85455
 opt step  =   1.12858  (harmonic =   1.12858) maximal distance =0.00484239
 next E    =  -655.249224   (d E  =  -0.00141)


--------------------------------------------------------------------------------------------------------


  
 reached required accuracy - stopping structural energy minimisation
     LOOP+:  cpu time  112.2384: real time  113.1015
    4ORBIT:  cpu time    0.0000: real time    0.0000

 total amount of memory used by VASP MPI-rank0   135477. kBytes
=======================================================================

   base      :      30000. kBytes
   nonlr-proj:      10488. kBytes
   fftplans  :      14072. kBytes
   grid      :      39398. kBytes
   one-center:        186. kBytes
   wavefun   :      41333. kBytes
 
  
  
 General timing and accounting informations for this job:
 ========================================================
  
                  Total CPU time used (sec):     4337.546
                            User time (sec):     4296.320
                          System time (sec):       41.227
                         Elapsed time (sec):     4378.287
  
                   Maximum memory used (kb):      659884.
                   Average memory used (kb):           0.
  
                          Minor page faults:      7753862
                          Major page faults:           35
                 Voluntary context switches:        35248
