       N       E                     dE             d eps       ncg     rms          ort
DAV:   1     0.252123057154E+04    0.25212E+04   -0.11660E+05   768   0.110E+03
DAV:   2    -0.245489860233E+03   -0.27667E+04   -0.26457E+04   768   0.280E+02
DAV:   3    -0.702760514174E+03   -0.45727E+03   -0.45413E+03   768   0.120E+02
DAV:   4    -0.719201776486E+03   -0.16441E+02   -0.16306E+02   768   0.280E+01
DAV:   5    -0.719733972968E+03   -0.53220E+00   -0.53051E+00   768   0.423E+00
SDA:   6    -0.549559808323E+03    0.17017E+03   -0.53051E+00   768   0.500E+03 0.000E+00
CGA:   7    -0.602766654839E+03   -0.53207E+02   -0.25770E+02   768   0.335E+03 0.470E+03
CGA:   8    -0.638057678348E+03   -0.35291E+02   -0.15379E+02   768   0.170E+03 0.313E+03
CGA:   9    -0.651224598184E+03   -0.13167E+02   -0.94152E+01   768   0.367E+02 0.346E+02
CGA:  10    -0.658849722674E+03   -0.76251E+01   -0.76179E+01   768   0.199E+02-0.430E+00
CGA:  11    -0.660431773107E+03   -0.15821E+01   -0.14829E+01   768   0.538E+01 0.125E+01
CGA:  12    -0.661353768924E+03   -0.92200E+00   -0.92181E+00   768   0.592E+01-0.225E-01
CGA:  13    -0.661809830944E+03   -0.45606E+00   -0.34079E+00   768   0.181E+01 0.180E+01
CGA:  14    -0.661951902588E+03   -0.14207E+00   -0.12655E+00   768   0.104E+01 0.212E+00
CGA:  15    -0.662085820389E+03   -0.13392E+00   -0.13241E+00   768   0.179E+01 0.606E-03
CGA:  16    -0.662162584372E+03   -0.76764E-01   -0.50725E-01   768   0.119E+01 0.922E+00
CGA:  17    -0.662247922812E+03   -0.85338E-01   -0.92386E-01   768   0.301E+00-0.399E-01
CGA:  18    -0.662330411626E+03   -0.82489E-01   -0.81694E-01   768   0.176E+00 0.531E-02
CGA:  19    -0.662379081787E+03   -0.48670E-01   -0.47434E-01   768   0.181E+00 0.853E-02
CGA:  20    -0.662406586483E+03   -0.27505E-01   -0.27154E-01   768   0.843E-01-0.534E-02
CGA:  21    -0.662428445660E+03   -0.21859E-01   -0.21903E-01   768   0.388E-01-0.997E-03
CGA:  22    -0.662435207386E+03   -0.67617E-02   -0.67460E-02   768   0.339E-01 0.855E-03
CGA:  23    -0.662442022877E+03   -0.68155E-02   -0.67046E-02   768   0.116E-01 0.243E-02
CGA:  24    -0.662446313376E+03   -0.42905E-02   -0.41359E-02   768   0.143E-01 0.851E-03
CGA:  25    -0.662449202993E+03   -0.28896E-02   -0.28745E-02   768   0.985E-02 0.650E-03
CGA:  26    -0.662452358892E+03   -0.31559E-02   -0.32118E-02   768   0.720E-02-0.321E-03
CGA:  27    -0.662453433299E+03   -0.10744E-02   -0.10834E-02   768   0.282E-02 0.864E-04
CGA:  28    -0.662454295813E+03   -0.86251E-03   -0.87372E-03   768   0.189E-02-0.736E-04
CGA:  29    -0.662454619267E+03   -0.32345E-03   -0.32385E-03   768   0.114E-02 0.261E-05
CGA:  30    -0.662454961667E+03   -0.34240E-03   -0.34730E-03   768   0.671E-03-0.370E-04
CGA:  31    -0.662455091210E+03   -0.12954E-03   -0.12953E-03   768   0.502E-03-0.320E-05
CGA:  32    -0.662455214717E+03   -0.12351E-03   -0.12420E-03   768   0.211E-03-0.882E-05
CGA:  33    -0.662455257938E+03   -0.43221E-04   -0.43194E-04   768   0.151E-03 0.144E-05
   1 F= -.66899087E+03 E0= -.66897411E+03  d E =-.668991E+03  mag=     1.7531
       N       E                     dE             d eps       ncg     rms          ort
SDA:   1    -0.661458929792E+03    0.99628E+00    0.00000E+00   768   0.324E+01 0.000E+00
CGA:   2    -0.661929604591E+03   -0.47067E+00   -0.47204E+00   768   0.147E+01 0.421E-02
CGA:   3    -0.662213372117E+03   -0.28377E+00   -0.28371E+00   768   0.918E+00-0.143E-01
CGA:   4    -0.662374958556E+03   -0.16159E+00   -0.16179E+00   768   0.310E+00 0.482E-02
CGA:   5    -0.662430218333E+03   -0.55260E-01   -0.55238E-01   768   0.102E+00-0.492E-03
CGA:   6    -0.662450507392E+03   -0.20289E-01   -0.20286E-01   768   0.431E-01 0.308E-03
CGA:   7    -0.662459642700E+03   -0.91353E-02   -0.91405E-02   768   0.212E-01-0.172E-03
CGA:   8    -0.662463303404E+03   -0.36607E-02   -0.36621E-02   768   0.952E-02 0.396E-04
CGA:   9    -0.662464906932E+03   -0.16035E-02   -0.16031E-02   768   0.302E-02 0.515E-06
CGA:  10    -0.662465501944E+03   -0.59501E-03   -0.59496E-03   768   0.935E-03 0.913E-05
CGA:  11    -0.662465693317E+03   -0.19137E-03   -0.19138E-03   768   0.441E-03 0.830E-07
CGA:  12    -0.662465763163E+03   -0.69846E-04   -0.69855E-04   768   0.174E-03 0.635E-06
   2 F= -.66900129E+03 E0= -.66898394E+03  d E =-.104179E-01  mag=     1.6893
       N       E                     dE             d eps       ncg     rms          ort
SDA:   1    -0.662331983795E+03    0.13371E+00    0.00000E+00   768   0.444E+00 0.000E+00
CGA:   2    -0.662398210832E+03   -0.66227E-01   -0.66187E-01   768   0.203E+00-0.348E-03
CGA:   3    -0.662437184876E+03   -0.38974E-01   -0.38972E-01   768   0.122E+00 0.424E-03
CGA:   4    -0.662459087921E+03   -0.21903E-01   -0.21896E-01   768   0.448E-01-0.309E-03
CGA:   5    -0.662466729959E+03   -0.76420E-02   -0.76432E-02   768   0.147E-01 0.132E-04
CGA:   6    -0.662469601672E+03   -0.28717E-02   -0.28720E-02   768   0.644E-02-0.195E-04
CGA:   7    -0.662470863008E+03   -0.12613E-02   -0.12612E-02   768   0.328E-02 0.625E-05
CGA:   8    -0.662471409065E+03   -0.54606E-03   -0.54581E-03   768   0.137E-02-0.816E-05
CGA:   9    -0.662471657924E+03   -0.24886E-03   -0.24884E-03   768   0.427E-03-0.433E-05
CGA:  10    -0.662471742359E+03   -0.84435E-04   -0.84473E-04   768   0.142E-03-0.343E-05
   3 F= -.66900731E+03 E0= -.66899007E+03  d E =-.164354E-01  mag=     1.7047
       N       E                     dE             d eps       ncg     rms          ort
SDA:   1    -0.662180261800E+03    0.29140E+00    0.00000E+00   768   0.109E+01 0.000E+00
CGA:   2    -0.662321096224E+03   -0.14083E+00   -0.14117E+00   768   0.410E+00 0.342E-03
CGA:   3    -0.662401815797E+03   -0.80720E-01   -0.80783E-01   768   0.288E+00-0.344E-02
CGA:   4    -0.662457525914E+03   -0.55710E-01   -0.55684E-01   768   0.122E+00 0.166E-02
CGA:   5    -0.662479872272E+03   -0.22346E-01   -0.22344E-01   768   0.406E-01-0.244E-03
CGA:   6    -0.662487245236E+03   -0.73730E-02   -0.73736E-02   768   0.145E-01 0.849E-04
CGA:   7    -0.662490042042E+03   -0.27968E-02   -0.27971E-02   768   0.709E-02-0.169E-04
CGA:   8    -0.662491215896E+03   -0.11739E-02   -0.11742E-02   768   0.298E-02 0.135E-04
CGA:   9    -0.662491735611E+03   -0.51972E-03   -0.51974E-03   768   0.900E-03 0.420E-05
CGA:  10    -0.662491914321E+03   -0.17871E-03   -0.17866E-03   768   0.308E-03 0.342E-05
CGA:  11    -0.662491972741E+03   -0.58420E-04   -0.58422E-04   768   0.162E-03-0.565E-06
   4 F= -.66902721E+03 E0= -.66900945E+03  d E =-.198959E-01  mag=     1.6546
       N       E                     dE             d eps       ncg     rms          ort
SDA:   1    -0.659727462431E+03    0.27645E+01    0.00000E+00   768   0.102E+02 0.000E+00
CGA:   2    -0.660982967585E+03   -0.12555E+01   -0.12662E+01   768   0.378E+01-0.182E-01
CGA:   3    -0.661704621918E+03   -0.72165E+00   -0.72322E+00   768   0.273E+01-0.109E+00
CGA:   4    -0.662222053236E+03   -0.51743E+00   -0.51633E+00   768   0.106E+01 0.536E-01
CGA:   5    -0.662427185888E+03   -0.20513E+00   -0.20522E+00   768   0.360E+00-0.601E-02
CGA:   6    -0.662492808111E+03   -0.65622E-01   -0.65622E-01   768   0.129E+00 0.236E-02
CGA:   7    -0.662518211193E+03   -0.25403E-01   -0.25418E-01   768   0.646E-01-0.710E-03
CGA:   8    -0.662528887870E+03   -0.10677E-01   -0.10680E-01   768   0.276E-01 0.127E-03
CGA:   9    -0.662533642080E+03   -0.47542E-02   -0.47527E-02   768   0.884E-02-0.527E-04
CGA:  10    -0.662535391166E+03   -0.17491E-02   -0.17489E-02   768   0.313E-02 0.109E-04
CGA:  11    -0.662536016498E+03   -0.62533E-03   -0.62546E-03   768   0.183E-02-0.654E-05
CGA:  12    -0.662536336119E+03   -0.31962E-03   -0.31956E-03   768   0.914E-03-0.266E-05
CGA:  13    -0.662536588379E+03   -0.25226E-03   -0.25258E-03   768   0.674E-03-0.377E-05
CGA:  14    -0.662536751053E+03   -0.16267E-03   -0.16285E-03   768   0.690E-03-0.191E-05
CGA:  15    -0.662536899996E+03   -0.14894E-03   -0.14892E-03   768   0.401E-03 0.546E-07
CGA:  16    -0.662537013537E+03   -0.11354E-03   -0.11354E-03   768   0.289E-03 0.761E-06
CGA:  17    -0.662537066161E+03   -0.52624E-04   -0.52632E-04   768   0.166E-03 0.719E-07
   5 F= -.66907176E+03 E0= -.66905454E+03  d E =-.644467E-01  mag=     1.4444
       N       E                     dE             d eps       ncg     rms          ort
SDA:   1    -0.651236522160E+03    0.11300E+02    0.00000E+00   768   0.439E+02 0.000E+00
CGA:   2    -0.656187057188E+03   -0.49505E+01   -0.50862E+01   768   0.165E+02-0.725E+00
CGA:   3    -0.659018674587E+03   -0.28316E+01   -0.28056E+01   768   0.114E+02-0.650E+00
CGA:   4    -0.661216379909E+03   -0.21977E+01   -0.21913E+01   768   0.405E+01 0.518E+00
CGA:   5    -0.662068624363E+03   -0.85224E+00   -0.85194E+00   768   0.144E+01 0.294E-01
CGA:   6    -0.662346036833E+03   -0.27741E+00   -0.27740E+00   768   0.540E+00-0.106E-02
CGA:   7    -0.662457216295E+03   -0.11118E+00   -0.11101E+00   768   0.244E+00 0.816E-02
CGA:   8    -0.662500009792E+03   -0.42793E-01   -0.42707E-01   768   0.129E+00-0.152E-02
CGA:   9    -0.662519919358E+03   -0.19910E-01   -0.19953E-01   768   0.377E-01 0.365E-03
CGA:  10    -0.662527796507E+03   -0.78771E-02   -0.78809E-02   768   0.122E-01-0.133E-03
CGA:  11    -0.662530816778E+03   -0.30203E-02   -0.30186E-02   768   0.565E-02 0.229E-04
CGA:  12    -0.662531917014E+03   -0.11002E-02   -0.11002E-02   768   0.453E-02-0.237E-04
CGA:  13    -0.662532743674E+03   -0.82666E-03   -0.82665E-03   768   0.215E-02-0.803E-06
CGA:  14    -0.662533471809E+03   -0.72814E-03   -0.73032E-03   768   0.149E-02-0.154E-04
CGA:  15    -0.662533847240E+03   -0.37543E-03   -0.37522E-03   768   0.160E-02 0.471E-05
CGA:  16    -0.662534114986E+03   -0.26775E-03   -0.26756E-03   768   0.589E-03-0.223E-05
CGA:  17    -0.662534297034E+03   -0.18205E-03   -0.18187E-03   768   0.327E-03 0.201E-05
CGA:  18    -0.662534364263E+03   -0.67229E-04   -0.67228E-04   768   0.281E-03-0.858E-06
   6 F= -.66907151E+03 E0= -.66905846E+03  d E =-.642014E-01  mag=     1.2736
       N       E                     dE             d eps       ncg     rms          ort
SDA:   1    -0.659175602609E+03    0.33587E+01    0.00000E+00   768   0.115E+02 0.000E+00
CGA:   2    -0.660758844728E+03   -0.15832E+01   -0.15811E+01   768   0.428E+01-0.419E-01
CGA:   3    -0.661627357509E+03   -0.86851E+00   -0.86848E+00   768   0.299E+01 0.161E-01
CGA:   4    -0.662193115367E+03   -0.56576E+00   -0.56421E+00   768   0.136E+01-0.517E-01
CGA:   5    -0.662422000625E+03   -0.22889E+00   -0.22951E+00   768   0.441E+00 0.454E-02
CGA:   6    -0.662500323589E+03   -0.78323E-01   -0.78123E-01   768   0.182E+00-0.358E-02
CGA:   7    -0.662530206091E+03   -0.29883E-01   -0.29928E-01   768   0.819E-01 0.335E-03
CGA:   8    -0.662544392833E+03   -0.14187E-01   -0.14165E-01   768   0.330E-01-0.356E-03
CGA:   9    -0.662550463852E+03   -0.60710E-02   -0.60726E-02   768   0.104E-01 0.525E-04
CGA:  10    -0.662552299049E+03   -0.18352E-02   -0.18342E-02   768   0.409E-02-0.278E-04
CGA:  11    -0.662552948443E+03   -0.64939E-03   -0.64948E-03   768   0.154E-02 0.308E-06
CGA:  12    -0.662553248412E+03   -0.29997E-03   -0.29997E-03   768   0.616E-03-0.173E-05
CGA:  13    -0.662553376493E+03   -0.12808E-03   -0.12805E-03   768   0.392E-03 0.252E-05
CGA:  14    -0.662553449007E+03   -0.72515E-04   -0.72523E-04   768   0.232E-03 0.578E-06
   7 F= -.66908875E+03 E0= -.66907438E+03  d E =-.814423E-01  mag=     1.3100
       N       E                     dE             d eps       ncg     rms          ort
SDA:   1    -0.661994847644E+03    0.55853E+00    0.00000E+00   768   0.197E+01 0.000E+00
CGA:   2    -0.662258461494E+03   -0.26361E+00   -0.26447E+00   768   0.885E+00-0.735E-03
CGA:   3    -0.662420003603E+03   -0.16154E+00   -0.16139E+00   768   0.559E+00-0.756E-02
CGA:   4    -0.662521191786E+03   -0.10119E+00   -0.10127E+00   768   0.196E+00 0.371E-02
CGA:   5    -0.662556373620E+03   -0.35182E-01   -0.35171E-01   768   0.659E-01-0.236E-03
CGA:   6    -0.662568311992E+03   -0.11938E-01   -0.11944E-01   768   0.305E-01 0.285E-03
CGA:   7    -0.662573615200E+03   -0.53032E-02   -0.53014E-02   768   0.155E-01-0.275E-04
CGA:   8    -0.662576337650E+03   -0.27225E-02   -0.27236E-02   768   0.601E-02 0.443E-04
CGA:   9    -0.662577501110E+03   -0.11635E-02   -0.11635E-02   768   0.196E-02-0.526E-05
CGA:  10    -0.662577836183E+03   -0.33507E-03   -0.33518E-03   768   0.802E-03 0.440E-05
CGA:  11    -0.662577964736E+03   -0.12855E-03   -0.12855E-03   768   0.276E-03 0.366E-07
CGA:  12    -0.662578018630E+03   -0.53893E-04   -0.53886E-04   768   0.103E-03 0.951E-06
   8 F= -.66911417E+03 E0= -.66909962E+03  d E =-.254139E-01  mag=     1.3115
       N       E                     dE             d eps       ncg     rms          ort
SDA:   1    -0.658563020697E+03    0.40149E+01    0.00000E+00   768   0.143E+02 0.000E+00
CGA:   2    -0.660344942451E+03   -0.17819E+01   -0.17971E+01   768   0.634E+01-0.534E-01
CGA:   3    -0.661472191350E+03   -0.11272E+01   -0.11256E+01   768   0.404E+01-0.144E+00
CGA:   4    -0.662205229636E+03   -0.73304E+00   -0.73287E+00   768   0.129E+01 0.812E-01
CGA:   5    -0.662451803639E+03   -0.24657E+00   -0.24659E+00   768   0.447E+00-0.265E-02
CGA:   6    -0.662535461497E+03   -0.83658E-01   -0.83634E-01   768   0.202E+00 0.533E-02
CGA:   7    -0.662571428453E+03   -0.35967E-01   -0.35949E-01   768   0.114E+00-0.841E-03
CGA:   8    -0.662590058819E+03   -0.18630E-01   -0.18648E-01   768   0.436E-01 0.449E-03
CGA:   9    -0.662598641404E+03   -0.85826E-02   -0.85859E-02   768   0.134E-01-0.158E-03
CGA:  10    -0.662601119722E+03   -0.24783E-02   -0.24783E-02   768   0.573E-02 0.292E-04
CGA:  11    -0.662601998663E+03   -0.87894E-03   -0.87863E-03   768   0.234E-02-0.464E-05
CGA:  12    -0.662602445453E+03   -0.44679E-03   -0.44678E-03   768   0.837E-03 0.151E-05
CGA:  13    -0.662602637423E+03   -0.19197E-03   -0.19209E-03   768   0.597E-03-0.288E-05
CGA:  14    -0.662602734449E+03   -0.97026E-04   -0.97008E-04   768   0.330E-03 0.820E-08
   9 F= -.66914180E+03 E0= -.66912554E+03  d E =-.530432E-01  mag=     1.3426
       N       E                     dE             d eps       ncg     rms          ort
SDA:   1    -0.662053038791E+03    0.54960E+00    0.00000E+00   768   0.177E+01 0.000E+00
CGA:   2    -0.662321834184E+03   -0.26880E+00   -0.26839E+00   768   0.118E+01-0.433E-02
CGA:   3    -0.662509288043E+03   -0.18745E+00   -0.18744E+00   768   0.506E+00-0.844E-03
CGA:   4    -0.662600606535E+03   -0.91318E-01   -0.91332E-01   768   0.120E+00 0.163E-02
CGA:   5    -0.662621097129E+03   -0.20491E-01   -0.20491E-01   768   0.379E-01 0.753E-04
CGA:   6    -0.662628462334E+03   -0.73652E-02   -0.73638E-02   768   0.175E-01 0.117E-03
CGA:   7    -0.662631462774E+03   -0.30004E-02   -0.30004E-02   768   0.984E-02 0.108E-04
CGA:   8    -0.662633169726E+03   -0.17070E-02   -0.17073E-02   768   0.450E-02 0.195E-04
CGA:   9    -0.662634070544E+03   -0.90082E-03   -0.90094E-03   768   0.161E-02-0.609E-05
CGA:  10    -0.662634395980E+03   -0.32544E-03   -0.32534E-03   768   0.800E-03 0.483E-05
CGA:  11    -0.662634517259E+03   -0.12128E-03   -0.12130E-03   768   0.325E-03 0.689E-06
CGA:  12    -0.662634579445E+03   -0.62185E-04   -0.62174E-04   768   0.114E-03 0.150E-05
  10 F= -.66917551E+03 E0= -.66915805E+03  d E =-.337157E-01  mag=     1.3739
       N       E                     dE             d eps       ncg     rms          ort
SDA:   1    -0.657485223644E+03    0.51493E+01    0.00000E+00   768   0.161E+02 0.000E+00
CGA:   2    -0.659826258784E+03   -0.23410E+01   -0.23496E+01   768   0.108E+02 0.452E-02
CGA:   3    -0.661550788719E+03   -0.17245E+01   -0.17232E+01   768   0.456E+01-0.384E-01
CGA:   4    -0.662363775758E+03   -0.81299E+00   -0.81327E+00   768   0.104E+01 0.463E-01
CGA:   5    -0.662548951737E+03   -0.18518E+00   -0.18519E+00   768   0.344E+00 0.202E-02
CGA:   6    -0.662620453846E+03   -0.71502E-01   -0.71440E-01   768   0.148E+00 0.204E-02
CGA:   7    -0.662651061892E+03   -0.30608E-01   -0.30625E-01   768   0.823E-01-0.403E-03
CGA:   8    -0.662665177035E+03   -0.14115E-01   -0.14127E-01   768   0.459E-01 0.504E-03
CGA:   9    -0.662672579848E+03   -0.74028E-02   -0.73997E-02   768   0.152E-01-0.489E-04
CGA:  10    -0.662675890895E+03   -0.33110E-02   -0.33088E-02   768   0.553E-02 0.471E-04
CGA:  11    -0.662676935526E+03   -0.10446E-02   -0.10446E-02   768   0.290E-02-0.317E-05
CGA:  12    -0.662677357074E+03   -0.42155E-03   -0.42164E-03   768   0.103E-02 0.225E-05
CGA:  13    -0.662677585891E+03   -0.22882E-03   -0.22889E-03   768   0.423E-03-0.232E-05
CGA:  14    -0.662677676324E+03   -0.90432E-04   -0.90432E-04   768   0.348E-03 0.255E-06
  11 F= -.66922441E+03 E0= -.66920155E+03  d E =-.826170E-01  mag=     1.5760
       N       E                     dE             d eps       ncg     rms          ort
SDA:   1    -0.661205519067E+03    0.14721E+01    0.00000E+00   768   0.388E+01 0.000E+00
CGA:   2    -0.662019654052E+03   -0.81413E+00   -0.81282E+00   768   0.316E+01 0.317E-01
CGA:   3    -0.662467430477E+03   -0.44778E+00   -0.44645E+00   768   0.117E+01-0.809E-02
CGA:   4    -0.662656021144E+03   -0.18859E+00   -0.18869E+00   768   0.209E+00 0.190E-02
CGA:   5    -0.662695338549E+03   -0.39317E-01   -0.39319E-01   768   0.835E-01-0.125E-03
CGA:   6    -0.662709905529E+03   -0.14567E-01   -0.14570E-01   768   0.364E-01 0.240E-03
CGA:   7    -0.662715680860E+03   -0.57753E-02   -0.57748E-02   768   0.179E-01-0.875E-05
CGA:   8    -0.662719043714E+03   -0.33629E-02   -0.33625E-02   768   0.758E-02 0.269E-04
CGA:   9    -0.662720647358E+03   -0.16036E-02   -0.16042E-02   768   0.351E-02-0.178E-04
CGA:  10    -0.662721278704E+03   -0.63135E-03   -0.63138E-03   768   0.182E-02 0.716E-05
CGA:  11    -0.662721571373E+03   -0.29267E-03   -0.29272E-03   768   0.604E-03 0.231E-05
CGA:  12    -0.662721695412E+03   -0.12404E-03   -0.12397E-03   768   0.230E-03 0.277E-05
CGA:  13    -0.662721734369E+03   -0.38957E-04   -0.38952E-04   768   0.123E-03-0.404E-06
  12 F= -.66927078E+03 E0= -.66924751E+03  d E =-.463723E-01  mag=     1.6076
       N       E                     dE             d eps       ncg     rms          ort
SDA:   1    -0.662582463272E+03    0.13923E+00    0.00000E+00   768   0.362E+00 0.000E+00
CGA:   2    -0.662658882230E+03   -0.76419E-01   -0.76371E-01   768   0.292E+00 0.102E-02
CGA:   3    -0.662700079215E+03   -0.41197E-01   -0.41154E-01   768   0.112E+00-0.304E-03
CGA:   4    -0.662718061989E+03   -0.17983E-01   -0.17984E-01   768   0.196E-01-0.103E-04
CGA:   5    -0.662721723777E+03   -0.36618E-02   -0.36618E-02   768   0.770E-02 0.976E-05
CGA:   6    -0.662723070669E+03   -0.13469E-02   -0.13470E-02   768   0.329E-02 0.130E-04
CGA:   7    -0.662723609918E+03   -0.53925E-03   -0.53919E-03   768   0.168E-02-0.289E-05
CGA:   8    -0.662723918864E+03   -0.30895E-03   -0.30896E-03   768   0.731E-03-0.441E-05
CGA:   9    -0.662724073106E+03   -0.15424E-03   -0.15438E-03   768   0.335E-03-0.415E-05
CGA:  10    -0.662724134034E+03   -0.60928E-04   -0.60926E-04   768   0.176E-03 0.120E-05
  13 F= -.66927388E+03 E0= -.66925055E+03  d E =-.494644E-01  mag=     1.6122
       N       E                     dE             d eps       ncg     rms          ort
SDA:   1    -0.661999082459E+03    0.72499E+00    0.00000E+00   768   0.204E+01 0.000E+00
CGA:   2    -0.662360043956E+03   -0.36096E+00   -0.36102E+00   768   0.128E+01 0.497E-02
CGA:   3    -0.662586784479E+03   -0.22674E+00   -0.22665E+00   768   0.762E+00-0.141E-01
CGA:   4    -0.662703361266E+03   -0.11658E+00   -0.11670E+00   768   0.177E+00 0.111E-02
CGA:   5    -0.662734105710E+03   -0.30744E-01   -0.30738E-01   768   0.636E-01-0.583E-03
CGA:   6    -0.662745998186E+03   -0.11892E-01   -0.11889E-01   768   0.314E-01 0.241E-03
CGA:   7    -0.662751394448E+03   -0.53963E-02   -0.53953E-02   768   0.172E-01-0.582E-04
CGA:   8    -0.662754495811E+03   -0.31014E-02   -0.31012E-02   768   0.692E-02 0.359E-04
CGA:   9    -0.662755844095E+03   -0.13483E-02   -0.13487E-02   768   0.254E-02-0.228E-04
CGA:  10    -0.662756289675E+03   -0.44558E-03   -0.44559E-03   768   0.116E-02 0.721E-06
CGA:  11    -0.662756469729E+03   -0.18005E-03   -0.18003E-03   768   0.372E-03-0.719E-06
CGA:  12    -0.662756547212E+03   -0.77483E-04   -0.77436E-04   768   0.162E-03 0.156E-05
  14 F= -.66930772E+03 E0= -.66928286E+03  d E =-.338432E-01  mag=     1.6870
       N       E                     dE             d eps       ncg     rms          ort
SDA:   1    -0.662200089142E+03    0.55638E+00    0.00000E+00   768   0.151E+01 0.000E+00
CGA:   2    -0.662470335610E+03   -0.27025E+00   -0.27026E+00   768   0.947E+00 0.356E-02
CGA:   3    -0.662639166786E+03   -0.16883E+00   -0.16880E+00   768   0.561E+00-0.952E-02
CGA:   4    -0.662725269233E+03   -0.86102E-01   -0.86176E-01   768   0.129E+00 0.680E-03
CGA:   5    -0.662747975967E+03   -0.22707E-01   -0.22704E-01   768   0.460E-01-0.377E-03
CGA:   6    -0.662756628932E+03   -0.86530E-02   -0.86504E-02   768   0.227E-01 0.156E-03
CGA:   7    -0.662760579413E+03   -0.39505E-02   -0.39501E-02   768   0.126E-01-0.395E-04
CGA:   8    -0.662762846792E+03   -0.22674E-02   -0.22673E-02   768   0.511E-02 0.215E-04
CGA:   9    -0.662763837353E+03   -0.99056E-03   -0.99087E-03   768   0.185E-02-0.167E-04
CGA:  10    -0.662764170893E+03   -0.33354E-03   -0.33354E-03   768   0.850E-03 0.237E-06
CGA:  11    -0.662764302555E+03   -0.13166E-03   -0.13165E-03   768   0.286E-03-0.520E-06
CGA:  12    -0.662764363110E+03   -0.60555E-04   -0.60513E-04   768   0.128E-03 0.127E-05
  15 F= -.66931672E+03 E0= -.66929060E+03  d E =-.428472E-01  mag=     1.7589
       N       E                     dE             d eps       ncg     rms          ort
SDA:   1    -0.662042826342E+03    0.72148E+00    0.00000E+00   768   0.204E+01 0.000E+00
CGA:   2    -0.662407311152E+03   -0.36448E+00   -0.36450E+00   768   0.113E+01 0.186E-02
CGA:   3    -0.662628267446E+03   -0.22096E+00   -0.22127E+00   768   0.705E+00-0.140E-01
CGA:   4    -0.662732165544E+03   -0.10390E+00   -0.10405E+00   768   0.192E+00 0.548E-03
CGA:   5    -0.662765462884E+03   -0.33297E-01   -0.33287E-01   768   0.730E-01-0.867E-03
CGA:   6    -0.662778772981E+03   -0.13310E-01   -0.13308E-01   768   0.360E-01 0.228E-03
CGA:   7    -0.662784954195E+03   -0.61812E-02   -0.61792E-02   768   0.191E-01-0.116E-03
CGA:   8    -0.662788296975E+03   -0.33428E-02   -0.33430E-02   768   0.729E-02 0.287E-04
CGA:   9    -0.662789697270E+03   -0.14003E-02   -0.14007E-02   768   0.270E-02-0.212E-04
CGA:  10    -0.662790157905E+03   -0.46064E-03   -0.46067E-03   768   0.117E-02 0.280E-05
CGA:  11    -0.662790343248E+03   -0.18534E-03   -0.18535E-03   768   0.415E-03 0.766E-06
CGA:  12    -0.662790430154E+03   -0.86907E-04   -0.86842E-04   768   0.197E-03 0.210E-05
  16 F= -.66934328E+03 E0= -.66931595E+03  d E =-.265601E-01  mag=     1.8459
       N       E                     dE             d eps       ncg     rms          ort
SDA:   1    -0.659485826391E+03    0.33045E+01    0.00000E+00   768   0.912E+01 0.000E+00
CGA:   2    -0.661098507979E+03   -0.16127E+01   -0.16131E+01   768   0.505E+01 0.186E-01
CGA:   3    -0.662075534521E+03   -0.97703E+00   -0.98026E+00   768   0.336E+01-0.165E+00
CGA:   4    -0.662548108906E+03   -0.47257E+00   -0.47441E+00   768   0.868E+00 0.474E-02
CGA:   5    -0.662699555436E+03   -0.15145E+00   -0.15136E+00   768   0.339E+00-0.881E-02
CGA:   6    -0.662758857145E+03   -0.59302E-01   -0.59312E-01   768   0.168E+00 0.187E-02
CGA:   7    -0.662787057846E+03   -0.28201E-01   -0.28176E-01   768   0.882E-01-0.102E-02
CGA:   8    -0.662802403610E+03   -0.15346E-01   -0.15348E-01   768   0.338E-01 0.352E-03
CGA:   9    -0.662808864704E+03   -0.64611E-02   -0.64637E-02   768   0.132E-01-0.136E-03
CGA:  10    -0.662811013607E+03   -0.21489E-02   -0.21496E-02   768   0.575E-02 0.211E-04
CGA:  11    -0.662811930386E+03   -0.91678E-03   -0.91669E-03   768   0.193E-02-0.142E-05
CGA:  12    -0.662812325038E+03   -0.39465E-03   -0.39451E-03   768   0.938E-03 0.520E-05
CGA:  13    -0.662812492565E+03   -0.16753E-03   -0.16753E-03   768   0.595E-03 0.992E-06
CGA:  14    -0.662812615341E+03   -0.12278E-03   -0.12274E-03   768   0.364E-03 0.162E-05
CGA:  15    -0.662812708629E+03   -0.93288E-04   -0.93238E-04   768   0.327E-03 0.358E-06
  17 F= -.66936637E+03 E0= -.66933778E+03  d E =-.496448E-01  mag=     2.0102
       N       E                     dE             d eps       ncg     rms          ort
SDA:   1    -0.662282052222E+03    0.53056E+00    0.00000E+00   768   0.140E+01 0.000E+00
CGA:   2    -0.662600467040E+03   -0.31841E+00   -0.31844E+00   768   0.858E+00-0.402E-03
CGA:   3    -0.662754434006E+03   -0.15397E+00   -0.15399E+00   768   0.391E+00 0.137E-02
CGA:   4    -0.662811209564E+03   -0.56776E-01   -0.56751E-01   768   0.104E+00-0.490E-04
CGA:   5    -0.662828192635E+03   -0.16983E-01   -0.16990E-01   768   0.387E-01 0.141E-03
CGA:   6    -0.662835376092E+03   -0.71835E-02   -0.71838E-02   768   0.208E-01-0.793E-04
CGA:   7    -0.662838602643E+03   -0.32266E-02   -0.32289E-02   768   0.109E-01 0.219E-04
CGA:   8    -0.662840655406E+03   -0.20528E-02   -0.20530E-02   768   0.462E-02-0.269E-04
CGA:   9    -0.662841630500E+03   -0.97509E-03   -0.97496E-03   768   0.199E-02 0.268E-05
CGA:  10    -0.662841979765E+03   -0.34926E-03   -0.34928E-03   768   0.110E-02 0.175E-05
CGA:  11    -0.662842151140E+03   -0.17138E-03   -0.17149E-03   768   0.410E-03 0.386E-05
CGA:  12    -0.662842247015E+03   -0.95875E-04   -0.95834E-04   768   0.232E-03 0.697E-06
  18 F= -.66939605E+03 E0= -.66936836E+03  d E =-.296786E-01  mag=     2.1340
       N       E                     dE             d eps       ncg     rms          ort
SDA:   1    -0.661960025999E+03    0.88213E+00    0.00000E+00   768   0.225E+01 0.000E+00
CGA:   2    -0.662469075299E+03   -0.50905E+00   -0.50910E+00   768   0.138E+01-0.826E-03
CGA:   3    -0.662715742725E+03   -0.24667E+00   -0.24672E+00   768   0.629E+00 0.262E-02
CGA:   4    -0.662806778955E+03   -0.91036E-01   -0.90977E-01   768   0.167E+00-0.134E-03
CGA:   5    -0.662834200993E+03   -0.27422E-01   -0.27437E-01   768   0.606E-01 0.264E-03
CGA:   6    -0.662845376554E+03   -0.11176E-01   -0.11175E-01   768   0.345E-01-0.163E-03
CGA:   7    -0.662850634038E+03   -0.52575E-02   -0.52640E-02   768   0.172E-01 0.567E-04
CGA:   8    -0.662853931439E+03   -0.32974E-02   -0.32980E-02   768   0.731E-02-0.461E-04
CGA:   9    -0.662855461199E+03   -0.15298E-02   -0.15294E-02   768   0.313E-02 0.802E-05
CGA:  10    -0.662855993769E+03   -0.53257E-03   -0.53258E-03   768   0.170E-02 0.121E-05
CGA:  11    -0.662856259545E+03   -0.26578E-03   -0.26595E-03   768   0.590E-03 0.505E-05
CGA:  12    -0.662856395289E+03   -0.13574E-03   -0.13570E-03   768   0.318E-03 0.708E-06
CGA:  13    -0.662856459073E+03   -0.63784E-04   -0.63776E-04   768   0.274E-03 0.511E-06
  19 F= -.66941032E+03 E0= -.66938394E+03  d E =-.439539E-01  mag=     2.2726
       N       E                     dE             d eps       ncg     rms          ort
SDA:   1    -0.662725900415E+03    0.13049E+00    0.00000E+00   768   0.376E+00 0.000E+00
CGA:   2    -0.662805473362E+03   -0.79573E-01   -0.79579E-01   768   0.223E+00-0.130E-03
CGA:   3    -0.662848070136E+03   -0.42597E-01   -0.42596E-01   768   0.114E+00 0.107E-03
CGA:   4    -0.662864747677E+03   -0.16678E-01   -0.16674E-01   768   0.292E-01-0.539E-05
CGA:   5    -0.662869581228E+03   -0.48336E-02   -0.48345E-02   768   0.101E-01 0.220E-04
CGA:   6    -0.662871538467E+03   -0.19572E-02   -0.19574E-02   768   0.561E-02-0.814E-05
CGA:   7    -0.662872460522E+03   -0.92206E-03   -0.92237E-03   768   0.326E-02 0.464E-05
CGA:   8    -0.662873020531E+03   -0.56001E-03   -0.55990E-03   768   0.139E-02-0.583E-05
CGA:   9    -0.662873313980E+03   -0.29345E-03   -0.29343E-03   768   0.519E-03 0.175E-06
CGA:  10    -0.662873414234E+03   -0.10025E-03   -0.10025E-03   768   0.286E-03 0.392E-06
CGA:  11    -0.662873456378E+03   -0.42144E-04   -0.42195E-04   768   0.121E-03 0.119E-05
  20 F= -.66942742E+03 E0= -.66940172E+03  d E =-.170935E-01  mag=     2.3465
       N       E                     dE             d eps       ncg     rms          ort
SDA:   1    -0.661568992254E+03    0.13044E+01    0.00000E+00   768   0.338E+01 0.000E+00
CGA:   2    -0.662284027934E+03   -0.71504E+00   -0.71518E+00   768   0.201E+01-0.347E-02
CGA:   3    -0.662667664681E+03   -0.38364E+00   -0.38361E+00   768   0.102E+01 0.303E-02
CGA:   4    -0.662816575741E+03   -0.14891E+00   -0.14878E+00   768   0.268E+00-0.410E-03
CGA:   5    -0.662860551303E+03   -0.43976E-01   -0.43998E-01   768   0.920E-01 0.403E-03
CGA:   6    -0.662878640624E+03   -0.18089E-01   -0.18097E-01   768   0.523E-01-0.347E-03
CGA:   7    -0.662886994461E+03   -0.83538E-02   -0.83648E-02   768   0.292E-01 0.162E-03
CGA:   8    -0.662892001523E+03   -0.50071E-02   -0.50049E-02   768   0.121E-01-0.794E-04
CGA:   9    -0.662894499239E+03   -0.24977E-02   -0.24969E-02   768   0.439E-02 0.217E-04
CGA:  10    -0.662895310598E+03   -0.81136E-03   -0.81136E-03   768   0.225E-02-0.236E-05
CGA:  11    -0.662895631146E+03   -0.32055E-03   -0.32085E-03   768   0.806E-03 0.405E-05
CGA:  12    -0.662895793796E+03   -0.16265E-03   -0.16266E-03   768   0.317E-03-0.505E-06
CGA:  13    -0.662895863303E+03   -0.69507E-04   -0.69498E-04   768   0.239E-03 0.244E-06
  21 F= -.66944999E+03 E0= -.66942537E+03  d E =-.396705E-01  mag=     2.4563
       N       E                     dE             d eps       ncg     rms          ort
SDA:   1    -0.662753003201E+03    0.14279E+00    0.00000E+00   768   0.412E+00 0.000E+00
CGA:   2    -0.662840777277E+03   -0.87774E-01   -0.87788E-01   768   0.241E+00-0.277E-03
CGA:   3    -0.662884758677E+03   -0.43981E-01   -0.43983E-01   768   0.125E+00 0.478E-03
CGA:   4    -0.662902690497E+03   -0.17932E-01   -0.17919E-01   768   0.332E-01-0.240E-04
CGA:   5    -0.662907761378E+03   -0.50709E-02   -0.50739E-02   768   0.127E-01 0.345E-04
CGA:   6    -0.662909903245E+03   -0.21419E-02   -0.21414E-02   768   0.671E-02-0.159E-04
CGA:   7    -0.662911055976E+03   -0.11527E-02   -0.11529E-02   768   0.308E-02 0.520E-05
CGA:   8    -0.662911678069E+03   -0.62209E-03   -0.62227E-03   768   0.148E-02-0.640E-05
CGA:   9    -0.662911942916E+03   -0.26485E-03   -0.26485E-03   768   0.703E-03 0.164E-05
CGA:  10    -0.662912052993E+03   -0.11008E-03   -0.11008E-03   768   0.268E-03 0.388E-06
CGA:  11    -0.662912102379E+03   -0.49386E-04   -0.49379E-04   768   0.986E-04 0.167E-05
  22 F= -.66946619E+03 E0= -.66944118E+03  d E =-.161931E-01  mag=     2.4463
       N       E                     dE             d eps       ncg     rms          ort
SDA:   1    -0.661977954077E+03    0.93410E+00    0.00000E+00   768   0.246E+01 0.000E+00
CGA:   2    -0.662501899073E+03   -0.52394E+00   -0.52417E+00   768   0.145E+01-0.391E-02
CGA:   3    -0.662763828472E+03   -0.26193E+00   -0.26194E+00   768   0.750E+00 0.747E-02
CGA:   4    -0.662871439800E+03   -0.10761E+00   -0.10740E+00   768   0.207E+00-0.783E-03
CGA:   5    -0.662901920774E+03   -0.30481E-01   -0.30528E-01   768   0.799E-01 0.453E-03
CGA:   6    -0.662915280025E+03   -0.13359E-01   -0.13353E-01   768   0.426E-01-0.256E-03
CGA:   7    -0.662922553465E+03   -0.72734E-02   -0.72748E-02   768   0.189E-01 0.106E-03
CGA:   8    -0.662926361957E+03   -0.38085E-02   -0.38108E-02   768   0.951E-02-0.634E-04
CGA:   9    -0.662927950671E+03   -0.15887E-02   -0.15890E-02   768   0.452E-02 0.136E-04
CGA:  10    -0.662928666319E+03   -0.71565E-03   -0.71548E-03   768   0.164E-02-0.265E-05
CGA:  11    -0.662928968587E+03   -0.30227E-03   -0.30223E-03   768   0.642E-03 0.479E-05
CGA:  12    -0.662929073274E+03   -0.10469E-03   -0.10468E-03   768   0.311E-03-0.555E-07
CGA:  13    -0.662929127585E+03   -0.54311E-04   -0.54313E-04   768   0.140E-03 0.904E-06
  23 F= -.66948298E+03 E0= -.66945617E+03  d E =-.329851E-01  mag=     2.3549
       N       E                     dE             d eps       ncg     rms          ort
SDA:   1    -0.662862928606E+03    0.66145E-01    0.00000E+00   768   0.199E+00 0.000E+00
CGA:   2    -0.662906590176E+03   -0.43662E-01   -0.43666E-01   768   0.114E+00-0.786E-04
CGA:   3    -0.662925864970E+03   -0.19275E-01   -0.19278E-01   768   0.547E-01 0.120E-03
CGA:   4    -0.662933726862E+03   -0.78619E-02   -0.78578E-02   768   0.165E-01-0.209E-04
CGA:   5    -0.662936271476E+03   -0.25446E-02   -0.25451E-02   768   0.672E-02 0.374E-05
CGA:   6    -0.662937309821E+03   -0.10383E-02   -0.10379E-02   768   0.313E-02-0.984E-05
CGA:   7    -0.662937854650E+03   -0.54483E-03   -0.54483E-03   768   0.144E-02-0.112E-05
CGA:   8    -0.662938151453E+03   -0.29680E-03   -0.29689E-03   768   0.796E-03-0.217E-05
CGA:   9    -0.662938286972E+03   -0.13552E-03   -0.13552E-03   768   0.424E-03 0.888E-06
CGA:  10    -0.662938358261E+03   -0.71289E-04   -0.71285E-04   768   0.178E-03-0.257E-06
  24 F= -.66949221E+03 E0= -.66946451E+03  d E =-.923066E-02  mag=     2.2838
       N       E                     dE             d eps       ncg     rms          ort
SDA:   1    -0.662804796184E+03    0.13349E+00    0.00000E+00   768   0.364E+00 0.000E+00
CGA:   2    -0.662884316051E+03   -0.79520E-01   -0.79537E-01   768   0.213E+00-0.296E-03
CGA:   3    -0.662919167846E+03   -0.34852E-01   -0.34867E-01   768   0.105E+00 0.416E-03
CGA:   4    -0.662934014253E+03   -0.14846E-01   -0.14833E-01   768   0.326E-01-0.651E-04
CGA:   5    -0.662938774875E+03   -0.47606E-02   -0.47627E-02   768   0.128E-01 0.155E-04
CGA:   6    -0.662940902798E+03   -0.21279E-02   -0.21275E-02   768   0.576E-02-0.219E-04
CGA:   7    -0.662941927928E+03   -0.10251E-02   -0.10251E-02   768   0.287E-02 0.133E-08
CGA:   8    -0.662942465594E+03   -0.53767E-03   -0.53775E-03   768   0.169E-02-0.463E-05
CGA:   9    -0.662942747996E+03   -0.28240E-03   -0.28241E-03   768   0.799E-03 0.136E-05
CGA:  10    -0.662942899797E+03   -0.15180E-03   -0.15181E-03   768   0.394E-03-0.526E-06
CGA:  11    -0.662942971458E+03   -0.71661E-04   -0.71653E-04   768   0.239E-03 0.155E-05
  25 F= -.66949680E+03 E0= -.66946798E+03  d E =-.138220E-01  mag=     2.1596
       N       E                     dE             d eps       ncg     rms          ort
SDA:   1    -0.662904470490E+03    0.38429E-01    0.00000E+00   768   0.126E+00 0.000E+00
CGA:   2    -0.662928262270E+03   -0.23792E-01   -0.23791E-01   768   0.646E-01-0.351E-05
CGA:   3    -0.662940387962E+03   -0.12126E-01   -0.12126E-01   768   0.353E-01-0.319E-04
CGA:   4    -0.662946024088E+03   -0.56361E-02   -0.56358E-02   768   0.114E-01-0.127E-04
CGA:   5    -0.662948007197E+03   -0.19831E-02   -0.19831E-02   768   0.403E-02-0.691E-05
CGA:   6    -0.662948831652E+03   -0.82445E-03   -0.82452E-03   768   0.173E-02-0.192E-05
CGA:   7    -0.662949250702E+03   -0.41905E-03   -0.41890E-03   768   0.872E-03 0.233E-05
CGA:   8    -0.662949460842E+03   -0.21014E-03   -0.21011E-03   768   0.479E-03 0.515E-06
CGA:   9    -0.662949547697E+03   -0.86855E-04   -0.86855E-04   768   0.369E-03 0.222E-06
  26 F= -.66950344E+03 E0= -.66947410E+03  d E =-.663832E-02  mag=     2.0667
       N       E                     dE             d eps       ncg     rms          ort
SDA:   1    -0.662553416858E+03    0.39604E+00    0.00000E+00   768   0.114E+01 0.000E+00
CGA:   2    -0.662767719568E+03   -0.21430E+00   -0.21430E+00   768   0.586E+00-0.947E-04
CGA:   3    -0.662876994790E+03   -0.10928E+00   -0.10928E+00   768   0.323E+00-0.511E-03
CGA:   4    -0.662928239405E+03   -0.51245E-01   -0.51230E-01   768   0.101E+00-0.354E-03
CGA:   5    -0.662946228615E+03   -0.17989E-01   -0.17989E-01   768   0.372E-01-0.256E-04
CGA:   6    -0.662953426957E+03   -0.71983E-02   -0.71997E-02   768   0.169E-01-0.720E-04
CGA:   7    -0.662956597397E+03   -0.31704E-02   -0.31702E-02   768   0.118E-01 0.255E-04
CGA:   8    -0.662958248077E+03   -0.16507E-02   -0.16492E-02   768   0.554E-02-0.678E-05
CGA:   9    -0.662959373100E+03   -0.11250E-02   -0.11250E-02   768   0.221E-02 0.251E-05
CGA:  10    -0.662959894997E+03   -0.52190E-03   -0.52200E-03   768   0.140E-02-0.219E-05
CGA:  11    -0.662960138394E+03   -0.24340E-03   -0.24335E-03   768   0.128E-02-0.870E-06
CGA:  12    -0.662960428671E+03   -0.29028E-03   -0.29003E-03   768   0.944E-03 0.392E-05
CGA:  13    -0.662960802306E+03   -0.37363E-03   -0.37582E-03   768   0.141E-02-0.107E-04
CGA:  14    -0.662961072391E+03   -0.27008E-03   -0.27015E-03   768   0.145E-02 0.134E-04
CGA:  15    -0.662961418764E+03   -0.34637E-03   -0.34795E-03   768   0.855E-03-0.239E-04
CGA:  16    -0.662961603771E+03   -0.18501E-03   -0.18475E-03   768   0.661E-03 0.669E-05
CGA:  17    -0.662961705099E+03   -0.10133E-03   -0.10111E-03   768   0.291E-03 0.889E-06
CGA:  18    -0.662961769369E+03   -0.64270E-04   -0.64250E-04   768   0.167E-03 0.174E-06
  27 F= -.66951580E+03 E0= -.66948960E+03  d E =-.189956E-01  mag=     1.5568
       N       E                     dE             d eps       ncg     rms          ort
SDA:   1    -0.661319191432E+03    0.16425E+01    0.00000E+00   768   0.455E+01 0.000E+00
CGA:   2    -0.662176815301E+03   -0.85762E+00   -0.85774E+00   768   0.235E+01 0.926E-03
CGA:   3    -0.662612134023E+03   -0.43532E+00   -0.43519E+00   768   0.131E+01-0.869E-02
CGA:   4    -0.662818283529E+03   -0.20615E+00   -0.20616E+00   768   0.404E+00-0.162E-02
CGA:   5    -0.662891141416E+03   -0.72858E-01   -0.72834E-01   768   0.145E+00-0.114E-02
CGA:   6    -0.662919051137E+03   -0.27910E-01   -0.27910E-01   768   0.627E-01 0.885E-04
CGA:   7    -0.662931291505E+03   -0.12240E-01   -0.12241E-01   768   0.407E-01-0.240E-03
CGA:   8    -0.662936817052E+03   -0.55255E-02   -0.55373E-02   768   0.194E-01 0.215E-04
CGA:   9    -0.662940432346E+03   -0.36153E-02   -0.36151E-02   768   0.638E-02-0.244E-04
CGA:  10    -0.662941832389E+03   -0.14000E-02   -0.14000E-02   768   0.279E-02 0.252E-06
CGA:  11    -0.662942295408E+03   -0.46302E-03   -0.46315E-03   768   0.199E-02-0.453E-06
CGA:  12    -0.662942631796E+03   -0.33639E-03   -0.33629E-03   768   0.933E-03-0.346E-06
CGA:  13    -0.662942933202E+03   -0.30141E-03   -0.30031E-03   768   0.840E-03 0.745E-05
CGA:  14    -0.662943117754E+03   -0.18455E-03   -0.18468E-03   768   0.105E-02-0.213E-05
CGA:  15    -0.662943332837E+03   -0.21508E-03   -0.21494E-03   768   0.505E-03 0.998E-05
CGA:  16    -0.662943494593E+03   -0.16176E-03   -0.16229E-03   768   0.365E-03-0.352E-05
CGA:  17    -0.662943551090E+03   -0.56497E-04   -0.56581E-04   768   0.244E-03-0.405E-06
  28 F= -.66949762E+03 E0= -.66948115E+03  d E =-.822389E-03  mag=     1.2070
       N       E                     dE             d eps       ncg     rms          ort
SDA:   1    -0.661912526280E+03    0.10310E+01    0.00000E+00   768   0.293E+01 0.000E+00
CGA:   2    -0.662467579846E+03   -0.55505E+00   -0.55509E+00   768   0.154E+01 0.116E-02
CGA:   3    -0.662745520040E+03   -0.27794E+00   -0.27768E+00   768   0.875E+00-0.564E-02
CGA:   4    -0.662880119869E+03   -0.13460E+00   -0.13493E+00   768   0.281E+00 0.135E-02
CGA:   5    -0.662926426339E+03   -0.46306E-01   -0.46229E-01   768   0.123E+00-0.774E-03
CGA:   6    -0.662943895813E+03   -0.17469E-01   -0.17502E-01   768   0.583E-01 0.956E-04
CGA:   7    -0.662953540379E+03   -0.96446E-02   -0.96357E-02   768   0.266E-01-0.113E-03
CGA:   8    -0.662958868658E+03   -0.53283E-02   -0.53274E-02   768   0.123E-01 0.555E-04
CGA:   9    -0.662961013195E+03   -0.21445E-02   -0.21436E-02   768   0.687E-02-0.238E-04
CGA:  10    -0.662961962732E+03   -0.94954E-03   -0.94966E-03   768   0.229E-02 0.414E-05
CGA:  11    -0.662962414290E+03   -0.45156E-03   -0.45157E-03   768   0.952E-03-0.873E-06
CGA:  12    -0.662962580942E+03   -0.16665E-03   -0.16664E-03   768   0.666E-03 0.265E-06
CGA:  13    -0.662962698396E+03   -0.11745E-03   -0.11745E-03   768   0.366E-03-0.157E-05
CGA:  14    -0.662962799715E+03   -0.10132E-03   -0.10154E-03   768   0.384E-03-0.205E-05
CGA:  15    -0.662962874514E+03   -0.74799E-04   -0.74798E-04   768   0.361E-03-0.790E-06
  29 F= -.66951693E+03 E0= -.66949434E+03  d E =-.201331E-01  mag=     1.3864
       N       E                     dE             d eps       ncg     rms          ort
SDA:   1    -0.662860150935E+03    0.10265E+00    0.00000E+00   768   0.314E+00 0.000E+00
CGA:   2    -0.662918562457E+03   -0.58412E-01   -0.58414E-01   768   0.164E+00 0.532E-04
CGA:   3    -0.662947958463E+03   -0.29396E-01   -0.29391E-01   768   0.930E-01-0.198E-03
CGA:   4    -0.662962827123E+03   -0.14869E-01   -0.14872E-01   768   0.296E-01 0.397E-05
CGA:   5    -0.662968076679E+03   -0.52496E-02   -0.52485E-02   768   0.117E-01-0.364E-04
CGA:   6    -0.662969947209E+03   -0.18705E-02   -0.18713E-02   768   0.671E-02 0.673E-05
CGA:   7    -0.662970926227E+03   -0.97902E-03   -0.97854E-03   768   0.319E-02-0.182E-05
CGA:   8    -0.662971519506E+03   -0.59328E-03   -0.59329E-03   768   0.125E-02 0.567E-05
CGA:   9    -0.662971773952E+03   -0.25445E-03   -0.25447E-03   768   0.560E-03-0.119E-05
CGA:  10    -0.662971850354E+03   -0.76402E-04   -0.76431E-04   768   0.258E-03 0.312E-06
  30 F= -.66952585E+03 E0= -.66950501E+03  d E =-.891933E-02  mag=     1.3303
       N       E                     dE             d eps       ncg     rms          ort
SDA:   1    -0.662051291107E+03    0.92048E+00    0.00000E+00   768   0.263E+01 0.000E+00
CGA:   2    -0.662535112945E+03   -0.48382E+00   -0.48383E+00   768   0.138E+01 0.343E-02
CGA:   3    -0.662779874094E+03   -0.24476E+00   -0.24466E+00   768   0.807E+00-0.938E-02
CGA:   4    -0.662904409327E+03   -0.12454E+00   -0.12472E+00   768   0.264E+00 0.122E-02
CGA:   5    -0.662947633038E+03   -0.43224E-01   -0.43184E-01   768   0.117E+00-0.972E-03
CGA:   6    -0.662964964129E+03   -0.17331E-01   -0.17350E-01   768   0.530E-01 0.132E-03
CGA:   7    -0.662974254743E+03   -0.92906E-02   -0.92893E-02   768   0.252E-01-0.141E-03
CGA:   8    -0.662979101951E+03   -0.48472E-02   -0.48459E-02   768   0.118E-01 0.667E-04
CGA:   9    -0.662981122754E+03   -0.20208E-02   -0.20207E-02   768   0.585E-02-0.605E-05
CGA:  10    -0.662982008659E+03   -0.88590E-03   -0.88616E-03   768   0.201E-02 0.343E-05
CGA:  11    -0.662982391163E+03   -0.38250E-03   -0.38251E-03   768   0.882E-03-0.150E-05
CGA:  12    -0.662982545757E+03   -0.15459E-03   -0.15460E-03   768   0.540E-03 0.135E-05
CGA:  13    -0.662982649662E+03   -0.10391E-03   -0.10388E-03   768   0.318E-03 0.865E-06
CGA:  14    -0.662982730419E+03   -0.80757E-04   -0.80675E-04   768   0.295E-03 0.139E-05
  31 F= -.66953647E+03 E0= -.66952183E+03  d E =-.195419E-01  mag=     1.1673
       N       E                     dE             d eps       ncg     rms          ort
SDA:   1    -0.662888600635E+03    0.94049E-01    0.00000E+00   768   0.287E+00 0.000E+00
CGA:   2    -0.662944787627E+03   -0.56187E-01   -0.56183E-01   768   0.157E+00 0.170E-03
CGA:   3    -0.662971704614E+03   -0.26917E-01   -0.26910E-01   768   0.870E-01-0.265E-03
CGA:   4    -0.662984990774E+03   -0.13286E-01   -0.13293E-01   768   0.252E-01 0.480E-04
CGA:   5    -0.662989152510E+03   -0.41617E-02   -0.41610E-02   768   0.112E-01-0.149E-04
CGA:   6    -0.662990860245E+03   -0.17077E-02   -0.17082E-02   768   0.504E-02 0.699E-05
CGA:   7    -0.662991764147E+03   -0.90390E-03   -0.90389E-03   768   0.250E-02-0.515E-05
CGA:   8    -0.662992244894E+03   -0.48075E-03   -0.48070E-03   768   0.116E-02 0.280E-05
CGA:   9    -0.662992447604E+03   -0.20271E-03   -0.20271E-03   768   0.561E-03-0.458E-06
CGA:  10    -0.662992534376E+03   -0.86771E-04   -0.86821E-04   768   0.202E-03 0.182E-05
  32 F= -.66954597E+03 E0= -.66953206E+03  d E =-.949122E-02  mag=     1.1540
       N       E                     dE             d eps       ncg     rms          ort
SDA:   1    -0.662889290860E+03    0.10316E+00    0.00000E+00   768   0.295E+00 0.000E+00
CGA:   2    -0.662947166875E+03   -0.57876E-01   -0.57870E-01   768   0.160E+00 0.168E-03
CGA:   3    -0.662974919976E+03   -0.27753E-01   -0.27750E-01   768   0.886E-01-0.268E-03
CGA:   4    -0.662988496314E+03   -0.13576E-01   -0.13582E-01   768   0.251E-01 0.528E-04
CGA:   5    -0.662992699241E+03   -0.42029E-02   -0.42024E-02   768   0.109E-01-0.173E-04
CGA:   6    -0.662994437182E+03   -0.17379E-02   -0.17383E-02   768   0.533E-02 0.846E-05
CGA:   7    -0.662995343491E+03   -0.90631E-03   -0.90624E-03   768   0.259E-02-0.486E-05
CGA:   8    -0.662995840904E+03   -0.49741E-03   -0.49735E-03   768   0.111E-02 0.305E-05
CGA:   9    -0.662996045461E+03   -0.20456E-03   -0.20456E-03   768   0.525E-03-0.590E-06
CGA:  10    -0.662996124537E+03   -0.79076E-04   -0.79127E-04   768   0.201E-03 0.174E-05
  33 F= -.66954923E+03 E0= -.66953585E+03  d E =-.127548E-01  mag=     1.1470
       N       E                     dE             d eps       ncg     rms          ort
SDA:   1    -0.662937951832E+03    0.58094E-01    0.00000E+00   768   0.192E+00 0.000E+00
CGA:   2    -0.662972813130E+03   -0.34861E-01   -0.34860E-01   768   0.101E+00 0.149E-03
CGA:   3    -0.662989987263E+03   -0.17174E-01   -0.17171E-01   768   0.616E-01-0.219E-03
CGA:   4    -0.662999885731E+03   -0.98985E-02   -0.99005E-02   768   0.191E-01 0.448E-04
CGA:   5    -0.663002920079E+03   -0.30343E-02   -0.30340E-02   768   0.782E-02-0.278E-05
CGA:   6    -0.663004218819E+03   -0.12987E-02   -0.12989E-02   768   0.361E-02 0.144E-04
CGA:   7    -0.663004856830E+03   -0.63801E-03   -0.63801E-03   768   0.179E-02 0.617E-06
CGA:   8    -0.663005186139E+03   -0.32931E-03   -0.32927E-03   768   0.842E-03 0.340E-05
CGA:   9    -0.663005332308E+03   -0.14617E-03   -0.14617E-03   768   0.354E-03-0.401E-06
CGA:  10    -0.663005389786E+03   -0.57478E-04   -0.57493E-04   768   0.134E-03 0.109E-05
  34 F= -.66955836E+03 E0= -.66954530E+03  d E =-.912787E-02  mag=     1.1426
       N       E                     dE             d eps       ncg     rms          ort
SDA:   1    -0.662414609182E+03    0.59072E+00    0.00000E+00   768   0.173E+01 0.000E+00
CGA:   2    -0.662727344673E+03   -0.31274E+00   -0.31267E+00   768   0.915E+00 0.425E-02
CGA:   3    -0.662882585159E+03   -0.15524E+00   -0.15518E+00   768   0.558E+00-0.599E-02
CGA:   4    -0.662971947060E+03   -0.89362E-01   -0.89408E-01   768   0.168E+00 0.134E-02
CGA:   5    -0.662999819086E+03   -0.27872E-01   -0.27866E-01   768   0.681E-01-0.371E-03
CGA:   6    -0.663011143195E+03   -0.11324E-01   -0.11327E-01   768   0.315E-01 0.195E-03
CGA:   7    -0.663016695750E+03   -0.55526E-02   -0.55529E-02   768   0.158E-01-0.643E-04
CGA:   8    -0.663019584090E+03   -0.28883E-02   -0.28878E-02   768   0.710E-02 0.361E-04
CGA:   9    -0.663020866337E+03   -0.12822E-02   -0.12823E-02   768   0.292E-02-0.865E-05
CGA:  10    -0.663021335176E+03   -0.46884E-03   -0.46892E-03   768   0.112E-02 0.427E-05
CGA:  11    -0.663021526168E+03   -0.19099E-03   -0.19099E-03   768   0.399E-03-0.383E-06
CGA:  12    -0.663021597231E+03   -0.71063E-04   -0.71056E-04   768   0.186E-03 0.141E-05
  35 F= -.66957411E+03 E0= -.66956190E+03  d E =-.248836E-01  mag=     1.1355
       N       E                     dE             d eps       ncg     rms          ort
SDA:   1    -0.662920522112E+03    0.10100E+00    0.00000E+00   768   0.292E+00 0.000E+00
CGA:   2    -0.662973606135E+03   -0.53084E-01   -0.53079E-01   768   0.155E+00 0.282E-03
CGA:   3    -0.662999902176E+03   -0.26296E-01   -0.26293E-01   768   0.928E-01-0.410E-03
CGA:   4    -0.663014938624E+03   -0.15036E-01   -0.15039E-01   768   0.284E-01 0.908E-04
CGA:   5    -0.663019689878E+03   -0.47513E-02   -0.47510E-02   768   0.110E-01-0.150E-04
CGA:   6    -0.663021539842E+03   -0.18500E-02   -0.18501E-02   768   0.538E-02 0.197E-04
CGA:   7    -0.663022479892E+03   -0.94005E-03   -0.94006E-03   768   0.265E-02-0.742E-06
CGA:   8    -0.663022976450E+03   -0.49656E-03   -0.49646E-03   768   0.120E-02 0.528E-05
CGA:   9    -0.663023196169E+03   -0.21972E-03   -0.21973E-03   768   0.498E-03-0.484E-06
CGA:  10    -0.663023276012E+03   -0.79843E-04   -0.79863E-04   768   0.198E-03 0.132E-05
  36 F= -.66957559E+03 E0= -.66956371E+03  d E =-.263631E-01  mag=     1.1339
       N       E                     dE             d eps       ncg     rms          ort
SDA:   1    -0.662843594382E+03    0.17960E+00    0.00000E+00   768   0.523E+00 0.000E+00
CGA:   2    -0.662948127121E+03   -0.10453E+00   -0.10449E+00   768   0.301E+00 0.104E-02
CGA:   3    -0.662996585112E+03   -0.48458E-01   -0.48439E-01   768   0.160E+00-0.712E-03
CGA:   4    -0.663021480240E+03   -0.24895E-01   -0.24904E-01   768   0.446E-01 0.170E-03
CGA:   5    -0.663028846646E+03   -0.73664E-02   -0.73658E-02   768   0.174E-01-0.226E-04
CGA:   6    -0.663031889118E+03   -0.30425E-02   -0.30424E-02   768   0.808E-02 0.353E-04
CGA:   7    -0.663033307541E+03   -0.14184E-02   -0.14185E-02   768   0.407E-02-0.544E-05
CGA:   8    -0.663034068317E+03   -0.76078E-03   -0.76064E-03   768   0.188E-02 0.717E-05
CGA:   9    -0.663034415020E+03   -0.34670E-03   -0.34672E-03   768   0.774E-03-0.593E-06
CGA:  10    -0.663034546614E+03   -0.13159E-03   -0.13161E-03   768   0.324E-03 0.274E-05
CGA:  11    -0.663034602147E+03   -0.55534E-04   -0.55535E-04   768   0.117E-03 0.529E-06
  37 F= -.66958694E+03 E0= -.66957560E+03  d E =-.113497E-01  mag=     1.1294
       N       E                     dE             d eps       ncg     rms          ort
SDA:   1    -0.662259862199E+03    0.77468E+00    0.00000E+00   768   0.214E+01 0.000E+00
CGA:   2    -0.662689105070E+03   -0.42924E+00   -0.42891E+00   768   0.123E+01 0.742E-02
CGA:   3    -0.662888721501E+03   -0.19962E+00   -0.19947E+00   768   0.650E+00-0.596E-02
CGA:   4    -0.662989517395E+03   -0.10080E+00   -0.10087E+00   768   0.179E+00 0.138E-02
CGA:   5    -0.663020052091E+03   -0.30535E-01   -0.30532E-01   768   0.681E-01-0.325E-03
CGA:   6    -0.663032162167E+03   -0.12110E-01   -0.12109E-01   768   0.320E-01 0.209E-03
CGA:   7    -0.663037805803E+03   -0.56436E-02   -0.56438E-02   768   0.163E-01-0.644E-04
CGA:   8    -0.663040834515E+03   -0.30287E-02   -0.30280E-02   768   0.726E-02 0.391E-04
CGA:   9    -0.663042215955E+03   -0.13814E-02   -0.13816E-02   768   0.288E-02-0.760E-05
CGA:  10    -0.663042711572E+03   -0.49562E-03   -0.49564E-03   768   0.123E-02 0.666E-05
CGA:  11    -0.663042917211E+03   -0.20564E-03   -0.20564E-03   768   0.419E-03 0.560E-06
CGA:  12    -0.663042996749E+03   -0.79538E-04   -0.79517E-04   768   0.184E-03 0.148E-05
  38 F= -.66959535E+03 E0= -.66958470E+03  d E =-.197619E-01  mag=     1.1252
       N       E                     dE             d eps       ncg     rms          ort
SDA:   1    -0.662899000194E+03    0.14392E+00    0.00000E+00   768   0.388E+00 0.000E+00
CGA:   2    -0.662996334385E+03   -0.97334E-01   -0.97309E-01   768   0.241E+00 0.185E-03
CGA:   3    -0.663027481150E+03   -0.31147E-01   -0.31162E-01   768   0.995E-01-0.474E-04
CGA:   4    -0.663043889239E+03   -0.16408E-01   -0.16408E-01   768   0.225E-01-0.311E-04
CGA:   5    -0.663048070845E+03   -0.41816E-02   -0.41815E-02   768   0.758E-02 0.120E-04
CGA:   6    -0.663049377408E+03   -0.13066E-02   -0.13066E-02   768   0.308E-02 0.101E-04
CGA:   7    -0.663049907777E+03   -0.53037E-03   -0.53037E-03   768   0.163E-02 0.821E-06
CGA:   8    -0.663050208930E+03   -0.30115E-03   -0.30114E-03   768   0.794E-03 0.140E-05
CGA:   9    -0.663050374946E+03   -0.16602E-03   -0.16602E-03   768   0.350E-03-0.164E-06
CGA:  10    -0.663050446259E+03   -0.71313E-04   -0.71268E-04   768   0.201E-03 0.180E-05
  39 F= -.66960330E+03 E0= -.66959281E+03  d E =-.794965E-02  mag=     1.1184
       N       E                     dE             d eps       ncg     rms          ort
SDA:   1    -0.662952958523E+03    0.97416E-01    0.00000E+00   768   0.253E+00 0.000E+00
CGA:   2    -0.663016741829E+03   -0.63783E-01   -0.63775E-01   768   0.156E+00 0.493E-04
CGA:   3    -0.663037025887E+03   -0.20284E-01   -0.20290E-01   768   0.645E-01-0.345E-04
CGA:   4    -0.663047666828E+03   -0.10641E-01   -0.10641E-01   768   0.147E-01-0.275E-04
CGA:   5    -0.663050332083E+03   -0.26653E-02   -0.26652E-02   768   0.514E-02 0.109E-04
CGA:   6    -0.663051234716E+03   -0.90263E-03   -0.90267E-03   768   0.200E-02 0.749E-05
CGA:   7    -0.663051584982E+03   -0.35027E-03   -0.35027E-03   768   0.111E-02 0.577E-06
CGA:   8    -0.663051785779E+03   -0.20080E-03   -0.20079E-03   768   0.522E-03 0.857E-06
CGA:   9    -0.663051896045E+03   -0.11027E-03   -0.11027E-03   768   0.234E-03-0.459E-07
CGA:  10    -0.663051944058E+03   -0.48013E-04   -0.47977E-04   768   0.132E-03 0.145E-05
  40 F= -.66960519E+03 E0= -.66959481E+03  d E =-.983627E-02  mag=     1.1129
       N       E                     dE             d eps       ncg     rms          ort
SDA:   1    -0.662815732693E+03    0.23616E+00    0.00000E+00   768   0.632E+00 0.000E+00
CGA:   2    -0.662975291223E+03   -0.15956E+00   -0.15948E+00   768   0.354E+00 0.777E-03
CGA:   3    -0.663026507561E+03   -0.51216E-01   -0.51195E-01   768   0.150E+00-0.303E-03
CGA:   4    -0.663048671050E+03   -0.22163E-01   -0.22166E-01   768   0.376E-01-0.588E-04
CGA:   5    -0.663055074615E+03   -0.64036E-02   -0.64031E-02   768   0.124E-01-0.187E-04
CGA:   6    -0.663057196693E+03   -0.21221E-02   -0.21222E-02   768   0.478E-02 0.656E-05
CGA:   7    -0.663058035365E+03   -0.83867E-03   -0.83864E-03   768   0.243E-02-0.573E-05
CGA:   8    -0.663058484923E+03   -0.44956E-03   -0.44957E-03   768   0.113E-02-0.284E-05
CGA:   9    -0.663058713415E+03   -0.22849E-03   -0.22857E-03   768   0.524E-03-0.333E-05
CGA:  10    -0.663058813902E+03   -0.10049E-03   -0.10047E-03   768   0.264E-03 0.135E-05
CGA:  11    -0.663058858167E+03   -0.44265E-04   -0.44270E-04   768   0.995E-04 0.352E-06
  41 F= -.66961274E+03 E0= -.66960239E+03  d E =-.755194E-02  mag=     1.1114
       N       E                     dE             d eps       ncg     rms          ort
SDA:   1    -0.663013336466E+03    0.45477E-01    0.00000E+00   768   0.119E+00 0.000E+00
CGA:   2    -0.663043784487E+03   -0.30448E-01   -0.30440E-01   768   0.644E-01 0.751E-04
CGA:   3    -0.663053409920E+03   -0.96254E-02   -0.96226E-02   768   0.276E-01-0.415E-04
CGA:   4    -0.663057420050E+03   -0.40101E-02   -0.40100E-02   768   0.715E-02-0.171E-04
CGA:   5    -0.663058612066E+03   -0.11920E-02   -0.11920E-02   768   0.229E-02 0.164E-05
CGA:   6    -0.663059010461E+03   -0.39840E-03   -0.39841E-03   768   0.910E-03 0.154E-05
CGA:   7    -0.663059169799E+03   -0.15934E-03   -0.15933E-03   768   0.462E-03-0.179E-05
CGA:   8    -0.663059256884E+03   -0.87086E-04   -0.87101E-04   768   0.220E-03-0.176E-05
  42 F= -.66961341E+03 E0= -.66960308E+03  d E =-.822281E-02  mag=     1.1110
       N       E                     dE             d eps       ncg     rms          ort
SDA:   1    -0.662935157789E+03    0.12401E+00    0.00000E+00   768   0.344E+00 0.000E+00
CGA:   2    -0.663016252655E+03   -0.81095E-01   -0.81077E-01   768   0.206E+00 0.182E-03
CGA:   3    -0.663045849861E+03   -0.29597E-01   -0.29574E-01   768   0.855E-01-0.240E-03
CGA:   4    -0.663058898370E+03   -0.13049E-01   -0.13049E-01   768   0.224E-01-0.477E-04
CGA:   5    -0.663062815711E+03   -0.39173E-02   -0.39172E-02   768   0.753E-02-0.119E-04
CGA:   6    -0.663064117142E+03   -0.13014E-02   -0.13015E-02   768   0.316E-02 0.769E-05
CGA:   7    -0.663064680238E+03   -0.56310E-03   -0.56309E-03   768   0.162E-02-0.220E-05
CGA:   8    -0.663064982286E+03   -0.30205E-03   -0.30206E-03   768   0.768E-03-0.157E-05
CGA:   9    -0.663065139063E+03   -0.15678E-03   -0.15686E-03   768   0.341E-03-0.315E-05
CGA:  10    -0.663065202438E+03   -0.63375E-04   -0.63373E-04   768   0.166E-03 0.467E-06
  43 F= -.66961998E+03 E0= -.66960965E+03  d E =-.656475E-02  mag=     1.1078
       N       E                     dE             d eps       ncg     rms          ort
SDA:   1    -0.662634474390E+03    0.43066E+00    0.00000E+00   768   0.115E+01 0.000E+00
CGA:   2    -0.662905772233E+03   -0.27130E+00   -0.27120E+00   768   0.682E+00 0.934E-03
CGA:   3    -0.663004551171E+03   -0.98779E-01   -0.98648E-01   768   0.282E+00-0.140E-02
CGA:   4    -0.663047590504E+03   -0.43039E-01   -0.43045E-01   768   0.752E-01-0.121E-03
CGA:   5    -0.663060377675E+03   -0.12787E-01   -0.12785E-01   768   0.246E-01-0.895E-04
CGA:   6    -0.663064663800E+03   -0.42861E-02   -0.42864E-02   768   0.102E-01 0.261E-04
CGA:   7    -0.663066474775E+03   -0.18110E-02   -0.18109E-02   768   0.524E-02-0.113E-04
CGA:   8    -0.663067445856E+03   -0.97108E-03   -0.97106E-03   768   0.245E-02 0.333E-06
CGA:   9    -0.663067949543E+03   -0.50369E-03   -0.50388E-03   768   0.110E-02-0.683E-05
CGA:  10    -0.663068155218E+03   -0.20568E-03   -0.20567E-03   768   0.536E-03 0.120E-05
CGA:  11    -0.663068244565E+03   -0.89347E-04   -0.89342E-04   768   0.194E-03-0.278E-06
  44 F= -.66962413E+03 E0= -.66961381E+03  d E =-.107171E-01  mag=     1.1018
       N       E                     dE             d eps       ncg     rms          ort
SDA:   1    -0.662856044215E+03    0.21211E+00    0.00000E+00   768   0.566E+00 0.000E+00
CGA:   2    -0.662994442454E+03   -0.13840E+00   -0.13835E+00   768   0.323E+00 0.558E-03
CGA:   3    -0.663044021426E+03   -0.49579E-01   -0.49542E-01   768   0.128E+00-0.516E-03
CGA:   4    -0.663063363630E+03   -0.19342E-01   -0.19347E-01   768   0.364E-01-0.267E-04
CGA:   5    -0.663069503735E+03   -0.61401E-02   -0.61391E-02   768   0.117E-01-0.374E-04
CGA:   6    -0.663071604135E+03   -0.21004E-02   -0.21004E-02   768   0.521E-02 0.423E-05
CGA:   7    -0.663072521232E+03   -0.91710E-03   -0.91704E-03   768   0.275E-02-0.830E-05
CGA:   8    -0.663073018804E+03   -0.49757E-03   -0.49757E-03   768   0.124E-02-0.181E-05
CGA:   9    -0.663073276520E+03   -0.25772E-03   -0.25782E-03   768   0.525E-03-0.367E-05
CGA:  10    -0.663073376832E+03   -0.10031E-03   -0.10030E-03   768   0.252E-03 0.101E-05
CGA:  11    -0.663073416732E+03   -0.39900E-04   -0.39899E-04   768   0.948E-04-0.160E-07
  45 F= -.66962980E+03 E0= -.66961944E+03  d E =-.566412E-02  mag=     1.1010
       N       E                     dE             d eps       ncg     rms          ort
SDA:   1    -0.662855810559E+03    0.21757E+00    0.00000E+00   768   0.570E+00 0.000E+00
CGA:   2    -0.662995205750E+03   -0.13940E+00   -0.13934E+00   768   0.327E+00 0.580E-03
CGA:   3    -0.663045132927E+03   -0.49927E-01   -0.49887E-01   768   0.130E+00-0.531E-03
CGA:   4    -0.663064742276E+03   -0.19609E-01   -0.19615E-01   768   0.368E-01-0.277E-04
CGA:   5    -0.663070956350E+03   -0.62141E-02   -0.62131E-02   768   0.118E-01-0.384E-04
CGA:   6    -0.663073073694E+03   -0.21173E-02   -0.21174E-02   768   0.526E-02 0.434E-05
CGA:   7    -0.663074000034E+03   -0.92634E-03   -0.92628E-03   768   0.276E-02-0.826E-05
CGA:   8    -0.663074500702E+03   -0.50067E-03   -0.50067E-03   768   0.125E-02-0.176E-05
CGA:   9    -0.663074759248E+03   -0.25855E-03   -0.25865E-03   768   0.528E-03-0.373E-05
CGA:  10    -0.663074859477E+03   -0.10023E-03   -0.10022E-03   768   0.252E-03 0.958E-06
CGA:  11    -0.663074899516E+03   -0.40039E-04   -0.40037E-04   768   0.937E-04-0.340E-07
  46 F= -.66963176E+03 E0= -.66962136E+03  d E =-.762882E-02  mag=     1.1003
       N       E                     dE             d eps       ncg     rms          ort
SDA:   1    -0.662972112838E+03    0.10275E+00    0.00000E+00   768   0.280E+00 0.000E+00
CGA:   2    -0.663038048928E+03   -0.65936E-01   -0.65944E-01   768   0.166E+00-0.106E-03
CGA:   3    -0.663063632081E+03   -0.25583E-01   -0.25591E-01   768   0.697E-01 0.823E-04
CGA:   4    -0.663074279717E+03   -0.10648E-01   -0.10646E-01   768   0.201E-01-0.645E-05
CGA:   5    -0.663077745778E+03   -0.34661E-02   -0.34663E-02   768   0.667E-02 0.932E-05
CGA:   6    -0.663078965685E+03   -0.12199E-02   -0.12199E-02   768   0.323E-02-0.831E-05
CGA:   7    -0.663079534178E+03   -0.56849E-03   -0.56849E-03   768   0.173E-02-0.149E-05
CGA:   8    -0.663079838919E+03   -0.30474E-03   -0.30472E-03   768   0.760E-03-0.238E-05
CGA:   9    -0.663079997458E+03   -0.15854E-03   -0.15850E-03   768   0.294E-03 0.111E-05
CGA:  10    -0.663080053427E+03   -0.55968E-04   -0.55969E-04   768   0.138E-03-0.770E-07
  47 F= -.66963702E+03 E0= -.66962668E+03  d E =-.525901E-02  mag=     1.0984
       N       E                     dE             d eps       ncg     rms          ort
SDA:   1    -0.662664794988E+03    0.41520E+00    0.00000E+00   768   0.109E+01 0.000E+00
CGA:   2    -0.662920950737E+03   -0.25616E+00   -0.25620E+00   768   0.642E+00-0.671E-03
CGA:   3    -0.663020301146E+03   -0.99350E-01   -0.99401E-01   768   0.268E+00 0.581E-03
CGA:   4    -0.663061458767E+03   -0.41158E-01   -0.41145E-01   768   0.773E-01-0.990E-04
CGA:   5    -0.663074758589E+03   -0.13300E-01   -0.13301E-01   768   0.261E-01 0.637E-04
CGA:   6    -0.663079515940E+03   -0.47574E-02   -0.47575E-02   768   0.124E-01-0.446E-04
CGA:   7    -0.663081715899E+03   -0.22000E-02   -0.22000E-02   768   0.671E-02 0.329E-05
CGA:   8    -0.663082879882E+03   -0.11640E-02   -0.11639E-02   768   0.294E-02-0.920E-05
CGA:   9    -0.663083494199E+03   -0.61432E-03   -0.61417E-03   768   0.113E-02 0.407E-05
CGA:  10    -0.663083710523E+03   -0.21632E-03   -0.21633E-03   768   0.523E-03-0.600E-06
CGA:  11    -0.663083790756E+03   -0.80234E-04   -0.80267E-04   768   0.200E-03 0.116E-05
  48 F= -.66964094E+03 E0= -.66963072E+03  d E =-.917602E-02  mag=     1.0949
       N       E                     dE             d eps       ncg     rms          ort
SDA:   1    -0.663021022793E+03    0.62688E-01    0.00000E+00   768   0.177E+00 0.000E+00
CGA:   2    -0.663060119314E+03   -0.39097E-01   -0.39101E-01   768   0.105E+00-0.712E-04
CGA:   3    -0.663076151988E+03   -0.16033E-01   -0.16040E-01   768   0.463E-01 0.870E-04
CGA:   4    -0.663083353356E+03   -0.72014E-02   -0.72005E-02   768   0.131E-01 0.281E-05
CGA:   5    -0.663085583657E+03   -0.22303E-02   -0.22304E-02   768   0.462E-02 0.584E-05
CGA:   6    -0.663086434322E+03   -0.85066E-03   -0.85071E-03   768   0.234E-02-0.840E-05
CGA:   7    -0.663086844507E+03   -0.41019E-03   -0.41017E-03   768   0.122E-02-0.305E-05
CGA:   8    -0.663087068228E+03   -0.22372E-03   -0.22373E-03   768   0.526E-03-0.205E-05
CGA:   9    -0.663087173643E+03   -0.10541E-03   -0.10538E-03   768   0.210E-03 0.139E-05
CGA:  10    -0.663087211298E+03   -0.37655E-04   -0.37656E-04   768   0.955E-04 0.385E-06
  49 F= -.66964430E+03 E0= -.66963410E+03  d E =-.336369E-02  mag=     1.0957
       N       E                     dE             d eps       ncg     rms          ort
SDA:   1    -0.662560906383E+03    0.52627E+00    0.00000E+00   768   0.141E+01 0.000E+00
CGA:   2    -0.662873956198E+03   -0.31305E+00   -0.31315E+00   768   0.848E+00-0.136E-02
CGA:   3    -0.663002263120E+03   -0.12831E+00   -0.12850E+00   768   0.371E+00 0.241E-02
CGA:   4    -0.663060262807E+03   -0.58000E-01   -0.57974E-01   768   0.106E+00-0.229E-03
CGA:   5    -0.663078088507E+03   -0.17826E-01   -0.17829E-01   768   0.387E-01 0.158E-03
CGA:   6    -0.663085003224E+03   -0.69147E-02   -0.69147E-02   768   0.189E-01-0.847E-04
CGA:   7    -0.663088359787E+03   -0.33566E-02   -0.33566E-02   768   0.962E-02 0.884E-05
CGA:   8    -0.663090140091E+03   -0.17803E-02   -0.17805E-02   768   0.417E-02-0.174E-04
CGA:   9    -0.663090963415E+03   -0.82332E-03   -0.82314E-03   768   0.170E-02 0.749E-05
CGA:  10    -0.663091257590E+03   -0.29417E-03   -0.29417E-03   768   0.730E-03 0.215E-06
CGA:  11    -0.663091376936E+03   -0.11935E-03   -0.11938E-03   768   0.250E-03 0.211E-05
CGA:  12    -0.663091425943E+03   -0.49008E-04   -0.49009E-04   768   0.104E-03-0.675E-07
  50 F= -.66964834E+03 E0= -.66963817E+03  d E =-.740633E-02  mag=     1.0983
       N       E                     dE             d eps       ncg     rms          ort
SDA:   1    -0.662973099777E+03    0.11828E+00    0.00000E+00   768   0.334E+00 0.000E+00
CGA:   2    -0.663042909178E+03   -0.69809E-01   -0.69821E-01   768   0.194E+00-0.230E-03
CGA:   3    -0.663073409908E+03   -0.30501E-01   -0.30515E-01   768   0.919E-01 0.276E-03
CGA:   4    -0.663087975733E+03   -0.14566E-01   -0.14563E-01   768   0.268E-01-0.176E-04
CGA:   5    -0.663092655459E+03   -0.46797E-02   -0.46799E-02   768   0.976E-02 0.241E-04
CGA:   6    -0.663094396721E+03   -0.17413E-02   -0.17413E-02   768   0.489E-02-0.144E-04
CGA:   7    -0.663095272657E+03   -0.87594E-03   -0.87593E-03   768   0.255E-02-0.847E-06
CGA:   8    -0.663095728837E+03   -0.45618E-03   -0.45618E-03   768   0.108E-02-0.290E-05
CGA:   9    -0.663095944915E+03   -0.21608E-03   -0.21602E-03   768   0.418E-03 0.221E-05
CGA:  10    -0.663096018133E+03   -0.73218E-04   -0.73218E-04   768   0.185E-03 0.465E-07
  51 F= -.66965288E+03 E0= -.66964268E+03  d E =-.453592E-02  mag=     1.0984
       N       E                     dE             d eps       ncg     rms          ort
SDA:   1    -0.662821225506E+03    0.27472E+00    0.00000E+00   768   0.752E+00 0.000E+00
CGA:   2    -0.662979047234E+03   -0.15782E+00   -0.15786E+00   768   0.434E+00-0.703E-03
CGA:   3    -0.663047850979E+03   -0.68804E-01   -0.68847E-01   768   0.206E+00 0.903E-03
CGA:   4    -0.663080503411E+03   -0.32652E-01   -0.32643E-01   768   0.600E-01-0.102E-03
CGA:   5    -0.663090905344E+03   -0.10402E-01   -0.10403E-01   768   0.224E-01 0.778E-04
CGA:   6    -0.663094907314E+03   -0.40020E-02   -0.40020E-02   768   0.111E-01-0.411E-04
CGA:   7    -0.663096885118E+03   -0.19778E-02   -0.19778E-02   768   0.578E-02 0.383E-05
CGA:   8    -0.663097913006E+03   -0.10279E-02   -0.10279E-02   768   0.241E-02-0.747E-05
CGA:   9    -0.663098397031E+03   -0.48402E-03   -0.48390E-03   768   0.940E-03 0.437E-05
CGA:  10    -0.663098561515E+03   -0.16448E-03   -0.16448E-03   768   0.413E-03-0.153E-06
CGA:  11    -0.663098627079E+03   -0.65565E-04   -0.65586E-04   768   0.146E-03 0.109E-05
  52 F= -.66965539E+03 E0= -.66964516E+03  d E =-.704805E-02  mag=     1.0987
       N       E                     dE             d eps       ncg     rms          ort
SDA:   1    -0.662971397855E+03    0.12716E+00    0.00000E+00   768   0.357E+00 0.000E+00
CGA:   2    -0.663047059404E+03   -0.75662E-01   -0.75672E-01   768   0.204E+00-0.203E-03
CGA:   3    -0.663078940218E+03   -0.31881E-01   -0.31897E-01   768   0.953E-01 0.272E-03
CGA:   4    -0.663094066704E+03   -0.15126E-01   -0.15124E-01   768   0.280E-01-0.244E-04
CGA:   5    -0.663098884692E+03   -0.48180E-02   -0.48183E-02   768   0.101E-01 0.217E-04
CGA:   6    -0.663100726496E+03   -0.18418E-02   -0.18419E-02   768   0.520E-02-0.179E-04
CGA:   7    -0.663101641797E+03   -0.91530E-03   -0.91530E-03   768   0.270E-02-0.242E-05
CGA:   8    -0.663102124628E+03   -0.48283E-03   -0.48284E-03   768   0.113E-02-0.394E-05
CGA:   9    -0.663102348299E+03   -0.22367E-03   -0.22362E-03   768   0.435E-03 0.233E-05
CGA:  10    -0.663102425147E+03   -0.76848E-04   -0.76849E-04   768   0.194E-03 0.404E-06
  53 F= -.66965904E+03 E0= -.66964875E+03  d E =-.364709E-02  mag=     1.1015
       N       E                     dE             d eps       ncg     rms          ort
SDA:   1    -0.662849602164E+03    0.25275E+00    0.00000E+00   768   0.695E+00 0.000E+00
CGA:   2    -0.662996625457E+03   -0.14702E+00   -0.14706E+00   768   0.400E+00-0.593E-03
CGA:   3    -0.663058560944E+03   -0.61935E-01   -0.61986E-01   768   0.186E+00 0.872E-03
CGA:   4    -0.663088173139E+03   -0.29612E-01   -0.29604E-01   768   0.548E-01-0.102E-03
CGA:   5    -0.663097508688E+03   -0.93355E-02   -0.93365E-02   768   0.204E-01 0.658E-04
CGA:   6    -0.663101153256E+03   -0.36446E-02   -0.36447E-02   768   0.103E-01-0.396E-04
CGA:   7    -0.663102977184E+03   -0.18239E-02   -0.18239E-02   768   0.523E-02 0.121E-05
CGA:   8    -0.663103927188E+03   -0.95000E-03   -0.95006E-03   768   0.220E-02-0.825E-05
CGA:   9    -0.663104356961E+03   -0.42977E-03   -0.42968E-03   768   0.879E-03 0.402E-05
CGA:  10    -0.663104507271E+03   -0.15031E-03   -0.15031E-03   768   0.376E-03 0.355E-06
CGA:  11    -0.663104567775E+03   -0.60505E-04   -0.60530E-04   768   0.129E-03 0.145E-05
  54 F= -.66966096E+03 E0= -.66965059E+03  d E =-.557225E-02  mag=     1.1059
       N       E                     dE             d eps       ncg     rms          ort
SDA:   1    -0.662926110827E+03    0.17840E+00    0.00000E+00   768   0.494E+00 0.000E+00
CGA:   2    -0.663032333017E+03   -0.10622E+00   -0.10623E+00   768   0.276E+00-0.205E-03
CGA:   3    -0.663076958683E+03   -0.44626E-01   -0.44632E-01   768   0.130E+00 0.130E-03
CGA:   4    -0.663097261840E+03   -0.20303E-01   -0.20300E-01   768   0.380E-01-0.370E-04
CGA:   5    -0.663103940755E+03   -0.66789E-02   -0.66790E-02   768   0.128E-01 0.191E-04
CGA:   6    -0.663106402128E+03   -0.24614E-02   -0.24618E-02   768   0.639E-02-0.208E-04
CGA:   7    -0.663107579971E+03   -0.11778E-02   -0.11778E-02   768   0.357E-02 0.822E-06
CGA:   8    -0.663108151514E+03   -0.57154E-03   -0.57141E-03   768   0.155E-02-0.383E-05
CGA:   9    -0.663108456660E+03   -0.30515E-03   -0.30509E-03   768   0.535E-03 0.217E-05
CGA:  10    -0.663108564804E+03   -0.10814E-03   -0.10815E-03   768   0.223E-03-0.118E-06
CGA:  11    -0.663108599275E+03   -0.34471E-04   -0.34490E-04   768   0.102E-03 0.745E-06
  55 F= -.66966500E+03 E0= -.66965464E+03  d E =-.404091E-02  mag=     1.1047
       N       E                     dE             d eps       ncg     rms          ort
SDA:   1    -0.662957711112E+03    0.15085E+00    0.00000E+00   768   0.411E+00 0.000E+00
CGA:   2    -0.663046273495E+03   -0.88562E-01   -0.88571E-01   768   0.230E+00-0.173E-03
CGA:   3    -0.663083401021E+03   -0.37128E-01   -0.37133E-01   768   0.108E+00 0.117E-03
CGA:   4    -0.663100312725E+03   -0.16912E-01   -0.16909E-01   768   0.317E-01-0.276E-04
CGA:   5    -0.663105885805E+03   -0.55731E-02   -0.55732E-02   768   0.107E-01 0.166E-04
CGA:   6    -0.663107923556E+03   -0.20378E-02   -0.20381E-02   768   0.544E-02-0.167E-04
CGA:   7    -0.663108904128E+03   -0.98057E-03   -0.98057E-03   768   0.302E-02 0.671E-07
CGA:   8    -0.663109394214E+03   -0.49009E-03   -0.48999E-03   768   0.128E-02-0.319E-05
CGA:   9    -0.663109650656E+03   -0.25644E-03   -0.25639E-03   768   0.451E-03 0.192E-05
CGA:  10    -0.663109739869E+03   -0.89213E-04   -0.89216E-04   768   0.196E-03-0.101E-06
  56 F= -.66966615E+03 E0= -.66965580E+03  d E =-.518733E-02  mag=     1.1034
       N       E                     dE             d eps       ncg     rms          ort
SDA:   1    -0.662919412225E+03    0.19024E+00    0.00000E+00   768   0.515E+00 0.000E+00
CGA:   2    -0.663040211672E+03   -0.12080E+00   -0.12080E+00   768   0.283E+00 0.331E-04
CGA:   3    -0.663084472072E+03   -0.44260E-01   -0.44270E-01   768   0.122E+00 0.108E-03
CGA:   4    -0.663103289243E+03   -0.18817E-01   -0.18814E-01   768   0.344E-01-0.320E-04
CGA:   5    -0.663109131687E+03   -0.58424E-02   -0.58428E-02   768   0.114E-01 0.149E-04
CGA:   6    -0.663111287369E+03   -0.21557E-02   -0.21559E-02   768   0.557E-02-0.161E-04
CGA:   7    -0.663112278426E+03   -0.99106E-03   -0.99106E-03   768   0.308E-02-0.145E-05
CGA:   8    -0.663112786840E+03   -0.50841E-03   -0.50832E-03   768   0.133E-02-0.460E-05
CGA:   9    -0.663113059713E+03   -0.27287E-03   -0.27282E-03   768   0.501E-03 0.161E-05
CGA:  10    -0.663113160606E+03   -0.10089E-03   -0.10089E-03   768   0.227E-03 0.231E-06
CGA:  11    -0.663113194453E+03   -0.33846E-04   -0.33879E-04   768   0.952E-04 0.101E-05
  57 F= -.66966973E+03 E0= -.66965941E+03  d E =-.357603E-02  mag=     1.1030
       N       E                     dE             d eps       ncg     rms          ort
SDA:   1    -0.663012873632E+03    0.10029E+00    0.00000E+00   768   0.268E+00 0.000E+00
CGA:   2    -0.663075883095E+03   -0.63009E-01   -0.63006E-01   768   0.147E+00 0.310E-04
CGA:   3    -0.663098874075E+03   -0.22991E-01   -0.22992E-01   768   0.639E-01-0.805E-05
CGA:   4    -0.663108674790E+03   -0.98007E-02   -0.98003E-02   768   0.179E-01-0.543E-05
CGA:   5    -0.663111766410E+03   -0.30916E-02   -0.30917E-02   768   0.560E-02 0.181E-05
CGA:   6    -0.663112894716E+03   -0.11283E-02   -0.11285E-02   768   0.261E-02-0.713E-05
CGA:   7    -0.663113412632E+03   -0.51792E-03   -0.51793E-03   768   0.142E-02-0.180E-05
CGA:   8    -0.663113639742E+03   -0.22711E-03   -0.22705E-03   768   0.734E-03-0.204E-05
CGA:   9    -0.663113770952E+03   -0.13121E-03   -0.13121E-03   768   0.253E-03 0.904E-06
CGA:  10    -0.663113826010E+03   -0.55059E-04   -0.55048E-04   768   0.916E-04 0.321E-06
  58 F= -.66967044E+03 E0= -.66966015E+03  d E =-.429259E-02  mag=     1.1024
       N       E                     dE             d eps       ncg     rms          ort
SDA:   1    -0.662973989241E+03    0.13978E+00    0.00000E+00   768   0.379E+00 0.000E+00
CGA:   2    -0.663067084511E+03   -0.93095E-01   -0.93084E-01   768   0.195E+00 0.101E-03
CGA:   3    -0.663097443155E+03   -0.30359E-01   -0.30341E-01   768   0.857E-01-0.253E-03
CGA:   4    -0.663110230166E+03   -0.12787E-01   -0.12790E-01   768   0.235E-01-0.579E-05
CGA:   5    -0.663114114665E+03   -0.38845E-02   -0.38839E-02   768   0.743E-02-0.127E-04
CGA:   6    -0.663115420457E+03   -0.13058E-02   -0.13058E-02   768   0.353E-02 0.244E-05
CGA:   7    -0.663116036980E+03   -0.61652E-03   -0.61649E-03   768   0.176E-02-0.325E-05
CGA:   8    -0.663116349681E+03   -0.31270E-03   -0.31270E-03   768   0.782E-03-0.331E-06
CGA:   9    -0.663116513177E+03   -0.16350E-03   -0.16354E-03   768   0.355E-03-0.150E-05
CGA:  10    -0.663116577530E+03   -0.64353E-04   -0.64354E-04   768   0.173E-03 0.939E-06
  59 F= -.66967359E+03 E0= -.66966331E+03  d E =-.315091E-02  mag=     1.1004
       N       E                     dE             d eps       ncg     rms          ort
SDA:   1    -0.662955798712E+03    0.16071E+00    0.00000E+00   768   0.430E+00 0.000E+00
CGA:   2    -0.663060849534E+03   -0.10505E+00   -0.10503E+00   768   0.225E+00 0.172E-03
CGA:   3    -0.663095240941E+03   -0.34391E-01   -0.34367E-01   768   0.986E-01-0.332E-03
CGA:   4    -0.663109991949E+03   -0.14751E-01   -0.14754E-01   768   0.272E-01-0.130E-04
CGA:   5    -0.663114420309E+03   -0.44284E-02   -0.44276E-02   768   0.880E-02-0.170E-04
CGA:   6    -0.663115933950E+03   -0.15136E-02   -0.15137E-02   768   0.409E-02 0.276E-05
CGA:   7    -0.663116661943E+03   -0.72799E-03   -0.72798E-03   768   0.200E-02-0.393E-05
CGA:   8    -0.663117023788E+03   -0.36185E-03   -0.36184E-03   768   0.910E-03-0.171E-06
CGA:   9    -0.663117209227E+03   -0.18544E-03   -0.18548E-03   768   0.431E-03-0.161E-05
CGA:  10    -0.663117285412E+03   -0.76185E-04   -0.76189E-04   768   0.200E-03 0.100E-05
  60 F= -.66967472E+03 E0= -.66966445E+03  d E =-.427597E-02  mag=     1.0982
       N       E                     dE             d eps       ncg     rms          ort
SDA:   1    -0.662962705091E+03    0.15450E+00    0.00000E+00   768   0.421E+00 0.000E+00
CGA:   2    -0.663069066863E+03   -0.10636E+00   -0.10632E+00   768   0.209E+00 0.419E-03
CGA:   3    -0.663100531407E+03   -0.31465E-01   -0.31445E-01   768   0.930E-01-0.241E-03
CGA:   4    -0.663114101364E+03   -0.13570E-01   -0.13571E-01   768   0.241E-01-0.297E-04
CGA:   5    -0.663117952777E+03   -0.38514E-02   -0.38508E-02   768   0.762E-02-0.901E-05
CGA:   6    -0.663119248016E+03   -0.12952E-02   -0.12953E-02   768   0.328E-02 0.946E-06
CGA:   7    -0.663119831000E+03   -0.58298E-03   -0.58298E-03   768   0.158E-02-0.383E-05
CGA:   8    -0.663120114573E+03   -0.28357E-03   -0.28357E-03   768   0.726E-03-0.106E-05
CGA:   9    -0.663120260005E+03   -0.14543E-03   -0.14547E-03   768   0.356E-03-0.147E-05
CGA:  10    -0.663120325295E+03   -0.65289E-04   -0.65285E-04   768   0.168E-03 0.103E-05
  61 F= -.66967818E+03 E0= -.66966788E+03  d E =-.346604E-02  mag=     1.0994
       N       E                     dE             d eps       ncg     rms          ort
SDA:   1    -0.662505294259E+03    0.61497E+00    0.00000E+00   768   0.165E+01 0.000E+00
CGA:   2    -0.662921843851E+03   -0.41655E+00   -0.41624E+00   768   0.812E+00 0.305E-02
CGA:   3    -0.663045273299E+03   -0.12343E+00   -0.12330E+00   768   0.362E+00-0.175E-02
CGA:   4    -0.663097756516E+03   -0.52483E-01   -0.52500E-01   768   0.937E-01-0.956E-04
CGA:   5    -0.663112938529E+03   -0.15182E-01   -0.15178E-01   768   0.294E-01-0.111E-03
CGA:   6    -0.663117891400E+03   -0.49529E-02   -0.49531E-02   768   0.129E-01 0.971E-05
CGA:   7    -0.663120152866E+03   -0.22615E-02   -0.22614E-02   768   0.604E-02-0.138E-04
CGA:   8    -0.663121244881E+03   -0.10920E-02   -0.10920E-02   768   0.277E-02 0.845E-06
CGA:   9    -0.663121800922E+03   -0.55604E-03   -0.55615E-03   768   0.135E-02-0.423E-05
CGA:  10    -0.663122045386E+03   -0.24446E-03   -0.24446E-03   768   0.635E-03 0.236E-05
CGA:  11    -0.663122154433E+03   -0.10905E-03   -0.10905E-03   768   0.239E-03 0.235E-06
CGA:  12    -0.663122200006E+03   -0.45574E-04   -0.45558E-04   768   0.104E-03 0.137E-05
  62 F= -.66968089E+03 E0= -.66967052E+03  d E =-.616874E-02  mag=     1.1019
       N       E                     dE             d eps       ncg     rms          ort
SDA:   1    -0.663010775987E+03    0.11138E+00    0.00000E+00   768   0.309E+00 0.000E+00
CGA:   2    -0.663086372997E+03   -0.75597E-01   -0.75583E-01   768   0.158E+00 0.133E-03
CGA:   3    -0.663109483833E+03   -0.23111E-01   -0.23097E-01   768   0.701E-01-0.153E-03
CGA:   4    -0.663119856399E+03   -0.10373E-01   -0.10373E-01   768   0.185E-01-0.274E-04
CGA:   5    -0.663122911826E+03   -0.30554E-02   -0.30552E-02   768   0.554E-02-0.519E-05
CGA:   6    -0.663123848642E+03   -0.93682E-03   -0.93684E-03   768   0.250E-02 0.199E-05
CGA:   7    -0.663124293071E+03   -0.44443E-03   -0.44443E-03   768   0.119E-02-0.147E-05
CGA:   8    -0.663124505417E+03   -0.21235E-03   -0.21235E-03   768   0.557E-03-0.885E-07
CGA:   9    -0.663124618844E+03   -0.11343E-03   -0.11346E-03   768   0.267E-03-0.122E-05
CGA:  10    -0.663124668036E+03   -0.49192E-04   -0.49189E-04   768   0.132E-03 0.624E-06
  63 F= -.66968377E+03 E0= -.66967342E+03  d E =-.288285E-02  mag=     1.1004
       N       E                     dE             d eps       ncg     rms          ort
SDA:   1    -0.662506254444E+03    0.61836E+00    0.00000E+00   768   0.168E+01 0.000E+00
CGA:   2    -0.662918403308E+03   -0.41215E+00   -0.41200E+00   768   0.850E+00 0.136E-02
CGA:   3    -0.663044618684E+03   -0.12622E+00   -0.12606E+00   768   0.377E+00-0.185E-02
CGA:   4    -0.663100167842E+03   -0.55549E-01   -0.55558E-01   768   0.999E-01-0.140E-03
CGA:   5    -0.663116555523E+03   -0.16388E-01   -0.16384E-01   768   0.308E-01-0.119E-03
CGA:   6    -0.663121730287E+03   -0.51748E-02   -0.51751E-02   768   0.135E-01 0.182E-04
CGA:   7    -0.663124143313E+03   -0.24130E-02   -0.24130E-02   768   0.645E-02-0.116E-04
CGA:   8    -0.663125288220E+03   -0.11449E-02   -0.11449E-02   768   0.296E-02 0.274E-05
CGA:   9    -0.663125892242E+03   -0.60402E-03   -0.60417E-03   768   0.143E-02-0.450E-05
CGA:  10    -0.663126152875E+03   -0.26063E-03   -0.26063E-03   768   0.693E-03 0.195E-05
CGA:  11    -0.663126271734E+03   -0.11886E-03   -0.11886E-03   768   0.262E-03-0.291E-06
CGA:  12    -0.663126321939E+03   -0.50205E-04   -0.50191E-04   768   0.116E-03 0.113E-05
  64 F= -.66968637E+03 E0= -.66967604E+03  d E =-.548585E-02  mag=     1.0965
       N       E                     dE             d eps       ncg     rms          ort
SDA:   1    -0.662881733443E+03    0.24454E+00    0.00000E+00   768   0.671E+00 0.000E+00
CGA:   2    -0.663049289568E+03   -0.16756E+00   -0.16750E+00   768   0.321E+00 0.619E-03
CGA:   3    -0.663098896271E+03   -0.49607E-01   -0.49575E-01   768   0.140E+00-0.457E-03
[...]
CGA:   7    -0.663158984939E+03   -0.70341E-03   -0.70341E-03   768   0.181E-02-0.377E-05
CGA:   8    -0.663159288669E+03   -0.30373E-03   -0.30370E-03   768   0.824E-03-0.257E-05
CGA:   9    -0.663159460060E+03   -0.17139E-03   -0.17135E-03   768   0.418E-03 0.136E-05
CGA:  10    -0.663159537675E+03   -0.77615E-04   -0.77619E-04   768   0.214E-03-0.544E-06
  77 F= -.66972692E+03 E0= -.66971662E+03  d E =-.305282E-02  mag=     1.0990
       N       E                     dE             d eps       ncg     rms          ort
SDA:   1    -0.662591230085E+03    0.56823E+00    0.00000E+00   768   0.158E+01 0.000E+00
CGA:   2    -0.662984542811E+03   -0.39331E+00   -0.39347E+00   768   0.766E+00-0.161E-02
CGA:   3    -0.663090459882E+03   -0.10592E+00   -0.10607E+00   768   0.332E+00 0.106E-02
CGA:   4    -0.663139366785E+03   -0.48907E-01   -0.48901E-01   768   0.912E-01 0.120E-03
CGA:   5    -0.663153528351E+03   -0.14162E-01   -0.14164E-01   768   0.256E-01 0.468E-04
CGA:   6    -0.663157803463E+03   -0.42751E-02   -0.42746E-02   768   0.107E-01-0.314E-04
CGA:   7    -0.663159696205E+03   -0.18927E-02   -0.18927E-02   768   0.490E-02-0.276E-05
CGA:   8    -0.663160510189E+03   -0.81398E-03   -0.81390E-03   768   0.221E-02-0.552E-05
CGA:   9    -0.663160966828E+03   -0.45664E-03   -0.45652E-03   768   0.112E-02 0.341E-05
CGA:  10    -0.663161176302E+03   -0.20947E-03   -0.20949E-03   768   0.563E-03-0.108E-05
CGA:  11    -0.663161271969E+03   -0.95667E-04   -0.95672E-04   768   0.238E-03 0.647E-06
  78 F= -.66972911E+03 E0= -.66971881E+03  d E =-.523554E-02  mag=     1.0989
       N       E                     dE             d eps       ncg     rms          ort
SDA:   1    -0.662984490589E+03    0.17669E+00    0.00000E+00   768   0.490E+00 0.000E+00
CGA:   2    -0.663112946300E+03   -0.12846E+00   -0.12845E+00   768   0.222E+00 0.575E-04
CGA:   3    -0.663144672440E+03   -0.31726E-01   -0.31750E-01   768   0.101E+00 0.183E-03
CGA:   4    -0.663158971610E+03   -0.14299E-01   -0.14298E-01   768   0.265E-01 0.327E-04
CGA:   5    -0.663163026228E+03   -0.40546E-02   -0.40549E-02   768   0.716E-02 0.288E-05
CGA:   6    -0.663164234920E+03   -0.12087E-02   -0.12086E-02   768   0.304E-02-0.963E-05
CGA:   7    -0.663164751637E+03   -0.51672E-03   -0.51669E-03   768   0.132E-02-0.382E-05
CGA:   8    -0.663164975362E+03   -0.22373E-03   -0.22371E-03   768   0.619E-03-0.170E-05
CGA:   9    -0.663165102383E+03   -0.12702E-03   -0.12698E-03   768   0.322E-03 0.132E-05
CGA:  10    -0.663165163668E+03   -0.61285E-04   -0.61289E-04   768   0.169E-03-0.296E-06
  79 F= -.66973311E+03 E0= -.66972275E+03  d E =-.400693E-02  mag=     1.1026
       N       E                     dE             d eps       ncg     rms          ort
SDA:   1    -0.663063762664E+03    0.10134E+00    0.00000E+00   768   0.279E+00 0.000E+00
CGA:   2    -0.663135845985E+03   -0.72083E-01   -0.72083E-01   768   0.133E+00 0.168E-04
CGA:   3    -0.663153866409E+03   -0.18020E-01   -0.18031E-01   768   0.588E-01 0.567E-04
CGA:   4    -0.663162508667E+03   -0.86423E-02   -0.86427E-02   768   0.149E-01 0.250E-04
CGA:   5    -0.663164832661E+03   -0.23240E-02   -0.23241E-02   768   0.416E-02 0.956E-07
CGA:   6    -0.663165540299E+03   -0.70764E-03   -0.70759E-03   768   0.173E-02-0.643E-05
CGA:   7    -0.663165833720E+03   -0.29342E-03   -0.29340E-03   768   0.792E-03-0.298E-05
CGA:   8    -0.663165965734E+03   -0.13201E-03   -0.13200E-03   768   0.351E-03-0.130E-05
CGA:   9    -0.663166041359E+03   -0.75625E-04   -0.75587E-04   768   0.186E-03 0.947E-06
  80 F= -.66973407E+03 E0= -.66972367E+03  d E =-.496792E-02  mag=     1.1058
       N       E                     dE             d eps       ncg     rms          ort
SDA:   1    -0.663007129289E+03    0.15884E+00    0.00000E+00   768   0.430E+00 0.000E+00
CGA:   2    -0.663129736421E+03   -0.12261E+00   -0.12263E+00   768   0.143E+00-0.195E-03
CGA:   3    -0.663157889903E+03   -0.28153E-01   -0.28151E-01   768   0.609E-01 0.123E-03
CGA:   4    -0.663165225615E+03   -0.73357E-02   -0.73371E-02   768   0.187E-01 0.190E-04
CGA:   5    -0.663167990860E+03   -0.27652E-02   -0.27649E-02   768   0.405E-02-0.267E-05
CGA:   6    -0.663168777275E+03   -0.78641E-03   -0.78646E-03   768   0.183E-02-0.313E-05
CGA:   7    -0.663169056352E+03   -0.27908E-03   -0.27906E-03   768   0.637E-03-0.655E-06
CGA:   8    -0.663169171135E+03   -0.11478E-03   -0.11478E-03   768   0.365E-03 0.644E-06
CGA:   9    -0.663169238932E+03   -0.67797E-04   -0.67785E-04   768   0.159E-03 0.190E-05
  81 F= -.66973747E+03 E0= -.66972703E+03  d E =-.339322E-02  mag=     1.1076
       N       E                     dE             d eps       ncg     rms          ort
SDA:   1    -0.662876995479E+03    0.29218E+00    0.00000E+00   768   0.779E+00 0.000E+00
CGA:   2    -0.663098926896E+03   -0.22193E+00   -0.22199E+00   768   0.261E+00-0.474E-03
CGA:   3    -0.663149324704E+03   -0.50398E-01   -0.50395E-01   768   0.117E+00 0.272E-03
CGA:   4    -0.663163327385E+03   -0.14003E-01   -0.14007E-01   768   0.339E-01 0.322E-04
CGA:   5    -0.663168452226E+03   -0.51248E-02   -0.51242E-02   768   0.756E-02-0.365E-05
CGA:   6    -0.663169881922E+03   -0.14297E-02   -0.14297E-02   768   0.338E-02-0.428E-05
CGA:   7    -0.663170409949E+03   -0.52803E-03   -0.52801E-03   768   0.119E-02-0.793E-06
CGA:   8    -0.663170616843E+03   -0.20689E-03   -0.20690E-03   768   0.667E-03 0.772E-06
CGA:   9    -0.663170745182E+03   -0.12834E-03   -0.12831E-03   768   0.290E-03 0.272E-05
CGA:  10    -0.663170808820E+03   -0.63638E-04   -0.63621E-04   768   0.185E-03 0.445E-06
  82 F= -.66973929E+03 E0= -.66972882E+03  d E =-.521622E-02  mag=     1.1097
       N       E                     dE             d eps       ncg     rms          ort
SDA:   1    -0.662929085712E+03    0.24166E+00    0.00000E+00   768   0.647E+00 0.000E+00
CGA:   2    -0.663114569688E+03   -0.18548E+00   -0.18546E+00   768   0.220E+00 0.191E-03
CGA:   3    -0.663156736590E+03   -0.42167E-01   -0.42166E-01   768   0.984E-01 0.169E-03
CGA:   4    -0.663168632945E+03   -0.11896E-01   -0.11900E-01   768   0.283E-01 0.232E-04
CGA:   5    -0.663172828526E+03   -0.41956E-02   -0.41954E-02   768   0.666E-02-0.959E-06
CGA:   6    -0.663174070070E+03   -0.12415E-02   -0.12416E-02   768   0.282E-02-0.394E-05
CGA:   7    -0.663174528448E+03   -0.45838E-03   -0.45837E-03   768   0.107E-02-0.756E-06
CGA:   8    -0.663174710125E+03   -0.18168E-03   -0.18168E-03   768   0.574E-03 0.481E-06
CGA:   9    -0.663174822108E+03   -0.11198E-03   -0.11195E-03   768   0.258E-03 0.250E-05
CGA:  10    -0.663174877385E+03   -0.55277E-04   -0.55256E-04   768   0.152E-03 0.651E-06
  83 F= -.66974357E+03 E0= -.66973314E+03  d E =-.428145E-02  mag=     1.1110
       N       E                     dE             d eps       ncg     rms          ort
SDA:   1    -0.662915205623E+03    0.25962E+00    0.00000E+00   768   0.687E+00 0.000E+00
CGA:   2    -0.663112097336E+03   -0.19689E+00   -0.19687E+00   768   0.233E+00 0.199E-03
CGA:   3    -0.663156903354E+03   -0.44806E-01   -0.44805E-01   768   0.104E+00 0.181E-03
CGA:   4    -0.663169499071E+03   -0.12596E-01   -0.12600E-01   768   0.301E-01 0.233E-04
CGA:   5    -0.663173959523E+03   -0.44605E-02   -0.44602E-02   768   0.703E-02-0.143E-05
CGA:   6    -0.663175280506E+03   -0.13210E-02   -0.13210E-02   768   0.297E-02-0.424E-05
CGA:   7    -0.663175761762E+03   -0.48126E-03   -0.48124E-03   768   0.114E-02-0.733E-06
CGA:   8    -0.663175955175E+03   -0.19341E-03   -0.19342E-03   768   0.607E-03 0.566E-06
CGA:   9    -0.663176074038E+03   -0.11886E-03   -0.11882E-03   768   0.274E-03 0.262E-05
CGA:  10    -0.663176132831E+03   -0.58793E-04   -0.58773E-04   768   0.162E-03 0.657E-06
  84 F= -.66974504E+03 E0= -.66973465E+03  d E =-.574792E-02  mag=     1.1122
       N       E                     dE             d eps       ncg     rms          ort
SDA:   1    -0.662821943878E+03    0.35413E+00    0.00000E+00   768   0.947E+00 0.000E+00
CGA:   2    -0.663091685298E+03   -0.26974E+00   -0.26979E+00   768   0.314E+00-0.420E-03
CGA:   3    -0.663156115060E+03   -0.64430E-01   -0.64425E-01   768   0.110E+00 0.200E-03
CGA:   4    -0.663172153432E+03   -0.16038E-01   -0.16043E-01   768   0.330E-01 0.273E-04
CGA:   5    -0.663177028866E+03   -0.48754E-02   -0.48742E-02   768   0.828E-02-0.722E-05
CGA:   6    -0.663178669143E+03   -0.16403E-02   -0.16402E-02   768   0.348E-02 0.227E-05
CGA:   7    -0.663179187116E+03   -0.51797E-03   -0.51803E-03   768   0.152E-02 0.191E-05
CGA:   8    -0.663179446575E+03   -0.25946E-03   -0.25950E-03   768   0.723E-03 0.325E-05
CGA:   9    -0.663179602522E+03   -0.15595E-03   -0.15591E-03   768   0.321E-03 0.130E-05
CGA:  10    -0.663179674936E+03   -0.72415E-04   -0.72357E-04   768   0.203E-03 0.141E-05
  85 F= -.66974886E+03 E0= -.66973854E+03  d E =-.382557E-02  mag=     1.1091
       N       E                     dE             d eps       ncg     rms          ort
SDA:   1    -0.663076512318E+03    0.10309E+00    0.00000E+00   768   0.274E+00 0.000E+00
CGA:   2    -0.663154557289E+03   -0.78045E-01   -0.78051E-01   768   0.919E-01-0.581E-04
CGA:   3    -0.663172914003E+03   -0.18357E-01   -0.18357E-01   768   0.361E-01 0.302E-05
CGA:   4    -0.663177658795E+03   -0.47448E-02   -0.47461E-02   768   0.113E-01-0.183E-05
CGA:   5    -0.663179237020E+03   -0.15782E-02   -0.15782E-02   768   0.290E-02 0.488E-06
CGA:   6    -0.663179755469E+03   -0.51845E-03   -0.51845E-03   768   0.125E-02-0.407E-07
CGA:   7    -0.663179955754E+03   -0.20028E-03   -0.20031E-03   768   0.459E-03 0.994E-06
CGA:   8    -0.663180041161E+03   -0.85407E-04   -0.85402E-04   768   0.243E-03 0.178E-05
  86 F= -.66974938E+03 E0= -.66973908E+03  d E =-.433920E-02  mag=     1.1073
       N       E                     dE             d eps       ncg     rms          ort
SDA:   1    -0.662745815719E+03    0.43414E+00    0.00000E+00   768   0.116E+01 0.000E+00
CGA:   2    -0.663076537399E+03   -0.33072E+00   -0.33060E+00   768   0.384E+00 0.104E-02
CGA:   3    -0.663153863357E+03   -0.77326E-01   -0.77319E-01   768   0.141E+00 0.289E-03
CGA:   4    -0.663173763581E+03   -0.19900E-01   -0.19889E-01   768   0.418E-01-0.151E-04
CGA:   5    -0.663179916009E+03   -0.61524E-02   -0.61536E-02   768   0.105E-01 0.430E-05
CGA:   6    -0.663181784787E+03   -0.18688E-02   -0.18687E-02   768   0.488E-02-0.312E-05
CGA:   7    -0.663182466430E+03   -0.68164E-03   -0.68160E-03   768   0.167E-02-0.159E-06
CGA:   8    -0.663182789640E+03   -0.32321E-03   -0.32321E-03   768   0.771E-03 0.387E-06
CGA:   9    -0.663182959493E+03   -0.16985E-03   -0.16978E-03   768   0.413E-03 0.208E-05
CGA:  10    -0.663183035619E+03   -0.76127E-04   -0.76127E-04   768   0.262E-03 0.450E-07
  87 F= -.66975267E+03 E0= -.66974237E+03  d E =-.329009E-02  mag=     1.1088
       N       E                     dE             d eps       ncg     rms          ort
SDA:   1    -0.663173795667E+03    0.91638E-02    0.00000E+00   768   0.248E-01 0.000E+00
CGA:   2    -0.663180819323E+03   -0.70237E-02   -0.70234E-02   768   0.871E-02 0.196E-05
CGA:   3    -0.663182356758E+03   -0.15374E-02   -0.15374E-02   768   0.420E-02-0.568E-06
CGA:   4    -0.663182884300E+03   -0.52754E-03   -0.52776E-03   768   0.107E-02 0.283E-05
CGA:   5    -0.663183038358E+03   -0.15406E-03   -0.15403E-03   768   0.283E-03-0.739E-06
CGA:   6    -0.663183093213E+03   -0.54855E-04   -0.54862E-04   768   0.109E-03-0.698E-06
  88 F= -.66975277E+03 E0= -.66974247E+03  d E =-.338976E-02  mag=     1.1090
       N       E                     dE             d eps       ncg     rms          ort
SDA:   1    -0.662724986306E+03    0.45805E+00    0.00000E+00   768   0.122E+01 0.000E+00
CGA:   2    -0.663076207510E+03   -0.35122E+00   -0.35132E+00   768   0.390E+00-0.867E-03
CGA:   3    -0.663159050916E+03   -0.82843E-01   -0.82820E-01   768   0.121E+00 0.621E-03
CGA:   4    -0.663177752598E+03   -0.18702E-01   -0.18698E-01   768   0.422E-01 0.177E-05
CGA:   5    -0.663182884113E+03   -0.51315E-02   -0.51299E-02   768   0.111E-01 0.343E-05
CGA:   6    -0.663184944132E+03   -0.20600E-02   -0.20600E-02   768   0.410E-02 0.239E-07
CGA:   7    -0.663185594473E+03   -0.65034E-03   -0.65039E-03   768   0.141E-02 0.148E-05
CGA:   8    -0.663185880941E+03   -0.28647E-03   -0.28643E-03   768   0.792E-03 0.186E-05
CGA:   9    -0.663186012890E+03   -0.13195E-03   -0.13199E-03   768   0.399E-03 0.242E-05
CGA:  10    -0.663186099536E+03   -0.86647E-04   -0.86626E-04   768   0.197E-03 0.579E-06
  89 F= -.66975615E+03 E0= -.66974581E+03  d E =-.338221E-02  mag=     1.1103
       N       E                     dE             d eps       ncg     rms          ort
SDA:   1    -0.663158332640E+03    0.27680E-01    0.00000E+00   768   0.736E-01 0.000E+00
CGA:   2    -0.663179532568E+03   -0.21200E-01   -0.21201E-01   768   0.240E-01-0.114E-04
CGA:   3    -0.663184321873E+03   -0.47893E-02   -0.47893E-02   768   0.101E-01 0.184E-05
CGA:   4    -0.663185533151E+03   -0.12113E-02   -0.12120E-02   768   0.310E-02 0.427E-05
CGA:   5    -0.663185976077E+03   -0.44293E-03   -0.44287E-03   768   0.651E-03-0.534E-06
CGA:   6    -0.663186119147E+03   -0.14307E-03   -0.14308E-03   768   0.237E-03-0.443E-06
CGA:   7    -0.663186157949E+03   -0.38802E-04   -0.38803E-04   768   0.117E-03 0.928E-07
  90 F= -.66975630E+03 E0= -.66974594E+03  d E =-.353041E-02  mag=     1.1108
       N       E                     dE             d eps       ncg     rms          ort
SDA:   1    -0.662716034731E+03    0.47008E+00    0.00000E+00   768   0.125E+01 0.000E+00
CGA:   2    -0.663075276972E+03   -0.35924E+00   -0.35917E+00   768   0.425E+00 0.676E-03
CGA:   3    -0.663153662374E+03   -0.78385E-01   -0.78385E-01   768   0.202E+00-0.209E-04
CGA:   4    -0.663177087595E+03   -0.23425E-01   -0.23473E-01   768   0.529E-01-0.620E-04
CGA:   5    -0.663185663535E+03   -0.85759E-02   -0.85750E-02   768   0.104E-01-0.128E-04
CGA:   6    -0.663187866567E+03   -0.22030E-02   -0.22032E-02   768   0.433E-02-0.543E-05
CGA:   7    -0.663188472862E+03   -0.60630E-03   -0.60612E-03   768   0.166E-02-0.253E-05
CGA:   8    -0.663188772336E+03   -0.29947E-03   -0.29948E-03   768   0.788E-03 0.308E-07
CGA:   9    -0.663188932049E+03   -0.15971E-03   -0.15966E-03   768   0.370E-03 0.294E-05
CGA:  10    -0.663189013014E+03   -0.80966E-04   -0.80946E-04   768   0.251E-03 0.534E-06
  91 F= -.66975939E+03 E0= -.66974905E+03  d E =-.309404E-02  mag=     1.1150
       N       E                     dE             d eps       ncg     rms          ort
SDA:   1    -0.663148500838E+03    0.40431E-01    0.00000E+00   768   0.108E+00 0.000E+00
CGA:   2    -0.663179283534E+03   -0.30783E-01   -0.30781E-01   768   0.388E-01 0.177E-04
CGA:   3    -0.663185637190E+03   -0.63537E-02   -0.63530E-02   768   0.209E-01-0.106E-04
CGA:   4    -0.663188147304E+03   -0.25101E-02   -0.25120E-02   768   0.422E-02 0.707E-05
CGA:   5    -0.663188884821E+03   -0.73752E-03   -0.73750E-03   768   0.927E-03-0.114E-05
CGA:   6    -0.663189082075E+03   -0.19725E-03   -0.19729E-03   768   0.399E-03-0.129E-05
CGA:   7    -0.663189138335E+03   -0.56260E-04   -0.56223E-04   768   0.170E-03-0.766E-06
  92 F= -.66975958E+03 E0= -.66974925E+03  d E =-.328674E-02  mag=     1.1164
       N       E                     dE             d eps       ncg     rms          ort
SDA:   1    -0.662779408609E+03    0.40967E+00    0.00000E+00   768   0.109E+01 0.000E+00
CGA:   2    -0.663092247423E+03   -0.31284E+00   -0.31294E+00   768   0.382E+00-0.733E-03
CGA:   3    -0.663159423292E+03   -0.67176E-01   -0.67173E-01   768   0.185E+00-0.112E-03
CGA:   4    -0.663180936480E+03   -0.21513E-01   -0.21555E-01   768   0.459E-01-0.323E-04
CGA:   5    -0.663188668658E+03   -0.77322E-02   -0.77316E-02   768   0.888E-02-0.133E-04
CGA:   6    -0.663190580482E+03   -0.19118E-02   -0.19119E-02   768   0.389E-02-0.352E-05
CGA:   7    -0.663191105140E+03   -0.52466E-03   -0.52451E-03   768   0.144E-02-0.187E-05
CGA:   8    -0.663191374950E+03   -0.26981E-03   -0.26981E-03   768   0.687E-03 0.373E-06
CGA:   9    -0.663191513061E+03   -0.13811E-03   -0.13806E-03   768   0.327E-03 0.288E-05
CGA:  10    -0.663191584376E+03   -0.71316E-04   -0.71308E-04   768   0.223E-03 0.188E-06
  93 F= -.66976230E+03 E0= -.66975199E+03  d E =-.271597E-02  mag=     1.1156
       N       E                     dE             d eps       ncg     rms          ort
SDA:   1    -0.663174186243E+03    0.17327E-01    0.00000E+00   768   0.461E-01 0.000E+00
CGA:   2    -0.663187364485E+03   -0.13178E-01   -0.13179E-01   768   0.178E-01-0.436E-05
CGA:   3    -0.663190027763E+03   -0.26633E-02   -0.26627E-02   768   0.939E-02-0.482E-05
CGA:   4    -0.663191228443E+03   -0.12007E-02   -0.12013E-02   768   0.178E-02 0.646E-05
CGA:   5    -0.663191546312E+03   -0.31787E-03   -0.31786E-03   768   0.406E-03-0.811E-06
CGA:   6    -0.663191633133E+03   -0.86821E-04   -0.86833E-04   768   0.180E-03-0.408E-06
  94 F= -.66976240E+03 E0= -.66975210E+03  d E =-.281896E-02  mag=     1.1155
       N       E                     dE             d eps       ncg     rms          ort
SDA:   1    -0.662812004942E+03    0.37954E+00    0.00000E+00   768   0.100E+01 0.000E+00
CGA:   2    -0.663100496254E+03   -0.28849E+00   -0.28842E+00   768   0.387E+00 0.765E-03
CGA:   3    -0.663159080310E+03   -0.58584E-01   -0.58534E-01   768   0.200E+00-0.315E-03
CGA:   4    -0.663184257479E+03   -0.25177E-01   -0.25211E-01   768   0.405E-01 0.351E-04
CGA:   5    -0.663191598086E+03   -0.73406E-02   -0.73406E-02   768   0.823E-02-0.144E-04
CGA:   6    -0.663193310560E+03   -0.17125E-02   -0.17126E-02   768   0.388E-02-0.508E-05
CGA:   7    -0.663193816936E+03   -0.50638E-03   -0.50617E-03   768   0.130E-02-0.276E-05
CGA:   8    -0.663194065361E+03   -0.24842E-03   -0.24842E-03   768   0.646E-03-0.167E-06
CGA:   9    -0.663194192537E+03   -0.12718E-03   -0.12714E-03   768   0.300E-03 0.254E-05
CGA:  10    -0.663194258384E+03   -0.65846E-04   -0.65848E-04   768   0.205E-03-0.779E-07
  95 F= -.66976529E+03 E0= -.66975498E+03  d E =-.289124E-02  mag=     1.1172
       N       E                     dE             d eps       ncg     rms          ort
SDA:   1    -0.663093604884E+03    0.10059E+00    0.00000E+00   768   0.265E+00 0.000E+00
CGA:   2    -0.663169736207E+03   -0.76131E-01   -0.76121E-01   768   0.104E+00 0.101E-03
CGA:   3    -0.663185080146E+03   -0.15344E-01   -0.15336E-01   768   0.537E-01-0.445E-04
CGA:   4    -0.663191944130E+03   -0.68640E-02   -0.68688E-02   768   0.103E-01 0.175E-04
CGA:   5    -0.663193825069E+03   -0.18809E-02   -0.18809E-02   768   0.218E-02-0.608E-05
CGA:   6    -0.663194287541E+03   -0.46247E-03   -0.46254E-03   768   0.993E-03-0.235E-05
CGA:   7    -0.663194418328E+03   -0.13079E-03   -0.13070E-03   768   0.362E-03-0.140E-05
CGA:   8    -0.663194486246E+03   -0.67918E-04   -0.67919E-04   768   0.171E-03-0.298E-06
  96 F= -.66976565E+03 E0= -.66975534E+03  d E =-.325240E-02  mag=     1.1181
       N       E                     dE             d eps       ncg     rms          ort
SDA:   1    -0.662922375149E+03    0.27204E+00    0.00000E+00   768   0.720E+00 0.000E+00
CGA:   2    -0.663130041325E+03   -0.20767E+00   -0.20773E+00   768   0.263E+00-0.433E-03
CGA:   3    -0.663173690458E+03   -0.43649E-01   -0.43637E-01   768   0.132E+00-0.185E-03
CGA:   4    -0.663189253699E+03   -0.15563E-01   -0.15587E-01   768   0.293E-01-0.689E-05
CGA:   5    -0.663194472275E+03   -0.52186E-02   -0.52184E-02   768   0.589E-02-0.135E-04
CGA:   6    -0.663195703328E+03   -0.12311E-02   -0.12311E-02   768   0.277E-02-0.223E-05
CGA:   7    -0.663196070467E+03   -0.36714E-03   -0.36703E-03   768   0.932E-03-0.137E-05
CGA:   8    -0.663196249887E+03   -0.17942E-03   -0.17941E-03   768   0.478E-03 0.517E-06
CGA:   9    -0.663196341374E+03   -0.91486E-04   -0.91468E-04   768   0.216E-03 0.224E-05
  97 F= -.66976781E+03 E0= -.66975747E+03  d E =-.215309E-02  mag=     1.1182
