       N       E                     dE             d eps       ncg     rms          ort
DAV:   1     0.252172861874E+04    0.25217E+04   -0.11637E+05   768   0.110E+03
DAV:   2    -0.241506496485E+03   -0.27632E+04   -0.26389E+04   768   0.279E+02
DAV:   3    -0.702377850334E+03   -0.46087E+03   -0.45745E+03   768   0.120E+02
DAV:   4    -0.719219151029E+03   -0.16841E+02   -0.16699E+02   768   0.283E+01
DAV:   5    -0.719763661431E+03   -0.54451E+00   -0.54283E+00   768   0.428E+00
SDA:   6    -0.549488670639E+03    0.17027E+03   -0.54283E+00   768   0.501E+03 0.000E+00
CGA:   7    -0.602117394544E+03   -0.52629E+02   -0.25596E+02   768   0.335E+03 0.468E+03
CGA:   8    -0.637344770763E+03   -0.35227E+02   -0.15298E+02   768   0.167E+03 0.301E+03
CGA:   9    -0.650931670624E+03   -0.13587E+02   -0.89444E+01   768   0.375E+02 0.364E+02
CGA:  10    -0.658384301974E+03   -0.74526E+01   -0.74377E+01   768   0.246E+02-0.297E+00
CGA:  11    -0.660235033602E+03   -0.18507E+01   -0.17692E+01   768   0.602E+01 0.859E+00
CGA:  12    -0.661092757723E+03   -0.85772E+00   -0.85874E+00   768   0.683E+01-0.148E-01
CGA:  13    -0.661620790572E+03   -0.52803E+00   -0.35128E+00   768   0.282E+01 0.334E+01
CGA:  14    -0.661815652597E+03   -0.19486E+00   -0.14624E+00   768   0.953E+00 0.120E+01
CGA:  15    -0.661924197170E+03   -0.10854E+00   -0.10533E+00   768   0.171E+01 0.234E-01
CGA:  16    -0.662010531371E+03   -0.86334E-01   -0.64678E-01   768   0.197E+01 0.584E+00
CGA:  17    -0.662097803610E+03   -0.87272E-01   -0.60964E-01   768   0.106E+01 0.106E+01
CGA:  18    -0.662172434092E+03   -0.74630E-01   -0.81023E-01   768   0.339E+00-0.274E-01
CGA:  19    -0.662259574997E+03   -0.87141E-01   -0.82315E-01   768   0.139E+00 0.356E-01
CGA:  20    -0.662320264006E+03   -0.60689E-01   -0.57510E-01   768   0.177E+00 0.124E-01
CGA:  21    -0.662343995174E+03   -0.23731E-01   -0.22453E-01   768   0.880E-01 0.142E-02
CGA:  22    -0.662363904965E+03   -0.19910E-01   -0.20739E-01   768   0.338E-01-0.996E-02
CGA:  23    -0.662373150958E+03   -0.92460E-02   -0.84347E-02   768   0.296E-01 0.537E-02
CGA:  24    -0.662378207281E+03   -0.50563E-02   -0.50652E-02   768   0.243E-01 0.304E-03
CGA:  25    -0.662383619455E+03   -0.54122E-02   -0.51729E-02   768   0.848E-02 0.340E-02
CGA:  26    -0.662389687281E+03   -0.60678E-02   -0.58426E-02   768   0.552E-02 0.424E-03
CGA:  27    -0.662392218342E+03   -0.25311E-02   -0.25399E-02   768   0.234E-02-0.387E-04
CGA:  28    -0.662392777087E+03   -0.55875E-03   -0.55766E-03   768   0.310E-02 0.163E-04
CGA:  29    -0.662393305324E+03   -0.52824E-03   -0.52714E-03   768   0.830E-03-0.152E-04
CGA:  30    -0.662393633620E+03   -0.32830E-03   -0.32850E-03   768   0.413E-03-0.119E-05
CGA:  31    -0.662393800857E+03   -0.16724E-03   -0.16915E-03   768   0.344E-03-0.996E-05
CGA:  32    -0.662393847503E+03   -0.46646E-04   -0.46628E-04   768   0.209E-03-0.768E-06
   1 F= -.66892898E+03 E0= -.66890907E+03  d E =-.668929E+03  mag=     1.6093
       N       E                     dE             d eps       ncg     rms          ort
SDA:   1    -0.661358519185E+03    0.10353E+01    0.00000E+00   768   0.337E+01 0.000E+00
CGA:   2    -0.661845222182E+03   -0.48670E+00   -0.48887E+00   768   0.156E+01 0.414E-04
CGA:   3    -0.662139001084E+03   -0.29378E+00   -0.29309E+00   768   0.972E+00-0.120E-01
CGA:   4    -0.662308074732E+03   -0.16907E+00   -0.16965E+00   768   0.331E+00 0.424E-02
CGA:   5    -0.662366084456E+03   -0.58010E-01   -0.57938E-01   768   0.113E+00-0.416E-03
CGA:   6    -0.662387108604E+03   -0.21024E-01   -0.21048E-01   768   0.512E-01 0.397E-03
CGA:   7    -0.662396548854E+03   -0.94403E-02   -0.94310E-02   768   0.272E-01-0.132E-03
CGA:   8    -0.662401138580E+03   -0.45897E-02   -0.45932E-02   768   0.103E-01 0.412E-04
CGA:   9    -0.662403156668E+03   -0.20181E-02   -0.20178E-02   768   0.344E-02-0.583E-05
CGA:  10    -0.662403784544E+03   -0.62788E-03   -0.62808E-03   768   0.140E-02 0.828E-05
CGA:  11    -0.662404010173E+03   -0.22563E-03   -0.22561E-03   768   0.542E-03 0.419E-06
CGA:  12    -0.662404116264E+03   -0.10609E-03   -0.10610E-03   768   0.195E-03 0.916E-06
CGA:  13    -0.662404156245E+03   -0.39980E-04   -0.39983E-04   768   0.120E-03-0.108E-05
   2 F= -.66893923E+03 E0= -.66891887E+03  d E =-.102458E-01  mag=     1.5460
       N       E                     dE             d eps       ncg     rms          ort
SDA:   1    -0.662258024900E+03    0.14609E+00    0.00000E+00   768   0.485E+00 0.000E+00
CGA:   2    -0.662330271361E+03   -0.72246E-01   -0.72181E-01   768   0.224E+00-0.319E-03
CGA:   3    -0.662372833220E+03   -0.42562E-01   -0.42571E-01   768   0.136E+00 0.582E-03
CGA:   4    -0.662396779712E+03   -0.23946E-01   -0.23928E-01   768   0.506E-01-0.360E-03
CGA:   5    -0.662405169689E+03   -0.83900E-02   -0.83932E-02   768   0.172E-01 0.199E-04
CGA:   6    -0.662408274358E+03   -0.31047E-02   -0.31038E-02   768   0.819E-02-0.248E-04
CGA:   7    -0.662409716792E+03   -0.14424E-02   -0.14428E-02   768   0.400E-02 0.705E-05
CGA:   8    -0.662410432042E+03   -0.71525E-03   -0.71505E-03   768   0.155E-02-0.103E-04
CGA:   9    -0.662410726752E+03   -0.29471E-03   -0.29470E-03   768   0.566E-03-0.407E-05
CGA:  10    -0.662410823134E+03   -0.96383E-04   -0.96305E-04   768   0.217E-03-0.341E-05
   3 F= -.66894593E+03 E0= -.66892561E+03  d E =-.169433E-01  mag=     1.5629
       N       E                     dE             d eps       ncg     rms          ort
SDA:   1    -0.662095898559E+03    0.31483E+00    0.00000E+00   768   0.118E+01 0.000E+00
CGA:   2    -0.662247272018E+03   -0.15137E+00   -0.15180E+00   768   0.448E+00 0.132E-03
CGA:   3    -0.662333736972E+03   -0.86465E-01   -0.86501E-01   768   0.318E+00-0.386E-02
CGA:   4    -0.662394140068E+03   -0.60403E-01   -0.60386E-01   768   0.135E+00 0.224E-02
CGA:   5    -0.662418655479E+03   -0.24515E-01   -0.24509E-01   768   0.475E-01-0.358E-03
CGA:   6    -0.662426700099E+03   -0.80446E-02   -0.80489E-02   768   0.184E-01 0.117E-03
CGA:   7    -0.662429811247E+03   -0.31111E-02   -0.31104E-02   768   0.891E-02-0.134E-04
CGA:   8    -0.662431349333E+03   -0.15381E-02   -0.15384E-02   768   0.335E-02 0.186E-04
CGA:   9    -0.662431990077E+03   -0.64074E-03   -0.64074E-03   768   0.114E-02 0.378E-05
CGA:  10    -0.662432187720E+03   -0.19764E-03   -0.19768E-03   768   0.474E-03 0.322E-05
CGA:  11    -0.662432265408E+03   -0.77687E-04   -0.77674E-04   768   0.183E-03-0.553E-06
   4 F= -.66896704E+03 E0= -.66894636E+03  d E =-.211115E-01  mag=     1.5140
       N       E                     dE             d eps       ncg     rms          ort
SDA:   1    -0.659447620684E+03    0.29846E+01    0.00000E+00   768   0.110E+02 0.000E+00
CGA:   2    -0.660793402097E+03   -0.13458E+01   -0.13586E+01   768   0.417E+01-0.263E-01
CGA:   3    -0.661562349984E+03   -0.76895E+00   -0.76946E+00   768   0.301E+01-0.110E+00
CGA:   4    -0.662128948493E+03   -0.56660E+00   -0.56528E+00   768   0.116E+01 0.728E-01
CGA:   5    -0.662356004629E+03   -0.22706E+00   -0.22717E+00   768   0.411E+00-0.769E-02
CGA:   6    -0.662428457298E+03   -0.72453E-01   -0.72487E-01   768   0.155E+00 0.368E-02
CGA:   7    -0.662455939089E+03   -0.27482E-01   -0.27472E-01   768   0.827E-01-0.653E-03
CGA:   8    -0.662469329872E+03   -0.13391E-01   -0.13398E-01   768   0.310E-01 0.198E-03
CGA:   9    -0.662475363003E+03   -0.60331E-02   -0.60352E-02   768   0.102E-01-0.915E-04
CGA:  10    -0.662477287632E+03   -0.19246E-02   -0.19245E-02   768   0.444E-02 0.133E-04
CGA:  11    -0.662478012485E+03   -0.72485E-03   -0.72462E-03   768   0.215E-02-0.711E-05
CGA:  12    -0.662478460810E+03   -0.44833E-03   -0.44848E-03   768   0.104E-02-0.339E-05
CGA:  13    -0.662478734119E+03   -0.27331E-03   -0.27366E-03   768   0.978E-03-0.458E-05
CGA:  14    -0.662478920253E+03   -0.18613E-03   -0.18615E-03   768   0.710E-03-0.162E-05
CGA:  15    -0.662479121814E+03   -0.20156E-03   -0.20150E-03   768   0.503E-03 0.107E-06
CGA:  16    -0.662479236267E+03   -0.11445E-03   -0.11447E-03   768   0.430E-03 0.881E-06
CGA:  17    -0.662479317245E+03   -0.80978E-04   -0.80984E-04   768   0.177E-03 0.492E-06
   5 F= -.66901360E+03 E0= -.66899448E+03  d E =-.676700E-01  mag=     1.3083
       N       E                     dE             d eps       ncg     rms          ort
SDA:   1    -0.650281532121E+03    0.12198E+02    0.00000E+00   768   0.479E+02 0.000E+00
CGA:   2    -0.655573699556E+03   -0.52922E+01   -0.54475E+01   768   0.183E+02-0.818E+00
CGA:   3    -0.658612848358E+03   -0.30391E+01   -0.30048E+01   768   0.122E+02-0.553E+00
CGA:   4    -0.661009575712E+03   -0.23967E+01   -0.23866E+01   768   0.443E+01 0.624E+00
CGA:   5    -0.661943302859E+03   -0.93373E+00   -0.93309E+00   768   0.162E+01 0.541E-01
CGA:   6    -0.662252589419E+03   -0.30929E+00   -0.30921E+00   768   0.650E+00-0.698E-02
CGA:   7    -0.662373860333E+03   -0.12127E+00   -0.12136E+00   768   0.321E+00 0.120E-01
CGA:   8    -0.662425303355E+03   -0.51443E-01   -0.51265E-01   768   0.150E+00-0.134E-02
CGA:   9    -0.662451856434E+03   -0.26553E-01   -0.26579E-01   768   0.414E-01 0.993E-03
CGA:  10    -0.662461000187E+03   -0.91438E-02   -0.91522E-02   768   0.143E-01-0.193E-03
CGA:  11    -0.662464144672E+03   -0.31445E-02   -0.31428E-02   768   0.837E-02 0.396E-04
CGA:  12    -0.662465428927E+03   -0.12843E-02   -0.12823E-02   768   0.437E-02-0.205E-04
CGA:  13    -0.662466518712E+03   -0.10898E-02   -0.10897E-02   768   0.225E-02 0.111E-05
CGA:  14    -0.662467222952E+03   -0.70424E-03   -0.70645E-03   768   0.225E-02-0.183E-04
CGA:  15    -0.662467596554E+03   -0.37360E-03   -0.37369E-03   768   0.144E-02 0.354E-05
CGA:  16    -0.662467987265E+03   -0.39071E-03   -0.39110E-03   768   0.668E-03-0.490E-05
CGA:  17    -0.662468154345E+03   -0.16708E-03   -0.16703E-03   768   0.583E-03 0.194E-05
CGA:  18    -0.662468250028E+03   -0.95683E-04   -0.95674E-04   768   0.239E-03-0.109E-05
   6 F= -.66900525E+03 E0= -.66899322E+03  d E =-.593224E-01  mag=     1.1484
       N       E                     dE             d eps       ncg     rms          ort
SDA:   1    -0.658130663118E+03    0.43375E+01    0.00000E+00   768   0.148E+02 0.000E+00
CGA:   2    -0.660181790146E+03   -0.20511E+01   -0.20494E+01   768   0.553E+01-0.661E-01
CGA:   3    -0.661304949984E+03   -0.11232E+01   -0.11231E+01   768   0.387E+01 0.128E-01
CGA:   4    -0.662030913826E+03   -0.72596E+00   -0.72343E+00   768   0.176E+01-0.788E-01
CGA:   5    -0.662323448452E+03   -0.29253E+00   -0.29357E+00   768   0.581E+00 0.673E-02
CGA:   6    -0.662423730409E+03   -0.10028E+00   -0.99884E-01   768   0.249E+00-0.543E-02
CGA:   7    -0.662463078428E+03   -0.39348E-01   -0.39428E-01   768   0.108E+00 0.376E-03
CGA:   8    -0.662482391403E+03   -0.19313E-01   -0.19287E-01   768   0.433E-01-0.607E-03
CGA:   9    -0.662490379317E+03   -0.79879E-02   -0.79901E-02   768   0.147E-01 0.817E-04
CGA:  10    -0.662492786487E+03   -0.24072E-02   -0.24049E-02   768   0.589E-02-0.328E-04
CGA:  11    -0.662493734761E+03   -0.94827E-03   -0.94841E-03   768   0.206E-02 0.640E-06
CGA:  12    -0.662494145732E+03   -0.41097E-03   -0.41098E-03   768   0.900E-03-0.214E-05
CGA:  13    -0.662494314803E+03   -0.16907E-03   -0.16908E-03   768   0.567E-03 0.254E-05
CGA:  14    -0.662494423612E+03   -0.10881E-03   -0.10881E-03   768   0.313E-03 0.900E-06
CGA:  15    -0.662494505330E+03   -0.81719E-04   -0.81634E-04   768   0.268E-03 0.145E-05
   7 F= -.66902938E+03 E0= -.66901420E+03  d E =-.834469E-01  mag=     1.1861
       N       E                     dE             d eps       ncg     rms          ort
SDA:   1    -0.661959755218E+03    0.53467E+00    0.00000E+00   768   0.193E+01 0.000E+00
CGA:   2    -0.662210370140E+03   -0.25061E+00   -0.25153E+00   768   0.842E+00-0.140E-02
CGA:   3    -0.662362055811E+03   -0.15169E+00   -0.15151E+00   768   0.547E+00-0.710E-02
CGA:   4    -0.662462270605E+03   -0.10021E+00   -0.10027E+00   768   0.200E+00 0.408E-02
CGA:   5    -0.662497844273E+03   -0.35574E-01   -0.35560E-01   768   0.692E-01-0.269E-03
CGA:   6    -0.662509815254E+03   -0.11971E-01   -0.11981E-01   768   0.317E-01 0.291E-03
CGA:   7    -0.662515136416E+03   -0.53212E-02   -0.53188E-02   768   0.158E-01-0.222E-04
CGA:   8    -0.662517938867E+03   -0.28025E-02   -0.28033E-02   768   0.602E-02 0.479E-04
CGA:   9    -0.662519100449E+03   -0.11616E-02   -0.11616E-02   768   0.213E-02-0.570E-05
CGA:  10    -0.662519434516E+03   -0.33407E-03   -0.33425E-03   768   0.847E-03 0.429E-05
CGA:  11    -0.662519574686E+03   -0.14017E-03   -0.14016E-03   768   0.277E-03-0.770E-08
CGA:  12    -0.662519629344E+03   -0.54658E-04   -0.54647E-04   768   0.118E-03 0.103E-05
   8 F= -.66905531E+03 E0= -.66904015E+03  d E =-.259340E-01  mag=     1.1748
       N       E                     dE             d eps       ncg     rms          ort
SDA:   1    -0.657499563330E+03    0.50200E+01    0.00000E+00   768   0.183E+02 0.000E+00
CGA:   2    -0.659695994917E+03   -0.21964E+01   -0.22179E+01   768   0.792E+01-0.875E-01
CGA:   3    -0.661070825604E+03   -0.13748E+01   -0.13719E+01   768   0.516E+01-0.194E+00
CGA:   4    -0.662019733134E+03   -0.94891E+00   -0.94758E+00   768   0.170E+01 0.135E+00
CGA:   5    -0.662347134151E+03   -0.32740E+00   -0.32746E+00   768   0.603E+00-0.423E-02
CGA:   6    -0.662457773760E+03   -0.11064E+00   -0.11063E+00   768   0.268E+00 0.875E-02
CGA:   7    -0.662503864410E+03   -0.46091E-01   -0.46049E-01   768   0.156E+00-0.111E-02
CGA:   8    -0.662528718464E+03   -0.24854E-01   -0.24881E-01   768   0.574E-01 0.612E-03
CGA:   9    -0.662540298936E+03   -0.11580E-01   -0.11589E-01   768   0.178E-01-0.273E-03
CGA:  10    -0.662543518957E+03   -0.32200E-02   -0.32201E-02   768   0.818E-02 0.426E-04
CGA:  11    -0.662544698049E+03   -0.11791E-02   -0.11783E-02   768   0.317E-02-0.751E-05
CGA:  12    -0.662545333962E+03   -0.63591E-03   -0.63590E-03   768   0.117E-02 0.167E-05
CGA:  13    -0.662545592582E+03   -0.25862E-03   -0.25878E-03   768   0.920E-03-0.420E-05
CGA:  14    -0.662545736056E+03   -0.14347E-03   -0.14343E-03   768   0.462E-03-0.307E-06
CGA:  15    -0.662545870684E+03   -0.13463E-03   -0.13475E-03   768   0.343E-03-0.133E-05
CGA:  16    -0.662545939842E+03   -0.69157E-04   -0.69146E-04   768   0.305E-03 0.115E-05
   9 F= -.66908487E+03 E0= -.66906836E+03  d E =-.554929E-01  mag=     1.1744
       N       E                     dE             d eps       ncg     rms          ort
SDA:   1    -0.661931547239E+03    0.61432E+00    0.00000E+00   768   0.201E+01 0.000E+00
CGA:   2    -0.662220497256E+03   -0.28895E+00   -0.28814E+00   768   0.132E+01-0.516E-02
CGA:   3    -0.662428201239E+03   -0.20770E+00   -0.20769E+00   768   0.589E+00-0.105E-02
CGA:   4    -0.662534248361E+03   -0.10605E+00   -0.10607E+00   768   0.146E+00 0.246E-02
CGA:   5    -0.662558843861E+03   -0.24596E-01   -0.24596E-01   768   0.473E-01 0.113E-03
CGA:   6    -0.662567775107E+03   -0.89312E-02   -0.89302E-02   768   0.237E-01 0.168E-03
CGA:   7    -0.662571498831E+03   -0.37237E-02   -0.37235E-02   768   0.127E-01 0.169E-04
CGA:   8    -0.662573723159E+03   -0.22243E-02   -0.22247E-02   768   0.552E-02 0.294E-04
CGA:   9    -0.662574858496E+03   -0.11353E-02   -0.11356E-02   768   0.206E-02-0.926E-05
CGA:  10    -0.662575228435E+03   -0.36994E-03   -0.36997E-03   768   0.113E-02 0.569E-05
CGA:  11    -0.662575393186E+03   -0.16475E-03   -0.16478E-03   768   0.367E-03 0.116E-05
CGA:  12    -0.662575468642E+03   -0.75456E-04   -0.75405E-04   768   0.142E-03 0.209E-05
  10 F= -.66911629E+03 E0= -.66909858E+03  d E =-.314260E-01  mag=     1.1989
       N       E                     dE             d eps       ncg     rms          ort
SDA:   1    -0.656849266117E+03    0.57261E+01    0.00000E+00   768   0.185E+02 0.000E+00
CGA:   2    -0.659338864615E+03   -0.24896E+01   -0.24931E+01   768   0.123E+02-0.906E-01
CGA:   3    -0.661258718570E+03   -0.19199E+01   -0.19188E+01   768   0.540E+01-0.353E-01
CGA:   4    -0.662220746535E+03   -0.96203E+00   -0.96203E+00   768   0.131E+01 0.720E-01
CGA:   5    -0.662447801791E+03   -0.22706E+00   -0.22708E+00   768   0.434E+00 0.394E-02
CGA:   6    -0.662537100387E+03   -0.89299E-01   -0.89184E-01   768   0.191E+00 0.352E-02
CGA:   7    -0.662575058140E+03   -0.37958E-01   -0.37978E-01   768   0.114E+00-0.557E-03
CGA:   8    -0.662592351414E+03   -0.17293E-01   -0.17333E-01   768   0.617E-01 0.618E-03
CGA:   9    -0.662602730304E+03   -0.10379E-01   -0.10376E-01   768   0.193E-01-0.107E-03
CGA:  10    -0.662606945069E+03   -0.42148E-02   -0.42110E-02   768   0.799E-02 0.702E-04
CGA:  11    -0.662608216829E+03   -0.12718E-02   -0.12716E-02   768   0.444E-02-0.456E-05
CGA:  12    -0.662608893744E+03   -0.67692E-03   -0.67699E-03   768   0.138E-02 0.324E-05
CGA:  13    -0.662609218024E+03   -0.32428E-03   -0.32439E-03   768   0.724E-03-0.274E-05
CGA:  14    -0.662609338361E+03   -0.12034E-03   -0.12032E-03   768   0.550E-03-0.408E-06
CGA:  15    -0.662609450558E+03   -0.11220E-03   -0.11221E-03   768   0.270E-03-0.105E-05
CGA:  16    -0.662609530102E+03   -0.79543E-04   -0.79547E-04   768   0.282E-03 0.149E-06
  11 F= -.66915621E+03 E0= -.66913188E+03  d E =-.713392E-01  mag=     1.4242
       N       E                     dE             d eps       ncg     rms          ort
SDA:   1    -0.661685807227E+03    0.92364E+00    0.00000E+00   768   0.260E+01 0.000E+00
CGA:   2    -0.662165079346E+03   -0.47927E+00   -0.47931E+00   768   0.186E+01 0.967E-02
CGA:   3    -0.662452399486E+03   -0.28732E+00   -0.28713E+00   768   0.953E+00-0.581E-02
CGA:   4    -0.662594097385E+03   -0.14170E+00   -0.14192E+00   768   0.222E+00 0.150E-02
CGA:   5    -0.662632753999E+03   -0.38657E-01   -0.38648E-01   768   0.873E-01-0.417E-03
CGA:   6    -0.662647872200E+03   -0.15118E-01   -0.15123E-01   768   0.409E-01 0.347E-03
CGA:   7    -0.662654432472E+03   -0.65603E-02   -0.65580E-02   768   0.208E-01-0.372E-04
CGA:   8    -0.662658272572E+03   -0.38401E-02   -0.38396E-02   768   0.894E-02 0.616E-04
CGA:   9    -0.662660019743E+03   -0.17472E-02   -0.17475E-02   768   0.386E-02-0.215E-04
CGA:  10    -0.662660645181E+03   -0.62544E-03   -0.62561E-03   768   0.177E-02 0.403E-05
CGA:  11    -0.662660932669E+03   -0.28749E-03   -0.28748E-03   768   0.543E-03-0.110E-06
CGA:  12    -0.662661039778E+03   -0.10711E-03   -0.10707E-03   768   0.254E-03 0.235E-05
CGA:  13    -0.662661079335E+03   -0.39558E-04   -0.39562E-04   768   0.119E-03 0.733E-07
  12 F= -.66920946E+03 E0= -.66918698E+03  d E =-.532571E-01  mag=     1.4130
       N       E                     dE             d eps       ncg     rms          ort
SDA:   1    -0.661370400389E+03    0.12906E+01    0.00000E+00   768   0.347E+01 0.000E+00
CGA:   2    -0.662024371376E+03   -0.65397E+00   -0.65366E+00   768   0.240E+01 0.147E-01
CGA:   3    -0.662411474203E+03   -0.38710E+00   -0.38681E+00   768   0.123E+01-0.114E-01
CGA:   4    -0.662594587259E+03   -0.18311E+00   -0.18337E+00   768   0.280E+00 0.198E-02
CGA:   5    -0.662644949035E+03   -0.50362E-01   -0.50365E-01   768   0.108E+00-0.819E-03
CGA:   6    -0.662664423434E+03   -0.19474E-01   -0.19473E-01   768   0.506E-01 0.475E-03
CGA:   7    -0.662672900905E+03   -0.84775E-02   -0.84755E-02   768   0.263E-01-0.823E-04
CGA:   8    -0.662677803953E+03   -0.49030E-02   -0.49017E-02   768   0.111E-01 0.816E-04
CGA:   9    -0.662680006465E+03   -0.22025E-02   -0.22031E-02   768   0.452E-02-0.263E-04
CGA:  10    -0.662680789053E+03   -0.78259E-03   -0.78264E-03   768   0.211E-02 0.568E-05
CGA:  11    -0.662681132218E+03   -0.34316E-03   -0.34316E-03   768   0.698E-03 0.120E-06
CGA:  12    -0.662681279845E+03   -0.14763E-03   -0.14754E-03   768   0.336E-03 0.256E-05
CGA:  13    -0.662681340318E+03   -0.60473E-04   -0.60473E-04   768   0.207E-03 0.393E-06
  13 F= -.66923157E+03 E0= -.66921183E+03  d E =-.753611E-01  mag=     1.3578
       N       E                     dE             d eps       ncg     rms          ort
SDA:   1    -0.660714723015E+03    0.19666E+01    0.00000E+00   768   0.584E+01 0.000E+00
CGA:   2    -0.661638894462E+03   -0.92417E+00   -0.92532E+00   768   0.278E+01-0.281E-02
CGA:   3    -0.662212590603E+03   -0.57370E+00   -0.57658E+00   768   0.215E+01-0.785E-01
CGA:   4    -0.662539836635E+03   -0.32725E+00   -0.32796E+00   768   0.620E+00 0.521E-02
CGA:   5    -0.662648502800E+03   -0.10867E+00   -0.10861E+00   768   0.227E+00-0.550E-02
CGA:   6    -0.662688257652E+03   -0.39755E-01   -0.39761E-01   768   0.104E+00 0.925E-03
CGA:   7    -0.662705784004E+03   -0.17526E-01   -0.17515E-01   768   0.552E-01-0.487E-03
CGA:   8    -0.662715131713E+03   -0.93477E-02   -0.93508E-02   768   0.210E-01 0.145E-03
CGA:   9    -0.662719126337E+03   -0.39946E-02   -0.39960E-02   768   0.724E-02-0.774E-04
CGA:  10    -0.662720348097E+03   -0.12218E-02   -0.12219E-02   768   0.309E-02 0.551E-05
CGA:  11    -0.662720814258E+03   -0.46616E-03   -0.46603E-03   768   0.106E-02-0.246E-05
CGA:  12    -0.662721029243E+03   -0.21498E-03   -0.21493E-03   768   0.464E-03 0.233E-05
CGA:  13    -0.662721119380E+03   -0.90137E-04   -0.90123E-04   768   0.314E-03 0.828E-06
  14 F= -.66927227E+03 E0= -.66924990E+03  d E =-.407038E-01  mag=     1.4234
       N       E                     dE             d eps       ncg     rms          ort
SDA:   1    -0.662622489379E+03    0.98540E-01    0.00000E+00   768   0.284E+00 0.000E+00
CGA:   2    -0.662668880436E+03   -0.46391E-01   -0.46396E-01   768   0.135E+00 0.404E-05
CGA:   3    -0.662697668838E+03   -0.28788E-01   -0.28812E-01   768   0.979E-01-0.524E-03
CGA:   4    -0.662713248258E+03   -0.15579E-01   -0.15583E-01   768   0.301E-01 0.628E-05
CGA:   5    -0.662718455367E+03   -0.52071E-02   -0.52065E-02   768   0.106E-01-0.493E-04
CGA:   6    -0.662720338294E+03   -0.18829E-02   -0.18830E-02   768   0.510E-02 0.139E-04
CGA:   7    -0.662721187433E+03   -0.84914E-03   -0.84900E-03   768   0.283E-02-0.456E-05
CGA:   8    -0.662721668132E+03   -0.48070E-03   -0.48072E-03   768   0.108E-02-0.335E-06
CGA:   9    -0.662721878463E+03   -0.21033E-03   -0.21041E-03   768   0.369E-03-0.424E-05
CGA:  10    -0.662721942496E+03   -0.64033E-04   -0.64032E-04   768   0.177E-03-0.327E-06
  15 F= -.66927327E+03 E0= -.66925008E+03  d E =-.417061E-01  mag=     1.4525
       N       E                     dE             d eps       ncg     rms          ort
SDA:   1    -0.661076945742E+03    0.16449E+01    0.00000E+00   768   0.461E+01 0.000E+00
CGA:   2    -0.661909273809E+03   -0.83233E+00   -0.83228E+00   768   0.245E+01-0.689E-03
CGA:   3    -0.662398643041E+03   -0.48937E+00   -0.49005E+00   768   0.145E+01-0.237E-01
CGA:   4    -0.662613898069E+03   -0.21526E+00   -0.21551E+00   768   0.429E+00 0.614E-03
CGA:   5    -0.662690692505E+03   -0.76794E-01   -0.76802E-01   768   0.166E+00-0.259E-02
CGA:   6    -0.662720724689E+03   -0.30032E-01   -0.30027E-01   768   0.846E-01 0.511E-03
CGA:   7    -0.662733849106E+03   -0.13124E-01   -0.13105E-01   768   0.467E-01-0.342E-03
CGA:   8    -0.662741531701E+03   -0.76826E-02   -0.76853E-02   768   0.164E-01 0.938E-04
CGA:   9    -0.662744884290E+03   -0.33526E-02   -0.33549E-02   768   0.589E-02-0.598E-04
CGA:  10    -0.662745890154E+03   -0.10059E-02   -0.10059E-02   768   0.301E-02 0.785E-05
CGA:  11    -0.662746309281E+03   -0.41913E-03   -0.41911E-03   768   0.104E-02 0.989E-06
CGA:  12    -0.662746532389E+03   -0.22311E-03   -0.22298E-03   768   0.453E-03 0.333E-05
CGA:  13    -0.662746626736E+03   -0.94347E-04   -0.94320E-04   768   0.408E-03 0.632E-06
  16 F= -.66929791E+03 E0= -.66927180E+03  d E =-.246363E-01  mag=     1.5651
       N       E                     dE             d eps       ncg     rms          ort
SDA:   1    -0.662746698460E+03   -0.16607E-03    0.00000E+00   768   0.362E-03 0.000E+00
CGA:   2    -0.662746736794E+03   -0.38334E-04   -0.38355E-04   768   0.158E-03 0.311E-06
  17 F= -.66929802E+03 E0= -.66927182E+03  d E =-.247464E-01  mag=     1.5711
       N       E                     dE             d eps       ncg     rms          ort
SDA:   1    -0.662149090454E+03    0.59761E+00    0.00000E+00   768   0.161E+01 0.000E+00
CGA:   2    -0.662473288286E+03   -0.32420E+00   -0.32427E+00   768   0.938E+00-0.220E-02
CGA:   3    -0.662655393929E+03   -0.18211E+00   -0.18204E+00   768   0.520E+00 0.238E-02
CGA:   4    -0.662730046852E+03   -0.74653E-01   -0.74530E-01   768   0.150E+00-0.884E-03
CGA:   5    -0.662753794536E+03   -0.23748E-01   -0.23762E-01   768   0.608E-01 0.273E-03
CGA:   6    -0.662763196382E+03   -0.94018E-02   -0.93946E-02   768   0.330E-01-0.134E-03
CGA:   7    -0.662768741587E+03   -0.55452E-02   -0.55461E-02   768   0.147E-01 0.569E-04
CGA:   8    -0.662771807908E+03   -0.30663E-02   -0.30683E-02   768   0.706E-02-0.466E-04
CGA:   9    -0.662773054155E+03   -0.12462E-02   -0.12462E-02   768   0.369E-02 0.105E-05
CGA:  10    -0.662773591951E+03   -0.53780E-03   -0.53777E-03   768   0.145E-02-0.126E-05
CGA:  11    -0.662773889267E+03   -0.29732E-03   -0.29723E-03   768   0.672E-03 0.334E-05
CGA:  12    -0.662774028588E+03   -0.13932E-03   -0.13925E-03   768   0.563E-03 0.150E-05
CGA:  13    -0.662774136685E+03   -0.10810E-03   -0.10811E-03   768   0.406E-03 0.174E-06
CGA:  14    -0.662774255837E+03   -0.11915E-03   -0.11901E-03   768   0.387E-03 0.856E-06
CGA:  15    -0.662774339121E+03   -0.83284E-04   -0.83363E-04   768   0.385E-03-0.152E-05
  18 F= -.66932587E+03 E0= -.66929722E+03  d E =-.278487E-01  mag=     1.8271
       N       E                     dE             d eps       ncg     rms          ort
SDA:   1    -0.662013668819E+03    0.76059E+00    0.00000E+00   768   0.200E+01 0.000E+00
CGA:   2    -0.662417423375E+03   -0.40375E+00   -0.40379E+00   768   0.116E+01-0.243E-02
CGA:   3    -0.662644422999E+03   -0.22700E+00   -0.22697E+00   768   0.640E+00 0.202E-02
CGA:   4    -0.662736358908E+03   -0.91936E-01   -0.91758E-01   768   0.182E+00-0.841E-03
CGA:   5    -0.662765907840E+03   -0.29549E-01   -0.29573E-01   768   0.728E-01 0.331E-03
CGA:   6    -0.662777263416E+03   -0.11356E-01   -0.11342E-01   768   0.410E-01-0.169E-03
CGA:   7    -0.662783764064E+03   -0.65006E-02   -0.65069E-02   768   0.182E-01 0.823E-04
CGA:   8    -0.662787526787E+03   -0.37627E-02   -0.37647E-02   768   0.806E-02-0.579E-04
CGA:   9    -0.662789049906E+03   -0.15231E-02   -0.15230E-02   768   0.406E-02 0.608E-05
CGA:  10    -0.662789608411E+03   -0.55851E-03   -0.55836E-03   768   0.164E-02-0.147E-05
CGA:  11    -0.662789916774E+03   -0.30836E-03   -0.30833E-03   768   0.600E-03 0.415E-05
CGA:  12    -0.662790044847E+03   -0.12807E-03   -0.12803E-03   768   0.430E-03 0.103E-05
CGA:  13    -0.662790116344E+03   -0.71498E-04   -0.71509E-04   768   0.280E-03 0.902E-06
  19 F= -.66934182E+03 E0= -.66931265E+03  d E =-.438028E-01  mag=     2.0164
       N       E                     dE             d eps       ncg     rms          ort
SDA:   1    -0.662136992769E+03    0.65305E+00    0.00000E+00   768   0.179E+01 0.000E+00
CGA:   2    -0.662513613602E+03   -0.37662E+00   -0.37670E+00   768   0.996E+00-0.165E-02
CGA:   3    -0.662702898182E+03   -0.18928E+00   -0.18927E+00   768   0.567E+00 0.434E-02
CGA:   4    -0.662780182997E+03   -0.77285E-01   -0.77083E-01   768   0.149E+00-0.107E-03
CGA:   5    -0.662802185521E+03   -0.22003E-01   -0.22028E-01   768   0.605E-01 0.211E-03
CGA:   6    -0.662811515261E+03   -0.93297E-02   -0.93206E-02   768   0.306E-01-0.988E-04
CGA:   7    -0.662817159813E+03   -0.56446E-02   -0.56441E-02   768   0.140E-01 0.815E-04
CGA:   8    -0.662819921307E+03   -0.27615E-02   -0.27623E-02   768   0.779E-02-0.395E-04
CGA:   9    -0.662821153777E+03   -0.12325E-02   -0.12328E-02   768   0.368E-02 0.530E-05
CGA:  10    -0.662821762900E+03   -0.60912E-03   -0.60910E-03   768   0.137E-02-0.488E-06
CGA:  11    -0.662822025806E+03   -0.26291E-03   -0.26284E-03   768   0.670E-03 0.512E-05
CGA:  12    -0.662822131800E+03   -0.10599E-03   -0.10601E-03   768   0.341E-03 0.524E-06
CGA:  13    -0.662822201764E+03   -0.69964E-04   -0.69945E-04   768   0.203E-03 0.756E-06
  20 F= -.66937418E+03 E0= -.66934522E+03  d E =-.323559E-01  mag=     2.1554
       N       E                     dE             d eps       ncg     rms          ort
SDA:   1    -0.659504440644E+03    0.33177E+01    0.00000E+00   768   0.874E+01 0.000E+00
CGA:   2    -0.661343085908E+03   -0.18386E+01   -0.18394E+01   768   0.486E+01-0.162E-01
CGA:   3    -0.662270206974E+03   -0.92712E+00   -0.92667E+00   768   0.271E+01 0.436E-01
CGA:   4    -0.662641226905E+03   -0.37102E+00   -0.36884E+00   768   0.742E+00-0.299E-02
CGA:   5    -0.662748289334E+03   -0.10706E+00   -0.10738E+00   768   0.310E+00 0.209E-02
CGA:   6    -0.662794493950E+03   -0.46205E-01   -0.46069E-01   768   0.155E+00-0.127E-02
CGA:   7    -0.662823243681E+03   -0.28750E-01   -0.28738E-01   768   0.692E-01 0.103E-02
CGA:   8    -0.662836821979E+03   -0.13578E-01   -0.13589E-01   768   0.397E-01-0.408E-03
CGA:   9    -0.662842774608E+03   -0.59526E-02   -0.59603E-02   768   0.183E-01 0.880E-04
CGA:  10    -0.662845799398E+03   -0.30248E-02   -0.30241E-02   768   0.643E-02-0.217E-04
CGA:  11    -0.662847007754E+03   -0.12084E-02   -0.12081E-02   768   0.314E-02 0.205E-04
CGA:  12    -0.662847460609E+03   -0.45285E-03   -0.45283E-03   768   0.135E-02-0.220E-06
CGA:  13    -0.662847723100E+03   -0.26249E-03   -0.26243E-03   768   0.664E-03 0.269E-05
CGA:  14    -0.662847857668E+03   -0.13457E-03   -0.13461E-03   768   0.533E-03-0.209E-05
CGA:  15    -0.662847951785E+03   -0.94117E-04   -0.94117E-04   768   0.311E-03-0.118E-07
  21 F= -.66940017E+03 E0= -.66937122E+03  d E =-.583496E-01  mag=     2.3559
       N       E                     dE             d eps       ncg     rms          ort
SDA:   1    -0.661767388553E+03    0.10805E+01    0.00000E+00   768   0.294E+01 0.000E+00
CGA:   2    -0.662366399431E+03   -0.59901E+00   -0.59902E+00   768   0.153E+01-0.259E-03
CGA:   3    -0.662674563225E+03   -0.30816E+00   -0.30810E+00   768   0.872E+00 0.217E-02
CGA:   4    -0.662798172298E+03   -0.12361E+00   -0.12353E+00   768   0.218E+00-0.217E-03
CGA:   5    -0.662835323825E+03   -0.37152E-01   -0.37161E-01   768   0.804E-01 0.329E-03
CGA:   6    -0.662850219841E+03   -0.14896E-01   -0.14898E-01   768   0.507E-01-0.302E-03
CGA:   7    -0.662857331514E+03   -0.71117E-02   -0.71310E-02   768   0.260E-01 0.983E-04
CGA:   8    -0.662861875363E+03   -0.45438E-02   -0.45431E-02   768   0.102E-01-0.664E-04
CGA:   9    -0.662864018827E+03   -0.21435E-02   -0.21426E-02   768   0.405E-02 0.191E-04
CGA:  10    -0.662864646056E+03   -0.62723E-03   -0.62703E-03   768   0.226E-02-0.224E-05
CGA:  11    -0.662864965046E+03   -0.31899E-03   -0.31927E-03   768   0.643E-03 0.457E-05
CGA:  12    -0.662865100783E+03   -0.13574E-03   -0.13573E-03   768   0.273E-03 0.226E-06
CGA:  13    -0.662865144394E+03   -0.43611E-04   -0.43627E-04   768   0.192E-03 0.732E-06
  22 F= -.66941743E+03 E0= -.66938831E+03  d E =-.172574E-01  mag=     2.3957
       N       E                     dE             d eps       ncg     rms          ort
SDA:   1    -0.662643860772E+03    0.22124E+00    0.00000E+00   768   0.596E+00 0.000E+00
CGA:   2    -0.662765633334E+03   -0.12177E+00   -0.12178E+00   768   0.314E+00-0.177E-03
CGA:   3    -0.662827699165E+03   -0.62066E-01   -0.62051E-01   768   0.181E+00 0.521E-03
CGA:   4    -0.662853032089E+03   -0.25333E-01   -0.25314E-01   768   0.472E-01-0.582E-04
CGA:   5    -0.662860450969E+03   -0.74189E-02   -0.74222E-02   768   0.200E-01 0.625E-04
CGA:   6    -0.662863350541E+03   -0.28996E-02   -0.28972E-02   768   0.113E-01-0.209E-04
CGA:   7    -0.662865243415E+03   -0.18929E-02   -0.18932E-02   768   0.479E-02 0.173E-04
CGA:   8    -0.662866231165E+03   -0.98775E-03   -0.98813E-03   768   0.225E-02-0.933E-05
CGA:   9    -0.662866621081E+03   -0.38992E-03   -0.38993E-03   768   0.125E-02 0.275E-05
CGA:  10    -0.662866787693E+03   -0.16661E-03   -0.16656E-03   768   0.414E-03-0.293E-06
CGA:  11    -0.662866869503E+03   -0.81810E-04   -0.81757E-04   768   0.150E-03 0.220E-05
  23 F= -.66941913E+03 E0= -.66938989E+03  d E =-.189527E-01  mag=     2.4033
       N       E                     dE             d eps       ncg     rms          ort
SDA:   1    -0.662747615178E+03    0.11917E+00    0.00000E+00   768   0.383E+00 0.000E+00
CGA:   2    -0.662815700580E+03   -0.68085E-01   -0.68082E-01   768   0.215E+00 0.525E-03
CGA:   3    -0.662850063541E+03   -0.34363E-01   -0.34325E-01   768   0.129E+00-0.112E-02
CGA:   4    -0.662868652900E+03   -0.18589E-01   -0.18605E-01   768   0.430E-01 0.115E-03
CGA:   5    -0.662875378213E+03   -0.67253E-02   -0.67220E-02   768   0.167E-01-0.822E-04
CGA:   6    -0.662878015123E+03   -0.26369E-02   -0.26377E-02   768   0.725E-02 0.236E-04
CGA:   7    -0.662879239158E+03   -0.12240E-02   -0.12240E-02   768   0.414E-02-0.814E-05
CGA:   8    -0.662879922922E+03   -0.68376E-03   -0.68384E-03   768   0.195E-02 0.822E-05
CGA:   9    -0.662880278572E+03   -0.35565E-03   -0.35570E-03   768   0.890E-03-0.335E-05
CGA:  10    -0.662880418726E+03   -0.14015E-03   -0.14016E-03   768   0.413E-03 0.170E-06
CGA:  11    -0.662880483237E+03   -0.64512E-04   -0.64489E-04   768   0.159E-03-0.129E-05
  24 F= -.66943292E+03 E0= -.66940313E+03  d E =-.137989E-01  mag=     2.3456
       N       E                     dE             d eps       ncg     rms          ort
SDA:   1    -0.662498058109E+03    0.38236E+00    0.00000E+00   768   0.113E+01 0.000E+00
CGA:   2    -0.662699150935E+03   -0.20109E+00   -0.20105E+00   768   0.627E+00 0.257E-02
CGA:   3    -0.662800481826E+03   -0.10133E+00   -0.10122E+00   768   0.381E+00-0.574E-02
CGA:   4    -0.662854566085E+03   -0.54084E-01   -0.54158E-01   768   0.127E+00 0.656E-03
CGA:   5    -0.662874308843E+03   -0.19743E-01   -0.19729E-01   768   0.498E-01-0.399E-03
CGA:   6    -0.662882137632E+03   -0.78288E-02   -0.78314E-02   768   0.216E-01 0.107E-03
CGA:   7    -0.662885793096E+03   -0.36555E-02   -0.36555E-02   768   0.126E-01-0.542E-04
CGA:   8    -0.662887856031E+03   -0.20629E-02   -0.20631E-02   768   0.602E-02 0.251E-04
CGA:   9    -0.662888956673E+03   -0.11006E-02   -0.11010E-02   768   0.283E-02-0.138E-04
CGA:  10    -0.662889407195E+03   -0.45052E-03   -0.45053E-03   768   0.139E-02 0.551E-06
CGA:  11    -0.662889628547E+03   -0.22135E-03   -0.22131E-03   768   0.588E-03-0.317E-05
CGA:  12    -0.662889744777E+03   -0.11623E-03   -0.11621E-03   768   0.397E-03 0.113E-05
CGA:  13    -0.662889817530E+03   -0.72753E-04   -0.72747E-04   768   0.298E-03 0.408E-06
  25 F= -.66944252E+03 E0= -.66941159E+03  d E =-.233916E-01  mag=     2.1807
       N       E                     dE             d eps       ncg     rms          ort
SDA:   1    -0.662771934364E+03    0.11781E+00    0.00000E+00   768   0.367E+00 0.000E+00
CGA:   2    -0.662837071079E+03   -0.65137E-01   -0.65132E-01   768   0.210E+00 0.442E-03
CGA:   3    -0.662869456199E+03   -0.32385E-01   -0.32349E-01   768   0.126E+00-0.877E-03
CGA:   4    -0.662887576167E+03   -0.18120E-01   -0.18130E-01   768   0.415E-01 0.736E-04
CGA:   5    -0.662894113171E+03   -0.65370E-02   -0.65349E-02   768   0.167E-01-0.655E-04
CGA:   6    -0.662896725284E+03   -0.26121E-02   -0.26127E-02   768   0.728E-02 0.233E-04
CGA:   7    -0.662897935896E+03   -0.12106E-02   -0.12106E-02   768   0.439E-02-0.452E-05
CGA:   8    -0.662898668963E+03   -0.73307E-03   -0.73309E-03   768   0.222E-02 0.723E-05
CGA:   9    -0.662899097453E+03   -0.42849E-03   -0.42858E-03   768   0.118E-02-0.294E-05
CGA:  10    -0.662899288363E+03   -0.19091E-03   -0.19090E-03   768   0.675E-03-0.653E-06
CGA:  11    -0.662899406384E+03   -0.11802E-03   -0.11803E-03   768   0.353E-03-0.184E-05
CGA:  12    -0.662899485915E+03   -0.79530E-04   -0.79531E-04   768   0.332E-03 0.353E-06
  26 F= -.66945248E+03 E0= -.66942102E+03  d E =-.995776E-02  mag=     2.0297
       N       E                     dE             d eps       ncg     rms          ort
SDA:   1    -0.662717090943E+03    0.18232E+00    0.00000E+00   768   0.545E+00 0.000E+00
CGA:   2    -0.662811061314E+03   -0.93970E-01   -0.93975E-01   768   0.322E+00 0.823E-03
CGA:   3    -0.662858313119E+03   -0.47252E-01   -0.47163E-01   768   0.190E+00-0.131E-02
CGA:   4    -0.662886381064E+03   -0.28068E-01   -0.28083E-01   768   0.615E-01 0.176E-03
CGA:   5    -0.662896299810E+03   -0.99187E-02   -0.99164E-02   768   0.236E-01-0.954E-04
CGA:   6    -0.662900057516E+03   -0.37577E-02   -0.37585E-02   768   0.112E-01 0.381E-04
CGA:   7    -0.662901800408E+03   -0.17429E-02   -0.17425E-02   768   0.653E-02-0.705E-05
CGA:   8    -0.662902940268E+03   -0.11399E-02   -0.11398E-02   768   0.323E-02 0.103E-04
CGA:   9    -0.662903583519E+03   -0.64325E-03   -0.64333E-03   768   0.187E-02-0.252E-05
CGA:  10    -0.662903871904E+03   -0.28839E-03   -0.28832E-03   768   0.108E-02-0.123E-05
CGA:  11    -0.662904075811E+03   -0.20391E-03   -0.20393E-03   768   0.587E-03-0.173E-05
CGA:  12    -0.662904215865E+03   -0.14005E-03   -0.14020E-03   768   0.666E-03-0.126E-05
CGA:  13    -0.662904347045E+03   -0.13118E-03   -0.13107E-03   768   0.572E-03 0.310E-05
CGA:  14    -0.662904511558E+03   -0.16451E-03   -0.16513E-03   768   0.669E-03-0.425E-05
CGA:  15    -0.662904643345E+03   -0.13179E-03   -0.13159E-03   768   0.567E-03 0.736E-05
CGA:  16    -0.662904760821E+03   -0.11748E-03   -0.11763E-03   768   0.350E-03-0.277E-05
CGA:  17    -0.662904823083E+03   -0.62262E-04   -0.62272E-04   768   0.222E-03 0.591E-06
  27 F= -.66945814E+03 E0= -.66942784E+03  d E =-.156226E-01  mag=     1.7010
       N       E                     dE             d eps       ncg     rms          ort
SDA:   1    -0.662788161374E+03    0.11660E+00    0.00000E+00   768   0.328E+00 0.000E+00
CGA:   2    -0.662859088202E+03   -0.70927E-01   -0.70894E-01   768   0.240E+00 0.595E-03
CGA:   3    -0.662888813780E+03   -0.29726E-01   -0.29720E-01   768   0.110E+00-0.140E-03
CGA:   4    -0.662904707337E+03   -0.15894E-01   -0.15899E-01   768   0.284E-01 0.259E-04
CGA:   5    -0.662909494759E+03   -0.47874E-02   -0.47873E-02   768   0.115E-01 0.192E-05
CGA:   6    -0.662911311344E+03   -0.18166E-02   -0.18170E-02   768   0.538E-02 0.140E-04
CGA:   7    -0.662912094684E+03   -0.78334E-03   -0.78332E-03   768   0.300E-02 0.102E-05
CGA:   8    -0.662912641940E+03   -0.54726E-03   -0.54725E-03   768   0.149E-02 0.166E-05
CGA:   9    -0.662912958605E+03   -0.31667E-03   -0.31659E-03   768   0.101E-02 0.817E-06
CGA:  10    -0.662913115395E+03   -0.15679E-03   -0.15677E-03   768   0.635E-03 0.793E-06
CGA:  11    -0.662913241453E+03   -0.12606E-03   -0.12602E-03   768   0.337E-03 0.128E-05
CGA:  12    -0.662913323324E+03   -0.81871E-04   -0.81829E-04   768   0.385E-03 0.114E-05
  28 F= -.66946683E+03 E0= -.66943919E+03  d E =-.869002E-02  mag=     1.5346
       N       E                     dE             d eps       ncg     rms          ort
SDA:   1    -0.662781179407E+03    0.13206E+00    0.00000E+00   768   0.360E+00 0.000E+00
CGA:   2    -0.662856513552E+03   -0.75334E-01   -0.75297E-01   768   0.273E+00 0.779E-03
CGA:   3    -0.662889774947E+03   -0.33261E-01   -0.33308E-01   768   0.118E+00-0.162E-03
CGA:   4    -0.662907604684E+03   -0.17830E-01   -0.17833E-01   768   0.304E-01 0.365E-04
CGA:   5    -0.662912835936E+03   -0.52313E-02   -0.52313E-02   768   0.117E-01 0.845E-05
CGA:   6    -0.662914666288E+03   -0.18304E-02   -0.18308E-02   768   0.575E-02 0.133E-04
CGA:   7    -0.662915524635E+03   -0.85835E-03   -0.85843E-03   768   0.321E-02 0.245E-05
CGA:   8    -0.662916134319E+03   -0.60968E-03   -0.60969E-03   768   0.170E-02 0.116E-05
CGA:   9    -0.662916508958E+03   -0.37464E-03   -0.37435E-03   768   0.120E-02 0.406E-05
CGA:  10    -0.662916701739E+03   -0.19278E-03   -0.19274E-03   768   0.798E-03 0.299E-06
CGA:  11    -0.662916864905E+03   -0.16317E-03   -0.16306E-03   768   0.440E-03 0.250E-05
CGA:  12    -0.662916977507E+03   -0.11260E-03   -0.11262E-03   768   0.506E-03 0.481E-06
CGA:  13    -0.662917067937E+03   -0.90430E-04   -0.90452E-04   768   0.368E-03 0.277E-05
CGA:  14    -0.662917176214E+03   -0.10828E-03   -0.10855E-03   768   0.365E-03-0.174E-05
CGA:  15    -0.662917245862E+03   -0.69649E-04   -0.69638E-04   768   0.305E-03 0.134E-05
  29 F= -.66947093E+03 E0= -.66944878E+03  d E =-.127938E-01  mag=     1.3048
       N       E                     dE             d eps       ncg     rms          ort
SDA:   1    -0.662866284997E+03    0.50891E-01    0.00000E+00   768   0.157E+00 0.000E+00
CGA:   2    -0.662896129061E+03   -0.29844E-01   -0.29843E-01   768   0.106E+00 0.210E-03
CGA:   3    -0.662910378677E+03   -0.14250E-01   -0.14255E-01   768   0.536E-01-0.325E-04
CGA:   4    -0.662918719017E+03   -0.83403E-02   -0.83421E-02   768   0.150E-01 0.846E-05
CGA:   5    -0.662921175651E+03   -0.24566E-02   -0.24566E-02   768   0.595E-02 0.395E-05
CGA:   6    -0.662922155561E+03   -0.97991E-03   -0.98020E-03   768   0.283E-02 0.113E-04
CGA:   7    -0.662922575527E+03   -0.41997E-03   -0.42003E-03   768   0.152E-02 0.330E-05
CGA:   8    -0.662922855174E+03   -0.27965E-03   -0.27963E-03   768   0.716E-03 0.433E-05
CGA:   9    -0.662922999125E+03   -0.14395E-03   -0.14395E-03   768   0.400E-03-0.427E-07
CGA:  10    -0.662923058644E+03   -0.59518E-04   -0.59543E-04   768   0.203E-03 0.734E-06
  30 F= -.66947688E+03 E0= -.66945644E+03  d E =-.594544E-02  mag=     1.2602
       N       E                     dE             d eps       ncg     rms          ort
SDA:   1    -0.662421695351E+03    0.50130E+00    0.00000E+00   768   0.143E+01 0.000E+00
CGA:   2    -0.662685981355E+03   -0.26429E+00   -0.26423E+00   768   0.985E+00 0.678E-02
CGA:   3    -0.662818033915E+03   -0.13205E+00   -0.13225E+00   768   0.472E+00-0.424E-03
CGA:   4    -0.662894722920E+03   -0.76689E-01   -0.76722E-01   768   0.130E+00 0.106E-02
CGA:   5    -0.662916688859E+03   -0.21966E-01   -0.21965E-01   768   0.504E-01 0.367E-04
CGA:   6    -0.662925223267E+03   -0.85344E-02   -0.85365E-02   768   0.244E-01 0.159E-03
CGA:   7    -0.662929033368E+03   -0.38101E-02   -0.38094E-02   768   0.134E-01-0.295E-05
CGA:   8    -0.662931412326E+03   -0.23790E-02   -0.23788E-02   768   0.595E-02 0.374E-04
CGA:   9    -0.662932642121E+03   -0.12298E-02   -0.12297E-02   768   0.286E-02-0.831E-07
CGA:  10    -0.662933087525E+03   -0.44540E-03   -0.44552E-03   768   0.148E-02 0.328E-05
CGA:  11    -0.662933334503E+03   -0.24698E-03   -0.24697E-03   768   0.518E-03-0.107E-05
CGA:  12    -0.662933446456E+03   -0.11195E-03   -0.11188E-03   768   0.343E-03 0.182E-05
CGA:  13    -0.662933505250E+03   -0.58794E-04   -0.58793E-04   768   0.235E-03-0.303E-06
  31 F= -.66948768E+03 E0= -.66947207E+03  d E =-.167505E-01  mag=     1.1549
       N       E                     dE             d eps       ncg     rms          ort
SDA:   1    -0.662833580738E+03    0.99866E-01    0.00000E+00   768   0.279E+00 0.000E+00
CGA:   2    -0.662887271117E+03   -0.53690E-01   -0.53676E-01   768   0.181E+00 0.648E-03
CGA:   3    -0.662912903080E+03   -0.25632E-01   -0.25631E-01   768   0.899E-01-0.925E-04
CGA:   4    -0.662927103919E+03   -0.14201E-01   -0.14204E-01   768   0.252E-01 0.419E-04
CGA:   5    -0.662931344327E+03   -0.42404E-02   -0.42403E-02   768   0.964E-02 0.102E-05
CGA:   6    -0.662932932660E+03   -0.15883E-02   -0.15887E-02   768   0.455E-02 0.180E-04
CGA:   7    -0.662933685046E+03   -0.75239E-03   -0.75240E-03   768   0.244E-02 0.382E-05
CGA:   8    -0.662934127163E+03   -0.44212E-03   -0.44208E-03   768   0.119E-02 0.666E-05
CGA:   9    -0.662934364640E+03   -0.23748E-03   -0.23749E-03   768   0.566E-03-0.405E-06
CGA:  10    -0.662934455276E+03   -0.90635E-04   -0.90654E-04   768   0.282E-03 0.882E-06
  32 F= -.66948878E+03 E0= -.66947468E+03  d E =-.178418E-01  mag=     1.1284
       N       E                     dE             d eps       ncg     rms          ort
SDA:   1    -0.662833759589E+03    0.10061E+00    0.00000E+00   768   0.321E+00 0.000E+00
CGA:   2    -0.662891005334E+03   -0.57246E-01   -0.57245E-01   768   0.186E+00 0.434E-03
CGA:   3    -0.662919855359E+03   -0.28850E-01   -0.28831E-01   768   0.104E+00-0.389E-03
CGA:   4    -0.662936462435E+03   -0.16607E-01   -0.16611E-01   768   0.323E-01 0.105E-03
CGA:   5    -0.662941669798E+03   -0.52074E-02   -0.52067E-02   768   0.121E-01-0.103E-04
CGA:   6    -0.662943738658E+03   -0.20689E-02   -0.20690E-02   768   0.586E-02 0.293E-04
CGA:   7    -0.662944713371E+03   -0.97471E-03   -0.97470E-03   768   0.302E-02 0.334E-05
CGA:   8    -0.662945250402E+03   -0.53703E-03   -0.53699E-03   768   0.141E-02 0.797E-05
CGA:   9    -0.662945515314E+03   -0.26491E-03   -0.26493E-03   768   0.616E-03-0.672E-06
CGA:  10    -0.662945612649E+03   -0.97335E-04   -0.97359E-04   768   0.269E-03 0.129E-05
  33 F= -.66949996E+03 E0= -.66948599E+03  d E =-.111853E-01  mag=     1.1216
       N       E                     dE             d eps       ncg     rms          ort
SDA:   1    -0.662583711984E+03    0.36180E+00    0.00000E+00   768   0.106E+01 0.000E+00
CGA:   2    -0.662772633985E+03   -0.18892E+00   -0.18889E+00   768   0.616E+00 0.275E-02
CGA:   3    -0.662868562474E+03   -0.95928E-01   -0.95838E-01   768   0.345E+00-0.246E-02
CGA:   4    -0.662923374169E+03   -0.54812E-01   -0.54835E-01   768   0.106E+00 0.766E-03
CGA:   5    -0.662940691927E+03   -0.17318E-01   -0.17315E-01   768   0.395E-01-0.116E-03
CGA:   6    -0.662947467456E+03   -0.67755E-02   -0.67756E-02   768   0.191E-01 0.129E-03
CGA:   7    -0.662950652677E+03   -0.31852E-02   -0.31850E-02   768   0.982E-02-0.126E-04
CGA:   8    -0.662952402141E+03   -0.17495E-02   -0.17492E-02   768   0.450E-02 0.268E-04
CGA:   9    -0.662953253388E+03   -0.85125E-03   -0.85137E-03   768   0.191E-02-0.481E-05
CGA:  10    -0.662953554350E+03   -0.30096E-03   -0.30102E-03   768   0.819E-03 0.284E-05
CGA:  11    -0.662953690675E+03   -0.13632E-03   -0.13632E-03   768   0.279E-03-0.561E-06
CGA:  12    -0.662953741261E+03   -0.50586E-04   -0.50576E-04   768   0.134E-03 0.100E-05
  34 F= -.66950811E+03 E0= -.66949415E+03  d E =-.193319E-01  mag=     1.1197
       N       E                     dE             d eps       ncg     rms          ort
SDA:   1    -0.662796902563E+03    0.15679E+00    0.00000E+00   768   0.468E+00 0.000E+00
CGA:   2    -0.662888380004E+03   -0.91477E-01   -0.91454E-01   768   0.263E+00 0.624E-03
CGA:   3    -0.662931973960E+03   -0.43594E-01   -0.43585E-01   768   0.140E+00-0.639E-03
CGA:   4    -0.662952726534E+03   -0.20753E-01   -0.20766E-01   768   0.432E-01 0.180E-03
CGA:   5    -0.662959496715E+03   -0.67702E-02   -0.67688E-02   768   0.167E-01-0.288E-04
CGA:   6    -0.662962248217E+03   -0.27515E-02   -0.27518E-02   768   0.779E-02 0.307E-04
CGA:   7    -0.662963622667E+03   -0.13745E-02   -0.13745E-02   768   0.376E-02-0.742E-05
CGA:   8    -0.662964325141E+03   -0.70247E-03   -0.70233E-03   768   0.193E-02 0.634E-05
CGA:   9    -0.662964652555E+03   -0.32741E-03   -0.32741E-03   768   0.819E-03-0.130E-05
CGA:  10    -0.662964790429E+03   -0.13787E-03   -0.13789E-03   768   0.321E-03 0.339E-05
CGA:  11    -0.662964845710E+03   -0.55280E-04   -0.55281E-04   768   0.129E-03 0.123E-05
  35 F= -.66951897E+03 E0= -.66950462E+03  d E =-.108672E-01  mag=     1.1262
       N       E                     dE             d eps       ncg     rms          ort
SDA:   1    -0.662806341576E+03    0.15845E+00    0.00000E+00   768   0.449E+00 0.000E+00
CGA:   2    -0.662894975669E+03   -0.88634E-01   -0.88612E-01   768   0.250E+00 0.547E-03
CGA:   3    -0.662937236046E+03   -0.42260E-01   -0.42257E-01   768   0.132E+00-0.570E-03
CGA:   4    -0.662956923210E+03   -0.19687E-01   -0.19698E-01   768   0.407E-01 0.177E-03
CGA:   5    -0.662963240398E+03   -0.63172E-02   -0.63158E-02   768   0.161E-01-0.266E-04
CGA:   6    -0.662965885073E+03   -0.26447E-02   -0.26450E-02   768   0.753E-02 0.296E-04
CGA:   7    -0.662967209668E+03   -0.13246E-02   -0.13247E-02   768   0.357E-02-0.679E-05
CGA:   8    -0.662967895063E+03   -0.68539E-03   -0.68521E-03   768   0.180E-02 0.619E-05
CGA:   9    -0.662968197304E+03   -0.30224E-03   -0.30223E-03   768   0.791E-03-0.113E-05
CGA:  10    -0.662968328667E+03   -0.13136E-03   -0.13138E-03   768   0.295E-03 0.329E-05
CGA:  11    -0.662968381144E+03   -0.52477E-04   -0.52470E-04   768   0.119E-03 0.122E-05
  36 F= -.66952226E+03 E0= -.66950750E+03  d E =-.141563E-01  mag=     1.1346
       N       E                     dE             d eps       ncg     rms          ort
SDA:   1    -0.662927929618E+03    0.40399E-01    0.00000E+00   768   0.120E+00 0.000E+00
CGA:   2    -0.662954318296E+03   -0.26389E-01   -0.26387E-01   768   0.694E-01 0.286E-04
CGA:   3    -0.662966020900E+03   -0.11703E-01   -0.11702E-01   768   0.315E-01-0.404E-04
CGA:   4    -0.662970815880E+03   -0.47950E-02   -0.47959E-02   768   0.935E-02 0.196E-04
CGA:   5    -0.662972335027E+03   -0.15191E-02   -0.15191E-02   768   0.352E-02 0.354E-05
CGA:   6    -0.662972916780E+03   -0.58175E-03   -0.58180E-03   768   0.179E-02 0.526E-05
CGA:   7    -0.662973201414E+03   -0.28463E-03   -0.28462E-03   768   0.871E-03-0.241E-06
CGA:   8    -0.662973375173E+03   -0.17376E-03   -0.17372E-03   768   0.382E-03 0.938E-06
CGA:   9    -0.662973450693E+03   -0.75520E-04   -0.75521E-04   768   0.185E-03-0.722E-08
  37 F= -.66952733E+03 E0= -.66951257E+03  d E =-.506262E-02  mag=     1.1367
       N       E                     dE             d eps       ncg     rms          ort
SDA:   1    -0.662570780059E+03    0.40260E+00    0.00000E+00   768   0.108E+01 0.000E+00
CGA:   2    -0.662807440554E+03   -0.23666E+00   -0.23658E+00   768   0.633E+00 0.135E-02
CGA:   3    -0.662912437497E+03   -0.10500E+00   -0.10497E+00   768   0.290E+00-0.141E-02
CGA:   4    -0.662956185893E+03   -0.43748E-01   -0.43779E-01   768   0.851E-01 0.448E-03
CGA:   5    -0.662970177315E+03   -0.13991E-01   -0.13989E-01   768   0.337E-01-0.107E-03
CGA:   6    -0.662975517444E+03   -0.53401E-02   -0.53418E-02   768   0.160E-01 0.598E-04
CGA:   7    -0.662978216326E+03   -0.26989E-02   -0.26987E-02   768   0.767E-02-0.207E-04
CGA:   8    -0.662979752250E+03   -0.15359E-02   -0.15353E-02   768   0.347E-02 0.150E-04
CGA:   9    -0.662980406469E+03   -0.65422E-03   -0.65430E-03   768   0.172E-02-0.330E-05
CGA:  10    -0.662980668775E+03   -0.26231E-03   -0.26241E-03   768   0.669E-03 0.424E-05
CGA:  11    -0.662980789436E+03   -0.12066E-03   -0.12066E-03   768   0.222E-03 0.734E-06
CGA:  12    -0.662980829856E+03   -0.40420E-04   -0.40411E-04   768   0.113E-03 0.958E-06
  38 F= -.66953467E+03 E0= -.66951996E+03  d E =-.124086E-01  mag=     1.1418
       N       E                     dE             d eps       ncg     rms          ort
SDA:   1    -0.662912063657E+03    0.68726E-01    0.00000E+00   768   0.195E+00 0.000E+00
CGA:   2    -0.662955453176E+03   -0.43390E-01   -0.43393E-01   768   0.117E+00-0.565E-04
CGA:   3    -0.662974305464E+03   -0.18852E-01   -0.18854E-01   768   0.501E-01 0.387E-04
CGA:   4    -0.662981894171E+03   -0.75887E-02   -0.75876E-02   768   0.152E-01-0.109E-04
CGA:   5    -0.662984548244E+03   -0.26541E-02   -0.26541E-02   768   0.539E-02 0.839E-05
CGA:   6    -0.662985445087E+03   -0.89684E-03   -0.89678E-03   768   0.267E-02-0.522E-05
CGA:   7    -0.662985874778E+03   -0.42969E-03   -0.42970E-03   768   0.140E-02-0.248E-06
CGA:   8    -0.662986137210E+03   -0.26243E-03   -0.26248E-03   768   0.586E-03-0.247E-05
CGA:   9    -0.662986261875E+03   -0.12467E-03   -0.12464E-03   768   0.260E-03 0.491E-06
CGA:  10    -0.662986304222E+03   -0.42347E-04   -0.42341E-04   768   0.128E-03-0.389E-06
  39 F= -.66954025E+03 E0= -.66952587E+03  d E =-.558258E-02  mag=     1.1475
       N       E                     dE             d eps       ncg     rms          ort
SDA:   1    -0.662866363386E+03    0.11990E+00    0.00000E+00   768   0.322E+00 0.000E+00
CGA:   2    -0.662937741277E+03   -0.71378E-01   -0.71388E-01   768   0.194E+00-0.155E-03
CGA:   3    -0.662968771045E+03   -0.31030E-01   -0.31036E-01   768   0.831E-01 0.170E-03
CGA:   4    -0.662981312863E+03   -0.12542E-01   -0.12538E-01   768   0.255E-01-0.351E-04
CGA:   5    -0.662985614773E+03   -0.43019E-02   -0.43021E-02   768   0.966E-02 0.213E-04
CGA:   6    -0.662987148927E+03   -0.15342E-02   -0.15339E-02   768   0.455E-02-0.861E-05
CGA:   7    -0.662987910558E+03   -0.76163E-03   -0.76165E-03   768   0.225E-02 0.967E-06
CGA:   8    -0.662988352530E+03   -0.44197E-03   -0.44209E-03   768   0.986E-03-0.388E-05
CGA:   9    -0.662988550669E+03   -0.19814E-03   -0.19811E-03   768   0.488E-03 0.918E-06
CGA:  10    -0.662988625259E+03   -0.74590E-04   -0.74574E-04   768   0.205E-03-0.633E-06
  40 F= -.66954271E+03 E0= -.66952874E+03  d E =-.803465E-02  mag=     1.1549
       N       E                     dE             d eps       ncg     rms          ort
SDA:   1    -0.662945025614E+03    0.43525E-01    0.00000E+00   768   0.130E+00 0.000E+00
CGA:   2    -0.662971370584E+03   -0.26345E-01   -0.26347E-01   768   0.764E-01-0.488E-04
CGA:   3    -0.662983629226E+03   -0.12259E-01   -0.12261E-01   768   0.339E-01 0.574E-04
CGA:   4    -0.662988852645E+03   -0.52234E-02   -0.52225E-02   768   0.108E-01-0.125E-04
CGA:   5    -0.662990623006E+03   -0.17704E-02   -0.17705E-02   768   0.436E-02 0.436E-05
CGA:   6    -0.662991330939E+03   -0.70793E-03   -0.70783E-03   768   0.207E-02-0.585E-05
CGA:   7    -0.662991690398E+03   -0.35946E-03   -0.35946E-03   768   0.996E-03-0.206E-05
CGA:   8    -0.662991886976E+03   -0.19658E-03   -0.19667E-03   768   0.449E-03-0.333E-05
CGA:   9    -0.662991968502E+03   -0.81526E-04   -0.81524E-04   768   0.213E-03 0.633E-07
  41 F= -.66954609E+03 E0= -.66953218E+03  d E =-.338346E-02  mag=     1.1565
       N       E                     dE             d eps       ncg     rms          ort
SDA:   1    -0.662574125170E+03    0.41776E+00    0.00000E+00   768   0.116E+01 0.000E+00
CGA:   2    -0.662811077389E+03   -0.23695E+00   -0.23698E+00   768   0.683E+00-0.607E-03
CGA:   3    -0.662921336772E+03   -0.11026E+00   -0.11029E+00   768   0.300E+00 0.102E-02
CGA:   4    -0.662968076920E+03   -0.46740E-01   -0.46722E-01   768   0.932E-01-0.391E-03
CGA:   5    -0.662984201606E+03   -0.16125E-01   -0.16125E-01   768   0.364E-01 0.127E-03
CGA:   6    -0.662990223758E+03   -0.60222E-02   -0.60207E-02   768   0.183E-01-0.906E-04
CGA:   7    -0.662993225326E+03   -0.30016E-02   -0.30018E-02   768   0.889E-02 0.100E-04
CGA:   8    -0.662994950681E+03   -0.17254E-02   -0.17261E-02   768   0.370E-02-0.258E-04
CGA:   9    -0.662995688485E+03   -0.73780E-03   -0.73764E-03   768   0.162E-02 0.405E-05
CGA:  10    -0.662995936357E+03   -0.24787E-03   -0.24782E-03   768   0.692E-03-0.147E-05
CGA:  11    -0.662996049909E+03   -0.11355E-03   -0.11357E-03   768   0.214E-03 0.188E-05
CGA:  12    -0.662996093136E+03   -0.43226E-04   -0.43220E-04   768   0.971E-04 0.214E-06
  42 F= -.66955033E+03 E0= -.66953657E+03  d E =-.762628E-02  mag=     1.1614
       N       E                     dE             d eps       ncg     rms          ort
SDA:   1    -0.662924427249E+03    0.71623E-01    0.00000E+00   768   0.211E+00 0.000E+00
CGA:   2    -0.662966499013E+03   -0.42072E-01   -0.42073E-01   768   0.121E+00-0.493E-04
CGA:   3    -0.662986433784E+03   -0.19935E-01   -0.19936E-01   768   0.551E-01 0.413E-04
CGA:   4    -0.662995130248E+03   -0.86965E-02   -0.86952E-02   768   0.176E-01-0.335E-04
CGA:   5    -0.662998226184E+03   -0.30959E-02   -0.30959E-02   768   0.639E-02 0.816E-05
CGA:   6    -0.662999321391E+03   -0.10952E-02   -0.10952E-02   768   0.331E-02-0.879E-05
CGA:   7    -0.662999859089E+03   -0.53770E-03   -0.53771E-03   768   0.171E-02-0.319E-06
CGA:   8    -0.663000173760E+03   -0.31467E-03   -0.31473E-03   768   0.693E-03-0.424E-05
CGA:   9    -0.663000316989E+03   -0.14323E-03   -0.14324E-03   768   0.280E-03-0.335E-06
CGA:  10    -0.663000362274E+03   -0.45285E-04   -0.45274E-04   768   0.132E-03-0.773E-06
  43 F= -.66955474E+03 E0= -.66954081E+03  d E =-.440840E-02  mag=     1.1564
       N       E                     dE             d eps       ncg     rms          ort
SDA:   1    -0.662466412660E+03    0.53390E+00    0.00000E+00   768   0.150E+01 0.000E+00
CGA:   2    -0.662765030540E+03   -0.29862E+00   -0.29861E+00   768   0.855E+00-0.290E-03
CGA:   3    -0.662906951337E+03   -0.14192E+00   -0.14193E+00   768   0.386E+00 0.322E-04
CGA:   4    -0.662968273745E+03   -0.61322E-01   -0.61308E-01   768   0.122E+00-0.516E-03
CGA:   5    -0.662989991915E+03   -0.21718E-01   -0.21717E-01   768   0.434E-01 0.796E-04
CGA:   6    -0.662997954713E+03   -0.79628E-02   -0.79650E-02   768   0.213E-01-0.139E-03
CGA:   7    -0.663001537155E+03   -0.35824E-02   -0.35827E-02   768   0.123E-01 0.217E-04
CGA:   8    -0.663003550185E+03   -0.20130E-02   -0.20125E-02   768   0.491E-02-0.292E-04
CGA:   9    -0.663004560489E+03   -0.10103E-02   -0.10101E-02   768   0.173E-02 0.443E-05
CGA:  10    -0.663004880510E+03   -0.32002E-03   -0.32006E-03   768   0.813E-03-0.319E-05
CGA:  11    -0.663004993512E+03   -0.11300E-03   -0.11305E-03   768   0.295E-03 0.120E-05
CGA:  12    -0.663005051743E+03   -0.58231E-04   -0.58233E-04   768   0.102E-03-0.943E-07
  44 F= -.66955979E+03 E0= -.66954539E+03  d E =-.945562E-02  mag=     1.1421
       N       E                     dE             d eps       ncg     rms          ort
SDA:   1    -0.662974195726E+03    0.30798E-01    0.00000E+00   768   0.861E-01 0.000E+00
CGA:   2    -0.662996380221E+03   -0.22184E-01   -0.22186E-01   768   0.463E-01-0.203E-04
CGA:   3    -0.663003525832E+03   -0.71456E-02   -0.71467E-02   768   0.195E-01 0.833E-05
CGA:   4    -0.663006378839E+03   -0.28530E-02   -0.28525E-02   768   0.564E-02-0.206E-05
CGA:   5    -0.663007292396E+03   -0.91356E-03   -0.91361E-03   768   0.194E-02 0.173E-05
CGA:   6    -0.663007590935E+03   -0.29854E-03   -0.29848E-03   768   0.908E-03-0.157E-05
CGA:   7    -0.663007748105E+03   -0.15717E-03   -0.15717E-03   768   0.410E-03-0.191E-05
CGA:   8    -0.663007830813E+03   -0.82707E-04   -0.82770E-04   768   0.207E-03-0.227E-05
  45 F= -.66956270E+03 E0= -.66954818E+03  d E =-.290789E-02  mag=     1.1404
       N       E                     dE             d eps       ncg     rms          ort
SDA:   1    -0.662709654423E+03    0.29809E+00    0.00000E+00   768   0.774E+00 0.000E+00
CGA:   2    -0.662909166445E+03   -0.19951E+00   -0.19953E+00   768   0.411E+00-0.243E-03
CGA:   3    -0.662973661363E+03   -0.64495E-01   -0.64517E-01   768   0.171E+00 0.297E-03
CGA:   4    -0.662998726687E+03   -0.25065E-01   -0.25055E-01   768   0.489E-01-0.619E-04
CGA:   5    -0.663006998009E+03   -0.82713E-02   -0.82721E-02   768   0.165E-01 0.343E-04
CGA:   6    -0.663009688613E+03   -0.26906E-02   -0.26899E-02   768   0.811E-02-0.202E-04
CGA:   7    -0.663010997083E+03   -0.13085E-02   -0.13084E-02   768   0.381E-02-0.342E-05
CGA:   8    -0.663011727220E+03   -0.73014E-03   -0.73031E-03   768   0.172E-02-0.932E-05
CGA:   9    -0.663012090512E+03   -0.36329E-03   -0.36323E-03   768   0.831E-03 0.133E-05
CGA:  10    -0.663012226815E+03   -0.13630E-03   -0.13630E-03   768   0.418E-03-0.253E-06
CGA:  11    -0.663012295240E+03   -0.68425E-04   -0.68449E-04   768   0.136E-03 0.160E-05
  46 F= -.66956753E+03 E0= -.66955261E+03  d E =-.774338E-02  mag=     1.1360
       N       E                     dE             d eps       ncg     rms          ort
SDA:   1    -0.662929364976E+03    0.82862E-01    0.00000E+00   768   0.224E+00 0.000E+00
CGA:   2    -0.662986512462E+03   -0.57147E-01   -0.57139E-01   768   0.113E+00 0.875E-04
CGA:   3    -0.663006157452E+03   -0.19645E-01   -0.19644E-01   768   0.500E-01-0.390E-04
CGA:   4    -0.663013051981E+03   -0.68945E-02   -0.68970E-02   768   0.129E-01 0.540E-05
CGA:   5    -0.663015273369E+03   -0.22214E-02   -0.22213E-02   768   0.427E-02-0.150E-05
CGA:   6    -0.663016033284E+03   -0.75991E-03   -0.75992E-03   768   0.215E-02-0.856E-06
CGA:   7    -0.663016380901E+03   -0.34762E-03   -0.34751E-03   768   0.113E-02-0.451E-05
CGA:   8    -0.663016578607E+03   -0.19771E-03   -0.19770E-03   768   0.486E-03-0.136E-05
CGA:   9    -0.663016682405E+03   -0.10380E-03   -0.10380E-03   768   0.209E-03-0.121E-06
CGA:  10    -0.663016721463E+03   -0.39057E-04   -0.39047E-04   768   0.113E-03 0.161E-05
  47 F= -.66957214E+03 E0= -.66955739E+03  d E =-.460273E-02  mag=     1.1358
       N       E                     dE             d eps       ncg     rms          ort
SDA:   1    -0.662529017038E+03    0.48767E+00    0.00000E+00   768   0.126E+01 0.000E+00
CGA:   2    -0.662850731365E+03   -0.32171E+00   -0.32160E+00   768   0.632E+00 0.118E-02
CGA:   3    -0.662961781391E+03   -0.11105E+00   -0.11105E+00   768   0.277E+00-0.209E-03
CGA:   4    -0.663000159447E+03   -0.38378E-01   -0.38402E-01   768   0.714E-01 0.843E-04
CGA:   5    -0.663012651652E+03   -0.12492E-01   -0.12492E-01   768   0.233E-01-0.445E-04
CGA:   6    -0.663016986166E+03   -0.43345E-02   -0.43343E-02   768   0.110E-01 0.130E-04
CGA:   7    -0.663018878006E+03   -0.18918E-02   -0.18916E-02   768   0.624E-02-0.188E-04
CGA:   8    -0.663019880710E+03   -0.10027E-02   -0.10028E-02   768   0.276E-02 0.553E-06
CGA:   9    -0.663020452996E+03   -0.57229E-03   -0.57236E-03   768   0.107E-02-0.164E-05
CGA:  10    -0.663020677761E+03   -0.22477E-03   -0.22463E-03   768   0.528E-03 0.434E-05
CGA:  11    -0.663020753225E+03   -0.75464E-04   -0.75472E-04   768   0.219E-03 0.297E-06
  48 F= -.66957657E+03 E0= -.66956222E+03  d E =-.903839E-02  mag=     1.1363
       N       E                     dE             d eps       ncg     rms          ort
SDA:   1    -0.662987916200E+03    0.32762E-01    0.00000E+00   768   0.899E-01 0.000E+00
CGA:   2    -0.663010047499E+03   -0.22131E-01   -0.22131E-01   768   0.475E-01-0.362E-05
CGA:   3    -0.663018105092E+03   -0.80576E-02   -0.80569E-02   768   0.222E-01-0.274E-04
CGA:   4    -0.663021168257E+03   -0.30632E-02   -0.30640E-02   768   0.592E-02-0.335E-06
CGA:   5    -0.663022178537E+03   -0.10103E-02   -0.10103E-02   768   0.197E-02 0.107E-05
CGA:   6    -0.663022521021E+03   -0.34248E-03   -0.34249E-03   768   0.108E-02 0.477E-06
CGA:   7    -0.663022696124E+03   -0.17510E-03   -0.17507E-03   768   0.517E-03-0.130E-05
CGA:   8    -0.663022794900E+03   -0.98776E-04   -0.98779E-04   768   0.236E-03-0.285E-06
  49 F= -.66957874E+03 E0= -.66956449E+03  d E =-.217292E-02  mag=     1.1329
       N       E                     dE             d eps       ncg     rms          ort
SDA:   1    -0.662752392235E+03    0.27030E+00    0.00000E+00   768   0.702E+00 0.000E+00
CGA:   2    -0.662924334046E+03   -0.17194E+00   -0.17192E+00   768   0.378E+00 0.197E-03
CGA:   3    -0.662986919998E+03   -0.62586E-01   -0.62556E-01   768   0.180E+00-0.743E-03
CGA:   4    -0.663011403363E+03   -0.24483E-01   -0.24509E-01   768   0.472E-01 0.333E-04
CGA:   5    -0.663019479444E+03   -0.80761E-02   -0.80751E-02   768   0.178E-01-0.467E-04
CGA:   6    -0.663022281020E+03   -0.28016E-02   -0.28020E-02   768   0.841E-02 0.880E-05
CGA:   7    -0.663023786600E+03   -0.15056E-02   -0.15056E-02   768   0.393E-02-0.111E-04
CGA:   8    -0.663024534346E+03   -0.74775E-03   -0.74771E-03   768   0.192E-02 0.176E-05
CGA:   9    -0.663024897348E+03   -0.36300E-03   -0.36302E-03   768   0.934E-03-0.171E-05
CGA:  10    -0.663025051039E+03   -0.15369E-03   -0.15373E-03   768   0.392E-03 0.223E-05
CGA:  11    -0.663025121875E+03   -0.70836E-04   -0.70836E-04   768   0.145E-03 0.239E-06
  50 F= -.66958143E+03 E0= -.66956746E+03  d E =-.486209E-02  mag=     1.1229
       N       E                     dE             d eps       ncg     rms          ort
SDA:   1    -0.662986119867E+03    0.38931E-01    0.00000E+00   768   0.111E+00 0.000E+00
CGA:   2    -0.663010796526E+03   -0.24677E-01   -0.24675E-01   768   0.620E-01 0.127E-04
CGA:   3    -0.663020934105E+03   -0.10138E-01   -0.10136E-01   768   0.287E-01-0.391E-04
CGA:   4    -0.663025252183E+03   -0.43181E-02   -0.43185E-02   768   0.790E-02 0.676E-07
CGA:   5    -0.663026625129E+03   -0.13729E-02   -0.13729E-02   768   0.273E-02-0.197E-05
CGA:   6    -0.663027153507E+03   -0.52838E-03   -0.52838E-03   768   0.141E-02-0.607E-06
CGA:   7    -0.663027397674E+03   -0.24417E-03   -0.24415E-03   768   0.829E-03-0.186E-05
CGA:   8    -0.663027529258E+03   -0.13158E-03   -0.13159E-03   768   0.348E-03 0.753E-07
CGA:   9    -0.663027600237E+03   -0.70979E-04   -0.70989E-04   768   0.127E-03-0.359E-06
  51 F= -.66958395E+03 E0= -.66956996E+03  d E =-.252030E-02  mag=     1.1173
       N       E                     dE             d eps       ncg     rms          ort
SDA:   1    -0.662657478164E+03    0.37005E+00    0.00000E+00   768   0.995E+00 0.000E+00
CGA:   2    -0.662878712627E+03   -0.22123E+00   -0.22117E+00   768   0.563E+00 0.866E-03
CGA:   3    -0.662970047320E+03   -0.91335E-01   -0.91285E-01   768   0.262E+00-0.122E-02
CGA:   4    -0.663009329890E+03   -0.39283E-01   -0.39304E-01   768   0.713E-01 0.899E-04
CGA:   5    -0.663021728097E+03   -0.12398E-01   -0.12397E-01   768   0.267E-01-0.123E-03
CGA:   6    -0.663026375225E+03   -0.46471E-02   -0.46474E-02   768   0.140E-01 0.173E-04
CGA:   7    -0.663028687408E+03   -0.23122E-02   -0.23115E-02   768   0.722E-02-0.229E-04
CGA:   8    -0.663029976994E+03   -0.12896E-02   -0.12896E-02   768   0.297E-02 0.538E-05
CGA:   9    -0.663030588851E+03   -0.61186E-03   -0.61200E-03   768   0.125E-02-0.371E-05
CGA:  10    -0.663030795874E+03   -0.20702E-03   -0.20706E-03   768   0.594E-03 0.242E-05
CGA:  11    -0.663030887530E+03   -0.91656E-04   -0.91659E-04   768   0.191E-03 0.198E-06
  52 F= -.66958737E+03 E0= -.66957333E+03  d E =-.593601E-02  mag=     1.1023
       N       E                     dE             d eps       ncg     rms          ort
SDA:   1    -0.662952751356E+03    0.78045E-01    0.00000E+00   768   0.234E+00 0.000E+00
CGA:   2    -0.662996475711E+03   -0.43724E-01   -0.43723E-01   768   0.124E+00 0.576E-04
CGA:   3    -0.663017429082E+03   -0.20953E-01   -0.20951E-01   768   0.642E-01-0.138E-03
CGA:   4    -0.663027866961E+03   -0.10438E-01   -0.10439E-01   768   0.198E-01 0.523E-05
CGA:   5    -0.663031400842E+03   -0.35339E-02   -0.35339E-02   768   0.712E-02-0.147E-04
CGA:   6    -0.663032815661E+03   -0.14148E-02   -0.14147E-02   768   0.356E-02 0.197E-05
CGA:   7    -0.663033458028E+03   -0.64237E-03   -0.64237E-03   768   0.214E-02-0.444E-05
CGA:   8    -0.663033775756E+03   -0.31773E-03   -0.31779E-03   768   0.860E-03 0.106E-05
CGA:   9    -0.663033939798E+03   -0.16404E-03   -0.16406E-03   768   0.271E-03-0.794E-06
CGA:  10    -0.663033994937E+03   -0.55139E-04   -0.55117E-04   768   0.113E-03 0.875E-06
  53 F= -.66959048E+03 E0= -.66957643E+03  d E =-.311246E-02  mag=     1.0986
       N       E                     dE             d eps       ncg     rms          ort
SDA:   1    -0.662471560965E+03    0.56238E+00    0.00000E+00   768   0.164E+01 0.000E+00
CGA:   2    -0.662774927404E+03   -0.30337E+00   -0.30333E+00   768   0.869E+00 0.186E-02
CGA:   3    -0.662921413807E+03   -0.14649E+00   -0.14642E+00   768   0.452E+00-0.383E-02
CGA:   4    -0.662994468634E+03   -0.73055E-01   -0.73080E-01   768   0.139E+00 0.304E-03
CGA:   5    -0.663018981566E+03   -0.24513E-01   -0.24512E-01   768   0.538E-01-0.459E-03
CGA:   6    -0.663028589700E+03   -0.96081E-02   -0.96078E-02   768   0.281E-01 0.778E-04
CGA:   7    -0.663033220829E+03   -0.46311E-02   -0.46293E-02   768   0.150E-01-0.694E-04
CGA:   8    -0.663035782604E+03   -0.25618E-02   -0.25620E-02   768   0.566E-02 0.178E-04
CGA:   9    -0.663036916982E+03   -0.11344E-02   -0.11347E-02   768   0.211E-02-0.938E-05
CGA:  10    -0.663037269409E+03   -0.35243E-03   -0.35247E-03   768   0.980E-03 0.289E-05
CGA:  11    -0.663037415085E+03   -0.14568E-03   -0.14566E-03   768   0.316E-03-0.274E-06
CGA:  12    -0.663037479660E+03   -0.64575E-04   -0.64529E-04   768   0.132E-03 0.165E-05
  54 F= -.66959399E+03 E0= -.66957993E+03  d E =-.662416E-02  mag=     1.0911
       N       E                     dE             d eps       ncg     rms          ort
SDA:   1    -0.662928969460E+03    0.10845E+00    0.00000E+00   768   0.321E+00 0.000E+00
CGA:   2    -0.662988227793E+03   -0.59258E-01   -0.59255E-01   768   0.170E+00 0.152E-03
CGA:   3    -0.663016961482E+03   -0.28734E-01   -0.28728E-01   768   0.905E-01-0.366E-03
CGA:   4    -0.663031582398E+03   -0.14621E-01   -0.14623E-01   768   0.283E-01 0.286E-04
CGA:   5    -0.663036508040E+03   -0.49256E-02   -0.49255E-02   768   0.107E-01-0.407E-04
CGA:   6    -0.663038320035E+03   -0.18120E-02   -0.18121E-02   768   0.563E-02 0.688E-05
CGA:   7    -0.663039265518E+03   -0.94548E-03   -0.94538E-03   768   0.289E-02-0.584E-05
CGA:   8    -0.663039784552E+03   -0.51903E-03   -0.51902E-03   768   0.114E-02 0.324E-05
CGA:   9    -0.663040011052E+03   -0.22650E-03   -0.22654E-03   768   0.478E-03-0.131E-05
CGA:  10    -0.663040085994E+03   -0.74942E-04   -0.74956E-04   768   0.213E-03 0.638E-06
  55 F= -.66959671E+03 E0= -.66958278E+03  d E =-.271812E-02  mag=     1.0852
       N       E                     dE             d eps       ncg     rms          ort
SDA:   1    -0.662980559473E+03    0.59452E-01    0.00000E+00   768   0.173E+00 0.000E+00
CGA:   2    -0.663012636486E+03   -0.32077E-01   -0.32076E-01   768   0.917E-01 0.562E-04
CGA:   3    -0.663028217649E+03   -0.15581E-01   -0.15580E-01   768   0.484E-01-0.149E-03
CGA:   4    -0.663036062090E+03   -0.78444E-02   -0.78452E-02   768   0.152E-01 0.102E-04
CGA:   5    -0.663038647211E+03   -0.25851E-02   -0.25850E-02   768   0.594E-02-0.151E-04
CGA:   6    -0.663039662497E+03   -0.10153E-02   -0.10153E-02   768   0.309E-02 0.268E-05
CGA:   7    -0.663040181044E+03   -0.51855E-03   -0.51851E-03   768   0.159E-02-0.234E-05
CGA:   8    -0.663040466150E+03   -0.28511E-03   -0.28509E-03   768   0.622E-03 0.192E-05
CGA:   9    -0.663040588949E+03   -0.12280E-03   -0.12282E-03   768   0.267E-03-0.666E-06
CGA:  10    -0.663040630825E+03   -0.41877E-04   -0.41886E-04   768   0.119E-03 0.472E-06
  56 F= -.66959734E+03 E0= -.66958351E+03  d E =-.334758E-02  mag=     1.0806
       N       E                     dE             d eps       ncg     rms          ort
SDA:   1    -0.662915108121E+03    0.12548E+00    0.00000E+00   768   0.352E+00 0.000E+00
CGA:   2    -0.662990412418E+03   -0.75304E-01   -0.75293E-01   768   0.196E+00 0.168E-03
CGA:   3    -0.663021960727E+03   -0.31548E-01   -0.31541E-01   768   0.900E-01-0.260E-03
CGA:   4    -0.663035948089E+03   -0.13987E-01   -0.13990E-01   768   0.260E-01 0.226E-04
CGA:   5    -0.663040412659E+03   -0.44646E-02   -0.44644E-02   768   0.942E-02-0.250E-04
CGA:   6    -0.663042091892E+03   -0.16792E-02   -0.16792E-02   768   0.495E-02 0.338E-05
CGA:   7    -0.663042904717E+03   -0.81282E-03   -0.81271E-03   768   0.267E-02-0.611E-05
CGA:   8    -0.663043368480E+03   -0.46376E-03   -0.46376E-03   768   0.106E-02 0.153E-05
CGA:   9    -0.663043588493E+03   -0.22001E-03   -0.22006E-03   768   0.432E-03-0.102E-05
CGA:  10    -0.663043662416E+03   -0.73923E-04   -0.73929E-04   768   0.214E-03 0.131E-05
  57 F= -.66960048E+03 E0= -.66958680E+03  d E =-.313787E-02  mag=     1.0760
       N       E                     dE             d eps       ncg     rms          ort
SDA:   1    -0.662573704030E+03    0.46988E+00    0.00000E+00   768   0.129E+01 0.000E+00
CGA:   2    -0.662850034061E+03   -0.27633E+00   -0.27624E+00   768   0.720E+00 0.133E-02
CGA:   3    -0.662965862207E+03   -0.11583E+00   -0.11578E+00   768   0.331E+00-0.186E-02
CGA:   4    -0.663017217064E+03   -0.51355E-01   -0.51372E-01   768   0.957E-01 0.165E-03
CGA:   5    -0.663033754074E+03   -0.16537E-01   -0.16536E-01   768   0.345E-01-0.203E-03
CGA:   6    -0.663039895175E+03   -0.61411E-02   -0.61408E-02   768   0.180E-01 0.342E-04
CGA:   7    -0.663042870496E+03   -0.29753E-02   -0.29747E-02   768   0.973E-02-0.335E-04
CGA:   8    -0.663044550547E+03   -0.16801E-02   -0.16801E-02   768   0.385E-02 0.923E-05
CGA:   9    -0.663045350965E+03   -0.80042E-03   -0.80067E-03   768   0.155E-02-0.553E-05
CGA:  10    -0.663045617083E+03   -0.26612E-03   -0.26613E-03   768   0.767E-03 0.290E-05
CGA:  11    -0.663045731028E+03   -0.11395E-03   -0.11394E-03   768   0.250E-03-0.163E-07
CGA:  12    -0.663045782369E+03   -0.51340E-04   -0.51297E-04   768   0.104E-03 0.140E-05
  58 F= -.66960280E+03 E0= -.66958943E+03  d E =-.546159E-02  mag=     1.0676
       N       E                     dE             d eps       ncg     rms          ort
SDA:   1    -0.662831465953E+03    0.21427E+00    0.00000E+00   768   0.576E+00 0.000E+00
CGA:   2    -0.662970920145E+03   -0.13945E+00   -0.13941E+00   768   0.308E+00 0.491E-03
CGA:   3    -0.663018891458E+03   -0.47971E-01   -0.47946E-01   768   0.138E+00-0.493E-03
CGA:   4    -0.663039113347E+03   -0.20222E-01   -0.20230E-01   768   0.375E-01 0.342E-04
CGA:   5    -0.663045280488E+03   -0.61671E-02   -0.61662E-02   768   0.130E-01-0.345E-04
CGA:   6    -0.663047387316E+03   -0.21068E-02   -0.21070E-02   768   0.661E-02 0.348E-05
CGA:   7    -0.663048508316E+03   -0.11210E-02   -0.11209E-02   768   0.307E-02-0.772E-05
CGA:   8    -0.663049091989E+03   -0.58367E-03   -0.58363E-03   768   0.140E-02 0.183E-05
CGA:   9    -0.663049367338E+03   -0.27535E-03   -0.27538E-03   768   0.704E-03-0.113E-05
CGA:  10    -0.663049479184E+03   -0.11185E-03   -0.11188E-03   768   0.308E-03 0.197E-05
CGA:  11    -0.663049534040E+03   -0.54857E-04   -0.54856E-04   768   0.109E-03 0.437E-06
  59 F= -.66960677E+03 E0= -.66959347E+03  d E =-.396621E-02  mag=     1.0646
       N       E                     dE             d eps       ncg     rms          ort
SDA:   1    -0.662496954716E+03    0.55252E+00    0.00000E+00   768   0.146E+01 0.000E+00
CGA:   2    -0.662852510981E+03   -0.35556E+00   -0.35540E+00   768   0.773E+00 0.166E-02
CGA:   3    -0.662974770713E+03   -0.12226E+00   -0.12218E+00   768   0.344E+00-0.164E-02
CGA:   4    -0.663025233394E+03   -0.50463E-01   -0.50495E-01   768   0.933E-01 0.151E-03
CGA:   5    -0.663040767241E+03   -0.15534E-01   -0.15530E-01   768   0.317E-01-0.150E-03
CGA:   6    -0.663046117596E+03   -0.53504E-02   -0.53507E-02   768   0.165E-01 0.199E-04
CGA:   7    -0.663048809840E+03   -0.26922E-02   -0.26917E-02   768   0.792E-02-0.212E-04
CGA:   8    -0.663050269942E+03   -0.14601E-02   -0.14600E-02   768   0.341E-02 0.710E-05
CGA:   9    -0.663050977719E+03   -0.70778E-03   -0.70795E-03   768   0.162E-02-0.389E-05
CGA:  10    -0.663051240258E+03   -0.26254E-03   -0.26260E-03   768   0.778E-03 0.335E-05
CGA:  11    -0.663051368630E+03   -0.12837E-03   -0.12838E-03   768   0.255E-03 0.463E-06
CGA:  12    -0.663051419808E+03   -0.51178E-04   -0.51144E-04   768   0.119E-03 0.145E-05
  60 F= -.66960900E+03 E0= -.66959580E+03  d E =-.619776E-02  mag=     1.0607
       N       E                     dE             d eps       ncg     rms          ort
SDA:   1    -0.662904661648E+03    0.14671E+00    0.00000E+00   768   0.394E+00 0.000E+00
CGA:   2    -0.663000924279E+03   -0.96263E-01   -0.96251E-01   768   0.211E+00 0.826E-04
CGA:   3    -0.663033077188E+03   -0.32153E-01   -0.32132E-01   768   0.964E-01-0.313E-03
CGA:   4    -0.663046895514E+03   -0.13818E-01   -0.13823E-01   768   0.267E-01 0.212E-05
CGA:   5    -0.663051197763E+03   -0.43022E-02   -0.43016E-02   768   0.896E-02-0.142E-04
CGA:   6    -0.663052617016E+03   -0.14193E-02   -0.14194E-02   768   0.424E-02 0.370E-05
CGA:   7    -0.663053385554E+03   -0.76854E-03   -0.76857E-03   768   0.198E-02-0.275E-05
CGA:   8    -0.663053746542E+03   -0.36099E-03   -0.36097E-03   768   0.973E-03 0.179E-05
CGA:   9    -0.663053931716E+03   -0.18517E-03   -0.18519E-03   768   0.487E-03-0.546E-06
CGA:  10    -0.663054014077E+03   -0.82362E-04   -0.82372E-04   768   0.210E-03 0.145E-05
  61 F= -.66961190E+03 E0= -.66959872E+03  d E =-.290477E-02  mag=     1.0588
       N       E                     dE             d eps       ncg     rms          ort
SDA:   1    -0.662947197302E+03    0.10673E+00    0.00000E+00   768   0.283E+00 0.000E+00
CGA:   2    -0.663016346498E+03   -0.69149E-01   -0.69142E-01   768   0.152E+00 0.545E-04
CGA:   3    -0.663039514343E+03   -0.23168E-01   -0.23155E-01   768   0.688E-01-0.196E-03
CGA:   4    -0.663049457705E+03   -0.99434E-02   -0.99454E-02   768   0.192E-01-0.231E-05
CGA:   5    -0.663052464977E+03   -0.30073E-02   -0.30068E-02   768   0.669E-02-0.612E-05
CGA:   6    -0.663053543771E+03   -0.10788E-02   -0.10789E-02   768   0.305E-02 0.261E-05
CGA:   7    -0.663054103027E+03   -0.55926E-03   -0.55928E-03   768   0.147E-02-0.181E-05
CGA:   8    -0.663054367126E+03   -0.26410E-03   -0.26409E-03   768   0.717E-03 0.135E-05
CGA:   9    -0.663054502251E+03   -0.13513E-03   -0.13513E-03   768   0.358E-03-0.297E-06
CGA:  10    -0.663054564156E+03   -0.61904E-04   -0.61909E-04   768   0.153E-03 0.125E-05
  62 F= -.66961271E+03 E0= -.66959953E+03  d E =-.371441E-02  mag=     1.0571
       N       E                     dE             d eps       ncg     rms          ort
SDA:   1    -0.662941814079E+03    0.11269E+00    0.00000E+00   768   0.302E+00 0.000E+00
CGA:   2    -0.663020451401E+03   -0.78637E-01   -0.78618E-01   768   0.148E+00 0.162E-03
CGA:   3    -0.663043370637E+03   -0.22919E-01   -0.22910E-01   768   0.656E-01-0.156E-03
CGA:   4    -0.663052686001E+03   -0.93154E-02   -0.93178E-02   768   0.177E-01-0.196E-05
CGA:   5    -0.663055411821E+03   -0.27258E-02   -0.27254E-02   768   0.601E-02-0.591E-05
CGA:   6    -0.663056361540E+03   -0.94972E-03   -0.94972E-03   768   0.270E-02-0.100E-05
CGA:   7    -0.663056840010E+03   -0.47847E-03   -0.47848E-03   768   0.121E-02-0.329E-05
CGA:   8    -0.663057064719E+03   -0.22471E-03   -0.22471E-03   768   0.598E-03 0.221E-06
CGA:   9    -0.663057177237E+03   -0.11252E-03   -0.11253E-03   768   0.318E-03-0.481E-06
CGA:  10    -0.663057231641E+03   -0.54404E-04   -0.54410E-04   768   0.135E-03 0.118E-05
  63 F= -.66961566E+03 E0= -.66960243E+03  d E =-.294530E-02  mag=     1.0577
       N       E                     dE             d eps       ncg     rms          ort
SDA:   1    -0.662638885255E+03    0.41829E+00    0.00000E+00   768   0.110E+01 0.000E+00
CGA:   2    -0.662925268271E+03   -0.28638E+00   -0.28626E+00   768   0.533E+00 0.106E-02
CGA:   3    -0.663008821121E+03   -0.83553E-01   -0.83499E-01   768   0.236E+00-0.970E-03
CGA:   4    -0.663042272377E+03   -0.33451E-01   -0.33472E-01   768   0.637E-01 0.362E-04
CGA:   5    -0.663052258551E+03   -0.99862E-02   -0.99830E-02   768   0.213E-01-0.616E-04
CGA:   6    -0.663055608462E+03   -0.33499E-02   -0.33501E-02   768   0.986E-02 0.148E-05
CGA:   7    -0.663057317750E+03   -0.17093E-02   -0.17092E-02   768   0.432E-02-0.106E-04
CGA:   8    -0.663058126050E+03   -0.80830E-03   -0.80826E-03   768   0.208E-02 0.224E-05
CGA:   9    -0.663058525905E+03   -0.39985E-03   -0.39989E-03   768   0.112E-02-0.176E-05
CGA:  10    -0.663058711423E+03   -0.18552E-03   -0.18555E-03   768   0.473E-03 0.235E-05
CGA:  11    -0.663058798999E+03   -0.87575E-04   -0.87574E-04   768   0.189E-03 0.256E-06
  64 F= -.66961774E+03 E0= -.66960442E+03  d E =-.502117E-02  mag=     1.0595
       N       E                     dE             d eps       ncg     rms          ort
SDA:   1    -0.662885777399E+03    0.17293E+00    0.00000E+00   768   0.470E+00 0.000E+00
CGA:   2    -0.663004081013E+03   -0.11830E+00   -0.11828E+00   768   0.230E+00 0.272E-03
CGA:   3    -0.663040066059E+03   -0.35985E-01   -0.35973E-01   768   0.977E-01-0.234E-03
CGA:   4    -0.663054553930E+03   -0.14488E-01   -0.14492E-01   768   0.272E-01 0.125E-04
CGA:   5    -0.663058892870E+03   -0.43389E-02   -0.43381E-02   768   0.846E-02-0.186E-04
[...]
CGA:   7    -0.663105147984E+03   -0.27763E-03   -0.27758E-03   768   0.653E-03-0.150E-05
CGA:   8    -0.663105254424E+03   -0.10644E-03   -0.10643E-03   768   0.346E-03-0.517E-06
CGA:   9    -0.663105324647E+03   -0.70222E-04   -0.70185E-04   768   0.150E-03 0.152E-05
  88 F= -.66967324E+03 E0= -.66965977E+03  d E =-.332188E-02  mag=     1.0644
       N       E                     dE             d eps       ncg     rms          ort
SDA:   1    -0.663052277410E+03    0.52977E-01    0.00000E+00   768   0.145E+00 0.000E+00
CGA:   2    -0.663093635538E+03   -0.41358E-01   -0.41354E-01   768   0.505E-01 0.355E-04
CGA:   3    -0.663102500042E+03   -0.88645E-02   -0.88647E-02   768   0.263E-01 0.794E-05
CGA:   4    -0.663105537167E+03   -0.30371E-02   -0.30381E-02   768   0.614E-02 0.652E-05
CGA:   5    -0.663106524553E+03   -0.98739E-03   -0.98733E-03   768   0.157E-02-0.228E-05
CGA:   6    -0.663106792182E+03   -0.26763E-03   -0.26760E-03   768   0.647E-03-0.234E-05
CGA:   7    -0.663106898703E+03   -0.10652E-03   -0.10649E-03   768   0.251E-03-0.172E-05
CGA:   8    -0.663106936740E+03   -0.38038E-04   -0.38019E-04   768   0.123E-03-0.665E-06
  89 F= -.66967495E+03 E0= -.66966149E+03  d E =-.171367E-02  mag=     1.0660
       N       E                     dE             d eps       ncg     rms          ort
SDA:   1    -0.662752039515E+03    0.35486E+00    0.00000E+00   768   0.949E+00 0.000E+00
CGA:   2    -0.663019443733E+03   -0.26740E+00   -0.26734E+00   768   0.360E+00 0.679E-03
CGA:   3    -0.663074636813E+03   -0.55193E-01   -0.55181E-01   768   0.198E+00-0.932E-04
CGA:   4    -0.663098812446E+03   -0.24176E-01   -0.24198E-01   768   0.397E-01 0.276E-04
CGA:   5    -0.663105866459E+03   -0.70540E-02   -0.70540E-02   768   0.867E-02-0.429E-05
CGA:   6    -0.663107520997E+03   -0.16545E-02   -0.16546E-02   768   0.414E-02-0.733E-05
CGA:   7    -0.663108089865E+03   -0.56887E-03   -0.56866E-03   768   0.146E-02-0.376E-05
CGA:   8    -0.663108335469E+03   -0.24560E-03   -0.24559E-03   768   0.681E-03-0.171E-05
CGA:   9    -0.663108480526E+03   -0.14506E-03   -0.14499E-03   768   0.320E-03 0.201E-05
CGA:  10    -0.663108543874E+03   -0.63348E-04   -0.63347E-04   768   0.233E-03 0.618E-07
  90 F= -.66967681E+03 E0= -.66966335E+03  d E =-.356774E-02  mag=     1.0697
       N       E                     dE             d eps       ncg     rms          ort
SDA:   1    -0.663056354130E+03    0.52126E-01    0.00000E+00   768   0.143E+00 0.000E+00
CGA:   2    -0.663097100453E+03   -0.40746E-01   -0.40745E-01   768   0.511E-01 0.147E-04
CGA:   3    -0.663105569291E+03   -0.84688E-02   -0.84689E-02   768   0.275E-01-0.742E-06
CGA:   4    -0.663108796707E+03   -0.32274E-02   -0.32289E-02   768   0.608E-02 0.598E-05
CGA:   5    -0.663109786561E+03   -0.98985E-03   -0.98982E-03   768   0.144E-02-0.148E-05
CGA:   6    -0.663110055825E+03   -0.26926E-03   -0.26928E-03   768   0.604E-03-0.158E-05
CGA:   7    -0.663110148114E+03   -0.92288E-04   -0.92257E-04   768   0.254E-03-0.110E-05
  91 F= -.66967851E+03 E0= -.66966502E+03  d E =-.170098E-02  mag=     1.0706
       N       E                     dE             d eps       ncg     rms          ort
SDA:   1    -0.662627388574E+03    0.48267E+00    0.00000E+00   768   0.128E+01 0.000E+00
CGA:   2    -0.662995273234E+03   -0.36788E+00   -0.36785E+00   768   0.437E+00 0.400E-03
CGA:   3    -0.663075503834E+03   -0.80231E-01   -0.80230E-01   768   0.208E+00 0.268E-03
CGA:   4    -0.663099308697E+03   -0.23805E-01   -0.23825E-01   768   0.580E-01 0.410E-05
CGA:   5    -0.663108282414E+03   -0.89737E-02   -0.89727E-02   768   0.119E-01-0.121E-04
CGA:   6    -0.663110629064E+03   -0.23467E-02   -0.23468E-02   768   0.515E-02-0.810E-05
CGA:   7    -0.663111381818E+03   -0.75275E-03   -0.75263E-03   768   0.197E-02-0.302E-05
CGA:   8    -0.663111704996E+03   -0.32318E-03   -0.32317E-03   768   0.971E-03-0.110E-05
CGA:   9    -0.663111902761E+03   -0.19776E-03   -0.19771E-03   768   0.444E-03 0.219E-05
CGA:  10    -0.663111996455E+03   -0.93693E-04   -0.93697E-04   768   0.308E-03-0.163E-06
  92 F= -.66968064E+03 E0= -.66966704E+03  d E =-.382927E-02  mag=     1.0716
       N       E                     dE             d eps       ncg     rms          ort
SDA:   1    -0.663020837124E+03    0.91066E-01    0.00000E+00   768   0.245E+00 0.000E+00
CGA:   2    -0.663091259344E+03   -0.70422E-01   -0.70442E-01   768   0.832E-01-0.159E-03
CGA:   3    -0.663106617988E+03   -0.15359E-01   -0.15359E-01   768   0.398E-01 0.234E-04
CGA:   4    -0.663111122483E+03   -0.45045E-02   -0.45071E-02   768   0.106E-01 0.548E-05
CGA:   5    -0.663112769423E+03   -0.16469E-02   -0.16468E-02   768   0.229E-02-0.163E-05
CGA:   6    -0.663113220113E+03   -0.45069E-03   -0.45070E-03   768   0.954E-03-0.623E-06
CGA:   7    -0.663113365523E+03   -0.14541E-03   -0.14540E-03   768   0.389E-03-0.515E-06
CGA:   8    -0.663113425299E+03   -0.59776E-04   -0.59774E-04   768   0.180E-03-0.101E-06
  93 F= -.66968223E+03 E0= -.66966857E+03  d E =-.159019E-02  mag=     1.0716
       N       E                     dE             d eps       ncg     rms          ort
SDA:   1    -0.663034249144E+03    0.79116E-01    0.00000E+00   768   0.210E+00 0.000E+00
CGA:   2    -0.663094568840E+03   -0.60320E-01   -0.60336E-01   768   0.719E-01-0.135E-03
CGA:   3    -0.663108013908E+03   -0.13445E-01   -0.13445E-01   768   0.329E-01 0.215E-04
CGA:   4    -0.663111740369E+03   -0.37265E-02   -0.37280E-02   768   0.924E-02 0.596E-05
CGA:   5    -0.663113208822E+03   -0.14685E-02   -0.14684E-02   768   0.198E-02-0.157E-05
CGA:   6    -0.663113579654E+03   -0.37083E-03   -0.37084E-03   768   0.925E-03-0.543E-06
CGA:   7    -0.663113718303E+03   -0.13865E-03   -0.13863E-03   768   0.312E-03-0.558E-06
CGA:   8    -0.663113770985E+03   -0.52682E-04   -0.52681E-04   768   0.183E-03-0.625E-07
  94 F= -.66968272E+03 E0= -.66966902E+03  d E =-.208409E-02  mag=     1.0715
       N       E                     dE             d eps       ncg     rms          ort
SDA:   1    -0.663005070645E+03    0.10865E+00    0.00000E+00   768   0.292E+00 0.000E+00
CGA:   2    -0.663089042367E+03   -0.83972E-01   -0.83972E-01   768   0.106E+00 0.900E-05
CGA:   3    -0.663106183571E+03   -0.17141E-01   -0.17140E-01   768   0.582E-01-0.249E-04
CGA:   4    -0.663112896628E+03   -0.67131E-02   -0.67182E-02   768   0.119E-01 0.603E-05
CGA:   5    -0.663115068859E+03   -0.21722E-02   -0.21722E-02   768   0.238E-02-0.507E-05
CGA:   6    -0.663115569547E+03   -0.50069E-03   -0.50076E-03   768   0.120E-02-0.232E-05
CGA:   7    -0.663115718287E+03   -0.14874E-03   -0.14867E-03   768   0.402E-03-0.107E-05
CGA:   8    -0.663115796077E+03   -0.77790E-04   -0.77794E-04   768   0.202E-03-0.256E-06
  95 F= -.66968488E+03 E0= -.66967112E+03  d E =-.215964E-02  mag=     1.0735
       N       E                     dE             d eps       ncg     rms          ort
SDA:   1    -0.662716285963E+03    0.39943E+00    0.00000E+00   768   0.106E+01 0.000E+00
CGA:   2    -0.663020447354E+03   -0.30416E+00   -0.30417E+00   768   0.383E+00 0.580E-04
CGA:   3    -0.663082654090E+03   -0.62207E-01   -0.62199E-01   768   0.208E+00-0.120E-03
CGA:   4    -0.663106639749E+03   -0.23986E-01   -0.24018E-01   768   0.435E-01-0.193E-04
CGA:   5    -0.663114417495E+03   -0.77777E-02   -0.77777E-02   768   0.878E-02-0.153E-04
CGA:   6    -0.663116208449E+03   -0.17910E-02   -0.17911E-02   768   0.435E-02-0.483E-05
CGA:   7    -0.663116763566E+03   -0.55512E-03   -0.55494E-03   768   0.144E-02-0.191E-05
CGA:   8    -0.663117029216E+03   -0.26565E-03   -0.26565E-03   768   0.721E-03-0.424E-06
CGA:   9    -0.663117173731E+03   -0.14452E-03   -0.14446E-03   768   0.334E-03 0.254E-05
CGA:  10    -0.663117242511E+03   -0.68780E-04   -0.68780E-04   768   0.253E-03-0.329E-07
  96 F= -.66968658E+03 E0= -.66967271E+03  d E =-.385517E-02  mag=     1.0776
       N       E                     dE             d eps       ncg     rms          ort
SDA:   1    -0.662984576758E+03    0.13260E+00    0.00000E+00   768   0.354E+00 0.000E+00
CGA:   2    -0.663086006978E+03   -0.10143E+00   -0.10141E+00   768   0.138E+00 0.235E-03
CGA:   3    -0.663106202049E+03   -0.20195E-01   -0.20188E-01   768   0.750E-01-0.370E-04
CGA:   4    -0.663115531988E+03   -0.93299E-02   -0.93360E-02   768   0.143E-01 0.168E-04
CGA:   5    -0.663118117877E+03   -0.25859E-02   -0.25859E-02   768   0.301E-02-0.541E-05
CGA:   6    -0.663118731327E+03   -0.61345E-03   -0.61352E-03   768   0.147E-02-0.316E-05
CGA:   7    -0.663118919900E+03   -0.18857E-03   -0.18846E-03   768   0.511E-03-0.192E-05
CGA:   8    -0.663119010644E+03   -0.90744E-04   -0.90743E-04   768   0.239E-03-0.830E-06
  97 F= -.66968848E+03 E0= -.66967464E+03  d E =-.190710E-02  mag=     1.0805
       N       E                     dE             d eps       ncg     rms          ort
SDA:   1    -0.663040080357E+03    0.78840E-01    0.00000E+00   768   0.209E+00 0.000E+00
CGA:   2    -0.663099601484E+03   -0.59521E-01   -0.59510E-01   768   0.839E-01 0.106E-03
CGA:   3    -0.663111663592E+03   -0.12062E-01   -0.12058E-01   768   0.446E-01-0.161E-04
CGA:   4    -0.663117282948E+03   -0.56194E-02   -0.56223E-02   768   0.851E-02 0.137E-04
CGA:   5    -0.663118876779E+03   -0.15938E-02   -0.15939E-02   768   0.189E-02-0.426E-05
CGA:   6    -0.663119240005E+03   -0.36323E-03   -0.36325E-03   768   0.986E-03-0.226E-05
CGA:   7    -0.663119372052E+03   -0.13205E-03   -0.13196E-03   768   0.322E-03-0.169E-05
CGA:   8    -0.663119429720E+03   -0.57668E-04   -0.57668E-04   768   0.178E-03-0.652E-06
  98 F= -.66968901E+03 E0= -.66967518E+03  d E =-.243139E-02  mag=     1.0828
       N       E                     dE             d eps       ncg     rms          ort
SDA:   1    -0.663040952180E+03    0.78420E-01    0.00000E+00   768   0.211E+00 0.000E+00
CGA:   2    -0.663101476423E+03   -0.60524E-01   -0.60535E-01   768   0.763E-01-0.790E-04
CGA:   3    -0.663114111931E+03   -0.12636E-01   -0.12635E-01   768   0.407E-01-0.692E-05
CGA:   4    -0.663118727559E+03   -0.46156E-02   -0.46194E-02   768   0.875E-02 0.546E-05
CGA:   5    -0.663120308905E+03   -0.15813E-02   -0.15813E-02   768   0.178E-02-0.304E-05
CGA:   6    -0.663120677259E+03   -0.36835E-03   -0.36838E-03   768   0.899E-03-0.109E-05
CGA:   7    -0.663120792170E+03   -0.11491E-03   -0.11487E-03   768   0.301E-03-0.729E-06
CGA:   8    -0.663120849263E+03   -0.57093E-04   -0.57093E-04   768   0.161E-03 0.261E-07
  99 F= -.66969058E+03 E0= -.66967679E+03  d E =-.156817E-02  mag=     1.0835
       N       E                     dE             d eps       ncg     rms          ort
SDA:   1    -0.662930562929E+03    0.19023E+00    0.00000E+00   768   0.503E+00 0.000E+00
CGA:   2    -0.663075378145E+03   -0.14482E+00   -0.14486E+00   768   0.180E+00-0.306E-03
CGA:   3    -0.663105771827E+03   -0.30394E-01   -0.30393E-01   768   0.949E-01-0.926E-05
CGA:   4    -0.663116464084E+03   -0.10692E-01   -0.10704E-01   768   0.211E-01-0.334E-05
CGA:   5    -0.663120200753E+03   -0.37367E-02   -0.37366E-02   768   0.424E-02-0.659E-05
CGA:   6    -0.663121072138E+03   -0.87138E-03   -0.87143E-03   768   0.209E-02-0.168E-05
CGA:   7    -0.663121343177E+03   -0.27104E-03   -0.27097E-03   768   0.701E-03-0.106E-05
CGA:   8    -0.663121472009E+03   -0.12883E-03   -0.12883E-03   768   0.367E-03 0.683E-07
CGA:   9    -0.663121542613E+03   -0.70604E-04   -0.70579E-04   768   0.161E-03 0.201E-05
 100 F= -.66969150E+03 E0= -.66967777E+03  d E =-.248781E-02  mag=     1.0842
       N       E                     dE             d eps       ncg     rms          ort
SDA:   1    -0.663085304692E+03    0.36167E-01    0.00000E+00   768   0.982E-01 0.000E+00
CGA:   2    -0.663113638476E+03   -0.28334E-01   -0.28337E-01   768   0.331E-01-0.232E-04
CGA:   3    -0.663119779910E+03   -0.61414E-02   -0.61415E-02   768   0.159E-01 0.100E-04
CGA:   4    -0.663121568311E+03   -0.17884E-02   -0.17893E-02   768   0.409E-02 0.372E-05
CGA:   5    -0.663122231140E+03   -0.66283E-03   -0.66274E-03   768   0.941E-03-0.328E-05
CGA:   6    -0.663122405315E+03   -0.17418E-03   -0.17418E-03   768   0.422E-03-0.906E-06
CGA:   7    -0.663122469697E+03   -0.64382E-04   -0.64358E-04   768   0.151E-03-0.794E-06
 101 F= -.66969250E+03 E0= -.66967874E+03  d E =-.100242E-02  mag=     1.0855
       N       E                     dE             d eps       ncg     rms          ort
SDA:   1    -0.662895612386E+03    0.22679E+00    0.00000E+00   768   0.601E+00 0.000E+00
CGA:   2    -0.663067710442E+03   -0.17210E+00   -0.17214E+00   768   0.220E+00-0.287E-03
CGA:   3    -0.663103397639E+03   -0.35687E-01   -0.35683E-01   768   0.119E+00-0.559E-04
CGA:   4    -0.663117022216E+03   -0.13625E-01   -0.13639E-01   768   0.255E-01 0.375E-05
CGA:   5    -0.663121621220E+03   -0.45990E-02   -0.45990E-02   768   0.483E-02-0.113E-04
CGA:   6    -0.663122689905E+03   -0.10687E-02   -0.10688E-02   768   0.231E-02-0.383E-05
CGA:   7    -0.663122961624E+03   -0.27172E-03   -0.27160E-03   768   0.815E-03-0.779E-06
CGA:   8    -0.663123132199E+03   -0.17057E-03   -0.17056E-03   768   0.336E-03 0.531E-06
CGA:   9    -0.663123204459E+03   -0.72260E-04   -0.72195E-04   768   0.204E-03 0.199E-05
 102 F= -.66969342E+03 E0= -.66967956E+03  d E =-.191988E-02  mag=     1.0892
       N       E                     dE             d eps       ncg     rms          ort
SDA:   1    -0.663083301774E+03    0.39830E-01    0.00000E+00   768   0.108E+00 0.000E+00
CGA:   2    -0.663114065797E+03   -0.30764E-01   -0.30760E-01   768   0.396E-01 0.341E-04
CGA:   3    -0.663120428811E+03   -0.63630E-02   -0.63626E-02   768   0.216E-01-0.159E-05
CGA:   4    -0.663122963897E+03   -0.25351E-02   -0.25365E-02   768   0.436E-02 0.700E-05
CGA:   5    -0.663123737733E+03   -0.77384E-03   -0.77381E-03   768   0.103E-02-0.455E-05
CGA:   6    -0.663123930005E+03   -0.19227E-03   -0.19228E-03   768   0.482E-03-0.193E-05
CGA:   7    -0.663123999525E+03   -0.69519E-04   -0.69461E-04   768   0.177E-03-0.144E-05
 103 F= -.66969426E+03 E0= -.66968034E+03  d E =-.847879E-03  mag=     1.0916
       N       E                     dE             d eps       ncg     rms          ort
SDA:   1    -0.663023656513E+03    0.10027E+00    0.00000E+00   768   0.267E+00 0.000E+00
CGA:   2    -0.663099033535E+03   -0.75377E-01   -0.75359E-01   768   0.106E+00 0.169E-03
CGA:   3    -0.663114431706E+03   -0.15398E-01   -0.15393E-01   768   0.568E-01-0.258E-04
CGA:   4    -0.663121515485E+03   -0.70838E-02   -0.70873E-02   768   0.112E-01 0.168E-04
CGA:   5    -0.663123608348E+03   -0.20929E-02   -0.20929E-02   768   0.219E-02-0.572E-05
CGA:   6    -0.663124088327E+03   -0.47998E-03   -0.48015E-03   768   0.110E-02-0.457E-05
CGA:   7    -0.663124216026E+03   -0.12770E-03   -0.12758E-03   768   0.373E-03-0.143E-05
CGA:   8    -0.663124296563E+03   -0.80537E-04   -0.80553E-04   768   0.157E-03-0.428E-06
 104 F= -.66969464E+03 E0= -.66968064E+03  d E =-.122765E-02  mag=     1.0953
       N       E                     dE             d eps       ncg     rms          ort
SDA:   1    -0.663058667628E+03    0.65548E-01    0.00000E+00   768   0.177E+00 0.000E+00
CGA:   2    -0.663108688209E+03   -0.50021E-01   -0.50021E-01   768   0.685E-01-0.953E-06
CGA:   3    -0.663118937478E+03   -0.10249E-01   -0.10247E-01   768   0.370E-01-0.129E-04
CGA:   4    -0.663123449536E+03   -0.45121E-02   -0.45145E-02   768   0.712E-02 0.973E-05
CGA:   5    -0.663124768862E+03   -0.13193E-02   -0.13193E-02   768   0.159E-02-0.334E-05
CGA:   6    -0.663125070268E+03   -0.30141E-03   -0.30142E-03   768   0.799E-03-0.127E-05
CGA:   7    -0.663125178005E+03   -0.10774E-03   -0.10767E-03   768   0.261E-03-0.119E-05
CGA:   8    -0.663125223591E+03   -0.45587E-04   -0.45584E-04   768   0.138E-03-0.495E-06
 105 F= -.66969568E+03 E0= -.66968164E+03  d E =-.104191E-02  mag=     1.0966
       N       E                     dE             d eps       ncg     rms          ort
SDA:   1    -0.662575549422E+03    0.54963E+00    0.00000E+00   768   0.146E+01 0.000E+00
CGA:   2    -0.662991108536E+03   -0.41556E+00   -0.41559E+00   768   0.543E+00-0.531E-04
CGA:   3    -0.663076728859E+03   -0.85620E-01   -0.85596E-01   768   0.296E+00-0.245E-03
CGA:   4    -0.663111243298E+03   -0.34514E-01   -0.34563E-01   768   0.602E-01-0.137E-04
CGA:   5    -0.663122163606E+03   -0.10920E-01   -0.10920E-01   768   0.120E-01-0.214E-04
CGA:   6    -0.663124634129E+03   -0.24705E-02   -0.24707E-02   768   0.596E-02-0.620E-05
CGA:   7    -0.663125366849E+03   -0.73272E-03   -0.73244E-03   768   0.190E-02-0.224E-05
CGA:   8    -0.663125727738E+03   -0.36089E-03   -0.36089E-03   768   0.904E-03-0.342E-06
CGA:   9    -0.663125902967E+03   -0.17523E-03   -0.17519E-03   768   0.428E-03 0.316E-05
CGA:  10    -0.663125990746E+03   -0.87779E-04   -0.87775E-04   768   0.312E-03 0.136E-06
 106 F= -.66969678E+03 E0= -.66968264E+03  d E =-.213470E-02  mag=     1.0990
       N       E                     dE             d eps       ncg     rms          ort
SDA:   1    -0.663013377576E+03    0.11253E+00    0.00000E+00   768   0.298E+00 0.000E+00
CGA:   2    -0.663099710347E+03   -0.86333E-01   -0.86366E-01   768   0.101E+00-0.268E-03
CGA:   3    -0.663119031709E+03   -0.19321E-01   -0.19321E-01   768   0.437E-01 0.441E-04
CGA:   4    -0.663124007002E+03   -0.49753E-02   -0.49781E-02   768   0.133E-01 0.640E-05
CGA:   5    -0.663126015136E+03   -0.20081E-02   -0.20079E-02   768   0.259E-02-0.174E-05
CGA:   6    -0.663126567604E+03   -0.55247E-03   -0.55249E-03   768   0.106E-02-0.690E-06
CGA:   7    -0.663126718205E+03   -0.15060E-03   -0.15059E-03   768   0.437E-03-0.146E-06
CGA:   8    -0.663126789833E+03   -0.71628E-04   -0.71631E-04   768   0.199E-03 0.161E-06
 107 F= -.66969782E+03 E0= -.66968370E+03  d E =-.103977E-02  mag=     1.0996
       N       E                     dE             d eps       ncg     rms          ort
SDA:   1    -0.663126221384E+03    0.49682E-03    0.00000E+00   768   0.172E-02 0.000E+00
CGA:   2    -0.663126646759E+03   -0.42537E-03   -0.42536E-03   768   0.101E-02 0.357E-06
CGA:   3    -0.663126767482E+03   -0.12072E-03   -0.12066E-03   768   0.391E-03-0.920E-06
CGA:   4    -0.663126828364E+03   -0.60882E-04   -0.60907E-04   768   0.823E-04 0.101E-05
 108 F= -.66969787E+03 E0= -.66968376E+03  d E =-.109577E-02  mag=     1.0996
       N       E                     dE             d eps       ncg     rms          ort
SDA:   1    -0.663071100360E+03    0.55667E-01    0.00000E+00   768   0.147E+00 0.000E+00
CGA:   2    -0.663114153154E+03   -0.43053E-01   -0.43047E-01   768   0.502E-01 0.474E-04
CGA:   3    -0.663123896455E+03   -0.97433E-02   -0.97432E-02   768   0.204E-01 0.701E-06
CGA:   4    -0.663126287901E+03   -0.23914E-02   -0.23922E-02   768   0.680E-02 0.484E-05
CGA:   5    -0.663127267332E+03   -0.97943E-03   -0.97932E-03   768   0.131E-02-0.131E-05
CGA:   6    -0.663127543458E+03   -0.27613E-03   -0.27619E-03   768   0.517E-03-0.235E-05
CGA:   7    -0.663127619411E+03   -0.75953E-04   -0.75929E-04   768   0.223E-03-0.649E-06
 109 F= -.66969883E+03 E0= -.66968476E+03  d E =-.960833E-03  mag=     1.1021
       N       E                     dE             d eps       ncg     rms          ort
SDA:   1    -0.663103831301E+03    0.23712E-01    0.00000E+00   768   0.622E-01 0.000E+00
CGA:   2    -0.663122049841E+03   -0.18219E-01   -0.18217E-01   768   0.208E-01 0.150E-04
CGA:   3    -0.663126314443E+03   -0.42646E-02   -0.42646E-02   768   0.567E-02 0.994E-06
CGA:   4    -0.663127343517E+03   -0.10291E-02   -0.10291E-02   768   0.167E-02-0.460E-06
CGA:   5    -0.663127577191E+03   -0.23367E-03   -0.23366E-03   768   0.506E-03-0.332E-06
CGA:   6    -0.663127684450E+03   -0.10726E-03   -0.10729E-03   768   0.139E-03-0.129E-05
CGA:   7    -0.663127712250E+03   -0.27800E-04   -0.27805E-04   768   0.993E-04-0.330E-06
 110 F= -.66969904E+03 E0= -.66968499E+03  d E =-.116275E-02  mag=     1.1039
