       N       E                     dE             d eps       ncg     rms          ort
DAV:   1     0.275158797401E+04    0.27516E+04   -0.11186E+05   688   0.123E+03
DAV:   2    -0.116571740145E+02   -0.27632E+04   -0.26673E+04   688   0.315E+02
DAV:   3    -0.508732363719E+03   -0.49708E+03   -0.49325E+03   688   0.150E+02
DAV:   4    -0.527990041198E+03   -0.19258E+02   -0.18749E+02   688   0.414E+01
DAV:   5    -0.528778242756E+03   -0.78820E+00   -0.77922E+00   688   0.658E+00
SDA:   6    -0.438147761939E+03    0.90630E+02   -0.77922E+00   688   0.222E+03 0.000E+00
CGA:   7    -0.477521607284E+03   -0.39374E+02   -0.39370E+02   688   0.279E+02 0.496E+00
CGA:   8    -0.481788625534E+03   -0.42670E+01   -0.43517E+01   688   0.112E+02-0.116E-01
CGA:   9    -0.483697037432E+03   -0.19084E+01   -0.19111E+01   688   0.295E+01-0.127E-01
CGA:  10    -0.484446655968E+03   -0.74962E+00   -0.74969E+00   688   0.102E+01-0.480E-03
CGA:  11    -0.484756229195E+03   -0.30957E+00   -0.31035E+00   688   0.388E+00-0.703E-02
CGA:  12    -0.484860495368E+03   -0.10427E+00   -0.10425E+00   688   0.197E+00-0.582E-05
CGA:  13    -0.484898664234E+03   -0.38169E-01   -0.38121E-01   688   0.861E-01-0.149E-02
CGA:  14    -0.484919854355E+03   -0.21190E-01   -0.21169E-01   688   0.277E-01 0.290E-03
CGA:  15    -0.484928549369E+03   -0.86950E-02   -0.86689E-02   688   0.102E-01 0.187E-03
CGA:  16    -0.484931593288E+03   -0.30439E-02   -0.30281E-02   688   0.519E-02 0.143E-03
CGA:  17    -0.484932949647E+03   -0.13564E-02   -0.13530E-02   688   0.261E-02 0.469E-04
CGA:  18    -0.484933699461E+03   -0.74981E-03   -0.74931E-03   688   0.155E-02 0.288E-05
CGA:  19    -0.484934111413E+03   -0.41195E-03   -0.41166E-03   688   0.897E-03 0.456E-05
CGA:  20    -0.484934390268E+03   -0.27885E-03   -0.27875E-03   688   0.430E-03 0.332E-06
CGA:  21    -0.484934559166E+03   -0.16890E-03   -0.16868E-03   688   0.276E-03 0.117E-05
CGA:  22    -0.484934652725E+03   -0.93559E-04   -0.93702E-04   688   0.301E-03-0.115E-05
   1 F= -.48910497E+03 E0= -.48907874E+03  d E =-.489105E+03  mag=     0.2057
       N       E                     dE             d eps       ncg     rms          ort
SDA:   1    -0.422221406118E+03    0.62713E+02    0.00000E+00   688   0.172E+03 0.000E+00
CGA:   2    -0.470311711281E+03   -0.48090E+02   -0.48254E+02   688   0.540E+02-0.283E+01
CGA:   3    -0.482976780693E+03   -0.12665E+02   -0.12671E+02   688   0.123E+02 0.305E+00
CGA:   4    -0.485469348357E+03   -0.24926E+01   -0.24955E+01   688   0.302E+01 0.206E-01
CGA:   5    -0.486094964986E+03   -0.62562E+00   -0.62550E+00   688   0.692E+00-0.434E-03
CGA:   6    -0.486250246656E+03   -0.15528E+00   -0.15528E+00   688   0.186E+00 0.196E-03
CGA:   7    -0.486303927117E+03   -0.53680E-01   -0.53699E-01   688   0.771E-01-0.279E-03
CGA:   8    -0.486327156271E+03   -0.23229E-01   -0.23244E-01   688   0.379E-01-0.156E-03
CGA:   9    -0.486338000435E+03   -0.10844E-01   -0.10842E-01   688   0.160E-01 0.565E-04
CGA:  10    -0.486342290022E+03   -0.42896E-02   -0.42895E-02   688   0.569E-02 0.470E-05
CGA:  11    -0.486343848835E+03   -0.15588E-02   -0.15590E-02   688   0.195E-02-0.112E-05
CGA:  12    -0.486344417355E+03   -0.56852E-03   -0.56897E-03   688   0.840E-03-0.944E-05
CGA:  13    -0.486344656865E+03   -0.23951E-03   -0.23959E-03   688   0.415E-03-0.134E-05
CGA:  14    -0.486344786290E+03   -0.12942E-03   -0.12962E-03   688   0.207E-03-0.315E-05
CGA:  15    -0.486344851902E+03   -0.65612E-04   -0.65574E-04   688   0.102E-03 0.767E-06
   2 F= -.49054180E+03 E0= -.49051768E+03  d E =-.143683E+01  mag=     0.1262
       N       E                     dE             d eps       ncg     rms          ort
SDA:   1    -0.480163052401E+03    0.61817E+01    0.00000E+00   688   0.168E+02 0.000E+00
CGA:   2    -0.485034792120E+03   -0.48717E+01   -0.48666E+01   688   0.530E+01 0.112E+00
CGA:   3    -0.486300019934E+03   -0.12652E+01   -0.12638E+01   688   0.136E+01-0.204E-01
CGA:   4    -0.486565800284E+03   -0.26578E+00   -0.26645E+00   688   0.290E+00 0.196E-02
CGA:   5    -0.486627461204E+03   -0.61661E-01   -0.61626E-01   688   0.666E-01-0.252E-03
CGA:   6    -0.486642787183E+03   -0.15326E-01   -0.15328E-01   688   0.186E-01 0.518E-04
CGA:   7    -0.486648259115E+03   -0.54719E-02   -0.54719E-02   688   0.808E-02-0.821E-08
CGA:   8    -0.486650585741E+03   -0.23266E-02   -0.23268E-02   688   0.408E-02-0.250E-05
CGA:   9    -0.486651666408E+03   -0.10807E-02   -0.10807E-02   688   0.166E-02-0.551E-05
CGA:  10    -0.486652116654E+03   -0.45025E-03   -0.45024E-03   688   0.555E-03 0.137E-05
CGA:  11    -0.486652270321E+03   -0.15367E-03   -0.15362E-03   688   0.205E-03 0.298E-05
CGA:  12    -0.486652325761E+03   -0.55440E-04   -0.55430E-04   688   0.882E-04 0.130E-05
   3 F= -.49084195E+03 E0= -.49081720E+03  d E =-.173699E+01  mag=     0.1402
       N       E                     dE             d eps       ncg     rms          ort
SDA:   1    -0.450092887990E+03    0.36559E+02    0.00000E+00   688   0.100E+03 0.000E+00
CGA:   2    -0.476735139558E+03   -0.26642E+02   -0.26643E+02   688   0.409E+02-0.895E-01
CGA:   3    -0.484765550566E+03   -0.80304E+01   -0.83074E+01   688   0.109E+02 0.699E+00
CGA:   4    -0.487013868663E+03   -0.22483E+01   -0.22512E+01   688   0.217E+01 0.133E-01
CGA:   5    -0.487500309268E+03   -0.48644E+00   -0.48649E+00   688   0.555E+00 0.577E-03
CGA:   6    -0.487620418752E+03   -0.12011E+00   -0.12008E+00   688   0.167E+00-0.327E-03
CGA:   7    -0.487663759288E+03   -0.43341E-01   -0.43334E-01   688   0.736E-01 0.587E-03
CGA:   8    -0.487683987825E+03   -0.20229E-01   -0.20220E-01   688   0.352E-01 0.287E-03
CGA:   9    -0.487694091237E+03   -0.10103E-01   -0.10103E-01   688   0.146E-01 0.255E-04
CGA:  10    -0.487698141019E+03   -0.40498E-02   -0.40486E-02   688   0.550E-02 0.442E-04
CGA:  11    -0.487699594641E+03   -0.14536E-02   -0.14535E-02   688   0.209E-02 0.165E-04
CGA:  12    -0.487700176768E+03   -0.58213E-03   -0.58207E-03   688   0.888E-03 0.206E-05
CGA:  13    -0.487700429017E+03   -0.25225E-03   -0.25222E-03   688   0.462E-03 0.928E-06
CGA:  14    -0.487700578290E+03   -0.14927E-03   -0.14910E-03   688   0.233E-03 0.281E-05
CGA:  15    -0.487700671417E+03   -0.93127E-04   -0.92884E-04   688   0.178E-03 0.178E-05
   4 F= -.49191486E+03 E0= -.49188717E+03  d E =-.107291E+01  mag=     0.2265
       N       E                     dE             d eps       ncg     rms          ort
SDA:   1    -0.486540847971E+03    0.11597E+01    0.00000E+00   688   0.323E+01 0.000E+00
CGA:   2    -0.487432247818E+03   -0.89140E+00   -0.89137E+00   688   0.110E+01 0.633E-02
CGA:   3    -0.487693349801E+03   -0.26110E+00   -0.26024E+00   688   0.268E+00-0.783E-02
CGA:   4    -0.487749896822E+03   -0.56547E-01   -0.56514E-01   688   0.544E-01-0.896E-04
CGA:   5    -0.487762033319E+03   -0.12136E-01   -0.12137E-01   688   0.135E-01-0.246E-05
CGA:   6    -0.487765091169E+03   -0.30578E-02   -0.30585E-02   688   0.440E-02 0.127E-04
CGA:   7    -0.487766298775E+03   -0.12076E-02   -0.12076E-02   688   0.202E-02 0.174E-05
CGA:   8    -0.487766883147E+03   -0.58437E-03   -0.58447E-03   688   0.977E-03-0.403E-05
CGA:   9    -0.487767164252E+03   -0.28110E-03   -0.28117E-03   688   0.413E-03-0.342E-05
CGA:  10    -0.487767280631E+03   -0.11638E-03   -0.11640E-03   688   0.179E-03-0.130E-05
CGA:  11    -0.487767335585E+03   -0.54954E-04   -0.55005E-04   688   0.995E-04-0.134E-05
   5 F= -.49197736E+03 E0= -.49195073E+03  d E =-.113541E+01  mag=     0.2847
       N       E                     dE             d eps       ncg     rms          ort
SDA:   1    -0.479209872380E+03    0.85574E+01    0.00000E+00   688   0.225E+02 0.000E+00
CGA:   2    -0.485823417368E+03   -0.66135E+01   -0.66146E+01   688   0.758E+01-0.348E-01
CGA:   3    -0.487670095367E+03   -0.18467E+01   -0.18467E+01   688   0.206E+01-0.106E-02
CGA:   4    -0.488045927903E+03   -0.37583E+00   -0.37685E+00   688   0.441E+00-0.714E-04
CGA:   5    -0.488147013279E+03   -0.10109E+00   -0.10105E+00   688   0.115E+00-0.165E-03
CGA:   6    -0.488177472231E+03   -0.30459E-01   -0.30459E-01   688   0.417E-01 0.549E-04
CGA:   7    -0.488190654210E+03   -0.13182E-01   -0.13180E-01   688   0.195E-01 0.453E-04
CGA:   8    -0.488196804767E+03   -0.61506E-02   -0.61489E-02   688   0.802E-02 0.369E-04
CGA:   9    -0.488199070905E+03   -0.22661E-02   -0.22660E-02   688   0.329E-02 0.198E-04
CGA:  10    -0.488199826442E+03   -0.75554E-03   -0.75591E-03   688   0.135E-02 0.366E-05
CGA:  11    -0.488200183032E+03   -0.35659E-03   -0.35660E-03   688   0.468E-03 0.867E-06
CGA:  12    -0.488200350141E+03   -0.16711E-03   -0.16713E-03   688   0.230E-03-0.203E-06
CGA:  13    -0.488200434492E+03   -0.84351E-04   -0.84488E-04   688   0.163E-03-0.159E-05
   6 F= -.49242148E+03 E0= -.49239569E+03  d E =-.444114E+00  mag=     0.3576
       N       E                     dE             d eps       ncg     rms          ort
SDA:   1    -0.488163949779E+03    0.36400E-01    0.00000E+00   688   0.934E-01 0.000E+00
CGA:   2    -0.488191735533E+03   -0.27786E-01   -0.27786E-01   688   0.309E-01 0.202E-04
CGA:   3    -0.488199454081E+03   -0.77185E-02   -0.77191E-02   688   0.758E-02 0.161E-04
CGA:   4    -0.488200921371E+03   -0.14673E-02   -0.14680E-02   688   0.170E-02 0.836E-05
CGA:   5    -0.488201301865E+03   -0.38049E-03   -0.38065E-03   688   0.523E-03 0.176E-05
CGA:   6    -0.488201433551E+03   -0.13169E-03   -0.13174E-03   688   0.201E-03 0.235E-05
CGA:   7    -0.488201503037E+03   -0.69486E-04   -0.69419E-04   688   0.125E-03 0.895E-06
   7 F= -.49242314E+03 E0= -.49239770E+03  d E =-.445780E+00  mag=     0.3890
       N       E                     dE             d eps       ncg     rms          ort
SDA:   1    -0.479922766397E+03    0.82787E+01    0.00000E+00   688   0.222E+02 0.000E+00
CGA:   2    -0.486470665617E+03   -0.65479E+01   -0.65482E+01   688   0.694E+01-0.997E-02
CGA:   3    -0.488075875752E+03   -0.16052E+01   -0.16045E+01   688   0.179E+01-0.280E-02
CGA:   4    -0.488415401698E+03   -0.33953E+00   -0.34058E+00   688   0.383E+00 0.755E-03
CGA:   5    -0.488498564174E+03   -0.83162E-01   -0.83129E-01   688   0.965E-01-0.692E-04
CGA:   6    -0.488523018576E+03   -0.24454E-01   -0.24456E-01   688   0.292E-01 0.305E-04
CGA:   7    -0.488532428627E+03   -0.94101E-02   -0.94093E-02   688   0.127E-01 0.730E-05
CGA:   8    -0.488536740477E+03   -0.43119E-02   -0.43104E-02   688   0.544E-02 0.213E-04
CGA:   9    -0.488538437805E+03   -0.16973E-02   -0.16969E-02   688   0.195E-02 0.107E-04
CGA:  10    -0.488539005956E+03   -0.56815E-03   -0.56810E-03   688   0.730E-03 0.354E-05
CGA:  11    -0.488539193889E+03   -0.18793E-03   -0.18797E-03   688   0.328E-03 0.124E-05
CGA:  12    -0.488539286681E+03   -0.92792E-04   -0.92787E-04   688   0.143E-03 0.873E-06
   8 F= -.49276869E+03 E0= -.49274376E+03  d E =-.345552E+00  mag=     0.4445
       N       E                     dE             d eps       ncg     rms          ort
SDA:   1    -0.484613905420E+03    0.39253E+01    0.00000E+00   688   0.102E+02 0.000E+00
CGA:   2    -0.487659024694E+03   -0.30451E+01   -0.30453E+01   688   0.311E+01-0.595E-02
CGA:   3    -0.488399243953E+03   -0.74022E+00   -0.74017E+00   688   0.748E+00 0.110E-03
CGA:   4    -0.488548181029E+03   -0.14894E+00   -0.14913E+00   688   0.160E+00 0.266E-03
CGA:   5    -0.488582981704E+03   -0.34801E-01   -0.34798E-01   688   0.430E-01 0.365E-04
CGA:   6    -0.488593559145E+03   -0.10577E-01   -0.10578E-01   688   0.132E-01 0.720E-05
CGA:   7    -0.488597837346E+03   -0.42782E-02   -0.42781E-02   688   0.570E-02 0.135E-05
CGA:   8    -0.488599802337E+03   -0.19650E-02   -0.19642E-02   688   0.245E-02 0.103E-04
CGA:   9    -0.488600567732E+03   -0.76540E-03   -0.76519E-03   688   0.873E-03 0.577E-05
CGA:  10    -0.488600828766E+03   -0.26103E-03   -0.26098E-03   688   0.307E-03 0.286E-05
CGA:  11    -0.488600913911E+03   -0.85144E-04   -0.85144E-04   688   0.145E-03-0.279E-06
   9 F= -.49283666E+03 E0= -.49281206E+03  d E =-.413513E+00  mag=     0.4759
       N       E                     dE             d eps       ncg     rms          ort
SDA:   1    -0.487571851474E+03    0.10290E+01    0.00000E+00   688   0.307E+01 0.000E+00
CGA:   2    -0.488474861725E+03   -0.90301E+00   -0.90306E+00   688   0.916E+00-0.179E-02
CGA:   3    -0.488692011460E+03   -0.21715E+00   -0.21710E+00   688   0.217E+00-0.329E-03
CGA:   4    -0.488736062629E+03   -0.44051E-01   -0.44027E-01   688   0.436E-01-0.183E-04
CGA:   5    -0.488745985956E+03   -0.99233E-02   -0.99284E-02   688   0.116E-01 0.453E-04
CGA:   6    -0.488748743545E+03   -0.27576E-02   -0.27578E-02   688   0.380E-02 0.735E-05
CGA:   7    -0.488749896362E+03   -0.11528E-02   -0.11529E-02   688   0.160E-02-0.247E-05
CGA:   8    -0.488750433241E+03   -0.53688E-03   -0.53676E-03   688   0.730E-03 0.168E-05
CGA:   9    -0.488750653807E+03   -0.22057E-03   -0.22045E-03   688   0.283E-03 0.406E-05
CGA:  10    -0.488750733865E+03   -0.80057E-04   -0.80054E-04   688   0.109E-03 0.822E-06
  10 F= -.49298972E+03 E0= -.49296530E+03  d E =-.153060E+00  mag=     0.4833
       N       E                     dE             d eps       ncg     rms          ort
SDA:   1    -0.478430541488E+03    0.10320E+02    0.00000E+00   688   0.280E+02 0.000E+00
CGA:   2    -0.486514691550E+03   -0.80842E+01   -0.80850E+01   688   0.867E+01-0.344E-01
CGA:   3    -0.488494148907E+03   -0.19795E+01   -0.19780E+01   688   0.227E+01-0.758E-02
CGA:   4    -0.488927144249E+03   -0.43300E+00   -0.43376E+00   688   0.461E+00 0.110E-02
CGA:   5    -0.489029997605E+03   -0.10285E+00   -0.10283E+00   688   0.116E+00-0.671E-04
CGA:   6    -0.489058263911E+03   -0.28266E-01   -0.28268E-01   688   0.357E-01 0.305E-04
CGA:   7    -0.489069194670E+03   -0.10931E-01   -0.10930E-01   688   0.153E-01 0.182E-04
CGA:   8    -0.489074062369E+03   -0.48677E-02   -0.48656E-02   688   0.763E-02 0.301E-04
CGA:   9    -0.489076073321E+03   -0.20110E-02   -0.20110E-02   688   0.324E-02 0.986E-05
CGA:  10    -0.489076936665E+03   -0.86334E-03   -0.86336E-03   688   0.104E-02 0.337E-05
CGA:  11    -0.489077263777E+03   -0.32711E-03   -0.32722E-03   688   0.330E-03-0.238E-05
CGA:  12    -0.489077383678E+03   -0.11990E-03   -0.11986E-03   688   0.141E-03 0.547E-06
CGA:  13    -0.489077430621E+03   -0.46943E-04   -0.46946E-04   688   0.799E-04-0.571E-08
  11 F= -.49333000E+03 E0= -.49330553E+03  d E =-.493346E+00  mag=     0.4663
       N       E                     dE             d eps       ncg     rms          ort
SDA:   1    -0.446166487355E+03    0.42911E+02    0.00000E+00   688   0.117E+03 0.000E+00
CGA:   2    -0.477707069198E+03   -0.31541E+02   -0.31544E+02   688   0.394E+02 0.160E+00
CGA:   3    -0.486524563531E+03   -0.88175E+01   -0.87720E+01   688   0.103E+02-0.179E+00
CGA:   4    -0.488491808389E+03   -0.19672E+01   -0.19841E+01   688   0.197E+01 0.210E-01
CGA:   5    -0.488940060433E+03   -0.44825E+00   -0.44831E+00   688   0.519E+00 0.474E-03
CGA:   6    -0.489062274981E+03   -0.12221E+00   -0.12221E+00   688   0.157E+00-0.155E-03
CGA:   7    -0.489107806061E+03   -0.45531E-01   -0.45528E-01   688   0.708E-01 0.960E-04
CGA:   8    -0.489128094937E+03   -0.20289E-01   -0.20280E-01   688   0.363E-01 0.315E-03
CGA:   9    -0.489137631988E+03   -0.95371E-02   -0.95365E-02   688   0.141E-01-0.388E-05
CGA:  10    -0.489141796252E+03   -0.41643E-02   -0.41643E-02   688   0.458E-02 0.657E-05
CGA:  11    -0.489143228665E+03   -0.14324E-02   -0.14328E-02   688   0.152E-02-0.673E-05
CGA:  12    -0.489143726009E+03   -0.49734E-03   -0.49756E-03   688   0.735E-03-0.268E-05
CGA:  13    -0.489143936091E+03   -0.21008E-03   -0.21010E-03   688   0.365E-03-0.735E-06
CGA:  14    -0.489144048303E+03   -0.11221E-03   -0.11228E-03   688   0.175E-03-0.198E-05
CGA:  15    -0.489144102346E+03   -0.54043E-04   -0.54020E-04   688   0.838E-04 0.819E-06
  12 F= -.49342629E+03 E0= -.49340159E+03  d E =-.589633E+00  mag=     0.4046
       N       E                     dE             d eps       ncg     rms          ort
SDA:   1    -0.482882752471E+03    0.62613E+01    0.00000E+00   688   0.166E+02 0.000E+00
CGA:   2    -0.487675273592E+03   -0.47925E+01   -0.47919E+01   688   0.544E+01 0.435E-01
CGA:   3    -0.488812411515E+03   -0.11371E+01   -0.11371E+01   688   0.165E+01-0.135E-02
CGA:   4    -0.489114315698E+03   -0.30190E+00   -0.30247E+00   688   0.300E+00-0.138E-03
CGA:   5    -0.489183812515E+03   -0.69497E-01   -0.69476E-01   688   0.698E-01-0.125E-03
CGA:   6    -0.489201664817E+03   -0.17852E-01   -0.17853E-01   688   0.207E-01 0.265E-05
CGA:   7    -0.489207892506E+03   -0.62277E-02   -0.62276E-02   688   0.933E-02 0.297E-05
CGA:   8    -0.489210728021E+03   -0.28355E-02   -0.28353E-02   688   0.437E-02 0.998E-05
CGA:   9    -0.489211977898E+03   -0.12499E-02   -0.12500E-02   688   0.179E-02-0.108E-04
CGA:  10    -0.489212429288E+03   -0.45139E-03   -0.45138E-03   688   0.672E-03 0.789E-06
CGA:  11    -0.489212600650E+03   -0.17136E-03   -0.17139E-03   688   0.223E-03 0.148E-05
CGA:  12    -0.489212668591E+03   -0.67941E-04   -0.67951E-04   688   0.902E-04-0.375E-06
  13 F= -.49348577E+03 E0= -.49346088E+03  d E =-.649118E+00  mag=     0.3988
       N       E                     dE             d eps       ncg     rms          ort
SDA:   1    -0.484924669805E+03    0.42879E+01    0.00000E+00   688   0.118E+02 0.000E+00
CGA:   2    -0.488396933374E+03   -0.34723E+01   -0.34730E+01   688   0.348E+01-0.218E-01
CGA:   3    -0.489212563921E+03   -0.81563E+00   -0.81628E+00   688   0.909E+00 0.524E-02
CGA:   4    -0.489386419056E+03   -0.17386E+00   -0.17331E+00   688   0.194E+00-0.332E-03
CGA:   5    -0.489428762287E+03   -0.42343E-01   -0.42414E-01   688   0.491E-01 0.396E-03
CGA:   6    -0.489441045242E+03   -0.12283E-01   -0.12282E-01   688   0.156E-01-0.558E-05
CGA:   7    -0.489445856553E+03   -0.48113E-02   -0.48108E-02   688   0.729E-02 0.256E-05
CGA:   8    -0.489447997166E+03   -0.21406E-02   -0.21404E-02   688   0.386E-02 0.809E-05
CGA:   9    -0.489449022866E+03   -0.10257E-02   -0.10258E-02   688   0.149E-02 0.721E-05
CGA:  10    -0.489449451089E+03   -0.42822E-03   -0.42816E-03   688   0.520E-03 0.380E-05
CGA:  11    -0.489449601524E+03   -0.15043E-03   -0.15046E-03   688   0.203E-03-0.179E-05
CGA:  12    -0.489449659274E+03   -0.57751E-04   -0.57737E-04   688   0.989E-04 0.108E-05
  14 F= -.49372667E+03 E0= -.49370162E+03  d E =-.240899E+00  mag=     0.4161
       N       E                     dE             d eps       ncg     rms          ort
SDA:   1    -0.456493063283E+03    0.32957E+02    0.00000E+00   688   0.885E+02 0.000E+00
CGA:   2    -0.481470516123E+03   -0.24977E+02   -0.24980E+02   688   0.285E+02-0.158E+00
CGA:   3    -0.487720845023E+03   -0.62503E+01   -0.62431E+01   688   0.816E+01-0.267E-01
CGA:   4    -0.489217757827E+03   -0.14969E+01   -0.15070E+01   688   0.158E+01 0.368E-02
CGA:   5    -0.489580619989E+03   -0.36286E+00   -0.36300E+00   688   0.387E+00 0.139E-02
CGA:   6    -0.489675433421E+03   -0.94813E-01   -0.94798E-01   688   0.136E+00-0.252E-03
CGA:   7    -0.489710463085E+03   -0.35030E-01   -0.35036E-01   688   0.684E-01 0.448E-03
CGA:   8    -0.489728339961E+03   -0.17877E-01   -0.17877E-01   688   0.323E-01 0.411E-04
CGA:   9    -0.489737907021E+03   -0.95671E-02   -0.95631E-02   688   0.125E-01 0.838E-04
CGA:  10    -0.489741603605E+03   -0.36966E-02   -0.36961E-02   688   0.517E-02 0.157E-04
CGA:  11    -0.489742856634E+03   -0.12530E-02   -0.12534E-02   688   0.217E-02 0.337E-05
CGA:  12    -0.489743456626E+03   -0.59999E-03   -0.59998E-03   688   0.867E-03 0.114E-05
CGA:  13    -0.489743756631E+03   -0.30001E-03   -0.29991E-03   688   0.502E-03 0.637E-06
CGA:  14    -0.489743905521E+03   -0.14889E-03   -0.14883E-03   688   0.312E-03 0.218E-05
CGA:  15    -0.489744012358E+03   -0.10684E-03   -0.10689E-03   688   0.186E-03-0.114E-05
CGA:  16    -0.489744083894E+03   -0.71537E-04   -0.71526E-04   688   0.159E-03 0.140E-06
  15 F= -.49402378E+03 E0= -.49400037E+03  d E =-.538005E+00  mag=     0.4182
       N       E                     dE             d eps       ncg     rms          ort
SDA:   1    -0.489339451671E+03    0.40456E+00    0.00000E+00   688   0.107E+01 0.000E+00
CGA:   2    -0.489650832040E+03   -0.31138E+00   -0.31139E+00   688   0.327E+00-0.510E-03
CGA:   3    -0.489723509132E+03   -0.72677E-01   -0.72736E-01   688   0.985E-01 0.191E-03
CGA:   4    -0.489741167245E+03   -0.17658E-01   -0.17629E-01   688   0.196E-01 0.342E-04
CGA:   5    -0.489745588066E+03   -0.44208E-02   -0.44230E-02   688   0.472E-02 0.117E-04
CGA:   6    -0.489746803622E+03   -0.12156E-02   -0.12157E-02   688   0.156E-02 0.940E-05
CGA:   7    -0.489747271613E+03   -0.46799E-03   -0.46813E-03   688   0.816E-03-0.645E-05
CGA:   8    -0.489747513222E+03   -0.24161E-03   -0.24158E-03   688   0.446E-03 0.150E-05
CGA:   9    -0.489747655460E+03   -0.14224E-03   -0.14216E-03   688   0.248E-03 0.133E-05
CGA:  10    -0.489747736157E+03   -0.80697E-04   -0.80679E-04   688   0.175E-03 0.559E-06
  16 F= -.49402766E+03 E0= -.49400529E+03  d E =-.541881E+00  mag=     0.3756
       N       E                     dE             d eps       ncg     rms          ort
SDA:   1    -0.488851119903E+03    0.89654E+00    0.00000E+00   688   0.270E+01 0.000E+00
CGA:   2    -0.489630742758E+03   -0.77962E+00   -0.77962E+00   688   0.778E+00 0.193E-03
CGA:   3    -0.489827100441E+03   -0.19636E+00   -0.19635E+00   688   0.203E+00-0.604E-04
CGA:   4    -0.489866910977E+03   -0.39811E-01   -0.39814E-01   688   0.468E-01-0.715E-06
CGA:   5    -0.489876987231E+03   -0.10076E-01   -0.10085E-01   688   0.126E-01 0.181E-04
CGA:   6    -0.489880024371E+03   -0.30371E-02   -0.30380E-02   688   0.432E-02 0.171E-04
CGA:   7    -0.489881345637E+03   -0.13213E-02   -0.13213E-02   688   0.207E-02-0.281E-05
CGA:   8    -0.489881996667E+03   -0.65103E-03   -0.65096E-03   688   0.103E-02 0.144E-05
CGA:   9    -0.489882299174E+03   -0.30251E-03   -0.30248E-03   688   0.481E-03 0.641E-06
CGA:  10    -0.489882434857E+03   -0.13568E-03   -0.13568E-03   688   0.226E-03 0.132E-05
CGA:  11    -0.489882510992E+03   -0.76136E-04   -0.76108E-04   688   0.141E-03 0.251E-06
  17 F= -.49415791E+03 E0= -.49413663E+03  d E =-.130254E+00  mag=     0.3163
       N       E                     dE             d eps       ncg     rms          ort
SDA:   1    -0.488752067416E+03    0.11304E+01    0.00000E+00   688   0.309E+01 0.000E+00
CGA:   2    -0.489645464937E+03   -0.89340E+00   -0.89340E+00   688   0.887E+00 0.473E-03
CGA:   3    -0.489871385621E+03   -0.22592E+00   -0.22589E+00   688   0.226E+00-0.289E-03
CGA:   4    -0.489916420978E+03   -0.45035E-01   -0.45051E-01   688   0.510E-01 0.329E-05
CGA:   5    -0.489927714439E+03   -0.11293E-01   -0.11299E-01   688   0.134E-01 0.103E-04
CGA:   6    -0.489930990589E+03   -0.32761E-02   -0.32769E-02   688   0.477E-02 0.167E-04
CGA:   7    -0.489932418081E+03   -0.14275E-02   -0.14275E-02   688   0.229E-02-0.431E-05
CGA:   8    -0.489933123185E+03   -0.70510E-03   -0.70504E-03   688   0.107E-02 0.165E-05
CGA:   9    -0.489933443514E+03   -0.32033E-03   -0.32031E-03   688   0.447E-03 0.370E-06
CGA:  10    -0.489933570323E+03   -0.12681E-03   -0.12681E-03   688   0.194E-03 0.108E-05
CGA:  11    -0.489933628721E+03   -0.58398E-04   -0.58398E-04   688   0.101E-03-0.113E-06
  18 F= -.49420370E+03 E0= -.49418341E+03  d E =-.176043E+00  mag=     0.2686
       N       E                     dE             d eps       ncg     rms          ort
SDA:   1    -0.489151288388E+03    0.78228E+00    0.00000E+00   688   0.229E+01 0.000E+00
CGA:   2    -0.489805117074E+03   -0.65383E+00   -0.65383E+00   688   0.702E+00-0.230E-03
CGA:   3    -0.489974302207E+03   -0.16919E+00   -0.16893E+00   688   0.192E+00-0.157E-02
CGA:   4    -0.490011400600E+03   -0.37098E-01   -0.37084E-01   688   0.406E-01 0.264E-04
CGA:   5    -0.490020490227E+03   -0.90896E-02   -0.90928E-02   688   0.102E-01 0.131E-04
CGA:   6    -0.490023016469E+03   -0.25262E-02   -0.25268E-02   688   0.338E-02 0.149E-04
CGA:   7    -0.490024082742E+03   -0.10663E-02   -0.10664E-02   688   0.151E-02-0.260E-05
CGA:   8    -0.490024582906E+03   -0.50016E-03   -0.50013E-03   688   0.725E-03 0.624E-06
CGA:   9    -0.490024795909E+03   -0.21300E-03   -0.21302E-03   688   0.323E-03-0.130E-05
CGA:  10    -0.490024883097E+03   -0.87188E-04   -0.87196E-04   688   0.128E-03 0.681E-06
  19 F= -.49429093E+03 E0= -.49427132E+03  d E =-.872281E-01  mag=     0.2273
       N       E                     dE             d eps       ncg     rms          ort
SDA:   1    -0.489084959909E+03    0.93984E+00    0.00000E+00   688   0.255E+01 0.000E+00
CGA:   2    -0.489812839327E+03   -0.72788E+00   -0.72788E+00   688   0.789E+00-0.296E-03
CGA:   3    -0.490000991339E+03   -0.18815E+00   -0.18784E+00   688   0.219E+00-0.211E-02
CGA:   4    -0.490043163582E+03   -0.42172E-01   -0.42159E-01   688   0.455E-01 0.287E-04
CGA:   5    -0.490053439087E+03   -0.10276E-01   -0.10278E-01   688   0.114E-01 0.129E-04
CGA:   6    -0.490056283157E+03   -0.28441E-02   -0.28445E-02   688   0.378E-02 0.164E-04
CGA:   7    -0.490057478197E+03   -0.11950E-02   -0.11952E-02   688   0.168E-02-0.371E-05
CGA:   8    -0.490058039876E+03   -0.56168E-03   -0.56163E-03   688   0.785E-03 0.741E-06
CGA:   9    -0.490058271606E+03   -0.23173E-03   -0.23175E-03   688   0.347E-03-0.160E-05
CGA:  10    -0.490058362039E+03   -0.90433E-04   -0.90447E-04   688   0.129E-03 0.722E-06
  20 F= -.49431995E+03 E0= -.49430092E+03  d E =-.116250E+00  mag=     0.1911
       N       E                     dE             d eps       ncg     rms          ort
SDA:   1    -0.489647598102E+03    0.41067E+00    0.00000E+00   688   0.116E+01 0.000E+00
CGA:   2    -0.490008196754E+03   -0.36060E+00   -0.36060E+00   688   0.365E+00 0.782E-05
CGA:   3    -0.490097433148E+03   -0.89236E-01   -0.89248E-01   688   0.873E-01 0.103E-03
CGA:   4    -0.490115073978E+03   -0.17641E-01   -0.17640E-01   688   0.195E-01-0.111E-05
CGA:   5    -0.490119395160E+03   -0.43212E-02   -0.43221E-02   688   0.549E-02-0.510E-06
CGA:   6    -0.490120848994E+03   -0.14538E-02   -0.14539E-02   688   0.205E-02 0.555E-05
CGA:   7    -0.490121507818E+03   -0.65882E-03   -0.65904E-03   688   0.980E-03-0.483E-05
CGA:   8    -0.490121822797E+03   -0.31498E-03   -0.31496E-03   688   0.436E-03 0.422E-06
CGA:   9    -0.490121950679E+03   -0.12788E-03   -0.12790E-03   688   0.172E-03-0.108E-05
CGA:  10    -0.490121998939E+03   -0.48259E-04   -0.48258E-04   688   0.727E-04 0.330E-06
  21 F= -.49438321E+03 E0= -.49436493E+03  d E =-.632657E-01  mag=     0.1590
       N       E                     dE             d eps       ncg     rms          ort
SDA:   1    -0.487782705007E+03    0.23392E+01    0.00000E+00   688   0.588E+01 0.000E+00
CGA:   2    -0.489607392427E+03   -0.18247E+01   -0.18247E+01   688   0.184E+01 0.528E-03
CGA:   3    -0.490058072009E+03   -0.45068E+00   -0.45081E+00   688   0.433E+00 0.126E-02
CGA:   4    -0.490146233431E+03   -0.88161E-01   -0.88194E-01   688   0.963E-01 0.656E-04
CGA:   5    -0.490167875175E+03   -0.21642E-01   -0.21651E-01   688   0.268E-01 0.530E-04
CGA:   6    -0.490175074154E+03   -0.71990E-02   -0.71992E-02   688   0.101E-01 0.260E-04
CGA:   7    -0.490178289756E+03   -0.32156E-02   -0.32155E-02   688   0.480E-02-0.178E-05
CGA:   8    -0.490179801654E+03   -0.15119E-02   -0.15116E-02   688   0.215E-02 0.538E-05
CGA:   9    -0.490180408889E+03   -0.60723E-03   -0.60723E-03   688   0.824E-03-0.632E-06
CGA:  10    -0.490180640364E+03   -0.23148E-03   -0.23147E-03   688   0.305E-03 0.115E-05
CGA:  11    -0.490180736875E+03   -0.96511E-04   -0.96521E-04   688   0.147E-03-0.483E-06
  22 F= -.49444047E+03 E0= -.49442390E+03  d E =-.120519E+00  mag=     0.1093
       N       E                     dE             d eps       ncg     rms          ort
SDA:   1    -0.489269311138E+03    0.91133E+00    0.00000E+00   688   0.240E+01 0.000E+00
CGA:   2    -0.490022678710E+03   -0.75337E+00   -0.75340E+00   688   0.730E+00-0.719E-03
CGA:   3    -0.490197482114E+03   -0.17480E+00   -0.17483E+00   688   0.171E+00 0.170E-03
CGA:   4    -0.490232771853E+03   -0.35290E-01   -0.35300E-01   688   0.359E-01-0.763E-05
CGA:   5    -0.490240951338E+03   -0.81795E-02   -0.81797E-02   688   0.103E-01 0.138E-04
CGA:   6    -0.490243694850E+03   -0.27435E-02   -0.27434E-02   688   0.379E-02-0.810E-05
CGA:   7    -0.490244877149E+03   -0.11823E-02   -0.11823E-02   688   0.183E-02 0.409E-06
CGA:   8    -0.490245446403E+03   -0.56925E-03   -0.56920E-03   688   0.755E-03 0.151E-05
CGA:   9    -0.490245660772E+03   -0.21437E-03   -0.21437E-03   688   0.268E-03 0.148E-06
CGA:  10    -0.490245732424E+03   -0.71652E-04   -0.71651E-04   688   0.933E-04-0.734E-07
  23 F= -.49450568E+03 E0= -.49448948E+03  d E =-.652113E-01  mag=     0.1007
       N       E                     dE             d eps       ncg     rms          ort
SDA:   1    -0.488642897439E+03    0.16028E+01    0.00000E+00   688   0.401E+01 0.000E+00
CGA:   2    -0.489901991050E+03   -0.12591E+01   -0.12592E+01   688   0.123E+01-0.170E-02
CGA:   3    -0.490194458280E+03   -0.29247E+00   -0.29251E+00   688   0.290E+00 0.369E-03
CGA:   4    -0.490253943528E+03   -0.59485E-01   -0.59512E-01   688   0.615E-01 0.219E-04
CGA:   5    -0.490267830753E+03   -0.13887E-01   -0.13887E-01   688   0.176E-01 0.155E-04
CGA:   6    -0.490272564263E+03   -0.47335E-02   -0.47335E-02   688   0.633E-02-0.925E-05
CGA:   7    -0.490274587821E+03   -0.20236E-02   -0.20235E-02   688   0.305E-02 0.593E-06
CGA:   8    -0.490275543150E+03   -0.95533E-03   -0.95524E-03   688   0.128E-02 0.204E-05
CGA:   9    -0.490275896728E+03   -0.35358E-03   -0.35358E-03   688   0.476E-03 0.772E-06
CGA:  10    -0.490276021445E+03   -0.12472E-03   -0.12471E-03   688   0.158E-03-0.355E-06
CGA:  11    -0.490276067909E+03   -0.46465E-04   -0.46452E-04   688   0.592E-04 0.644E-06
  24 F= -.49453629E+03 E0= -.49451989E+03  d E =-.958202E-01  mag=     0.1084
       N       E                     dE             d eps       ncg     rms          ort
SDA:   1    -0.489429743779E+03    0.84628E+00    0.00000E+00   688   0.226E+01 0.000E+00
CGA:   2    -0.490114616209E+03   -0.68487E+00   -0.68494E+00   688   0.695E+00-0.159E-02
CGA:   3    -0.490280084037E+03   -0.16547E+00   -0.16550E+00   688   0.166E+00 0.260E-03
CGA:   4    -0.490313592619E+03   -0.33509E-01   -0.33516E-01   688   0.346E-01 0.136E-04
CGA:   5    -0.490321393916E+03   -0.78013E-02   -0.78021E-02   688   0.917E-02 0.208E-04
CGA:   6    -0.490323817968E+03   -0.24241E-02   -0.24240E-02   688   0.317E-02-0.409E-05
CGA:   7    -0.490324790306E+03   -0.97234E-03   -0.97222E-03   688   0.151E-02 0.365E-05
CGA:   8    -0.490325250772E+03   -0.46047E-03   -0.46039E-03   688   0.656E-03 0.225E-05
CGA:   9    -0.490325439165E+03   -0.18839E-03   -0.18837E-03   688   0.231E-03 0.176E-05
CGA:  10    -0.490325501701E+03   -0.62537E-04   -0.62535E-04   688   0.834E-04-0.182E-06
  25 F= -.49458667E+03 E0= -.49457022E+03  d E =-.503791E-01  mag=     0.1073
       N       E                     dE             d eps       ncg     rms          ort
SDA:   1    -0.489750929058E+03    0.57451E+00    0.00000E+00   688   0.148E+01 0.000E+00
CGA:   2    -0.490200087913E+03   -0.44916E+00   -0.44920E+00   688   0.454E+00-0.856E-03
CGA:   3    -0.490308459717E+03   -0.10837E+00   -0.10839E+00   688   0.107E+00 0.146E-03
CGA:   4    -0.490330247907E+03   -0.21788E-01   -0.21791E-01   688   0.224E-01 0.644E-05
CGA:   5    -0.490335287079E+03   -0.50392E-02   -0.50398E-02   688   0.597E-02 0.172E-04
CGA:   6    -0.490336879181E+03   -0.15921E-02   -0.15921E-02   688   0.204E-02-0.409E-05
CGA:   7    -0.490337524254E+03   -0.64507E-03   -0.64492E-03   688   0.958E-03 0.343E-05
CGA:   8    -0.490337824210E+03   -0.29996E-03   -0.29990E-03   688   0.418E-03 0.132E-05
CGA:   9    -0.490337942393E+03   -0.11818E-03   -0.11817E-03   688   0.150E-03 0.157E-05
CGA:  10    -0.490337982555E+03   -0.40162E-04   -0.40160E-04   688   0.525E-04-0.232E-06
  26 F= -.49459993E+03 E0= -.49458346E+03  d E =-.636439E-01  mag=     0.1057
       N       E                     dE             d eps       ncg     rms          ort
SDA:   1    -0.489490745767E+03    0.84720E+00    0.00000E+00   688   0.232E+01 0.000E+00
CGA:   2    -0.490176542277E+03   -0.68580E+00   -0.68583E+00   688   0.712E+00-0.658E-03
CGA:   3    -0.490344085059E+03   -0.16754E+00   -0.16762E+00   688   0.172E+00 0.713E-03
CGA:   4    -0.490379354161E+03   -0.35269E-01   -0.35278E-01   688   0.372E-01 0.231E-05
CGA:   5    -0.490387316922E+03   -0.79628E-02   -0.79623E-02   688   0.102E-01 0.150E-04
CGA:   6    -0.490389941492E+03   -0.26246E-02   -0.26245E-02   688   0.354E-02-0.633E-05
CGA:   7    -0.490391017587E+03   -0.10761E-02   -0.10759E-02   688   0.168E-02 0.371E-05
CGA:   8    -0.490391540738E+03   -0.52315E-03   -0.52285E-03   688   0.770E-03 0.661E-05
CGA:   9    -0.490391758991E+03   -0.21825E-03   -0.21823E-03   688   0.283E-03 0.160E-05
CGA:  10    -0.490391839799E+03   -0.80808E-04   -0.80804E-04   688   0.942E-04 0.229E-06
  27 F= -.49465483E+03 E0= -.49463906E+03  d E =-.548957E-01  mag=     0.0938
       N       E                     dE             d eps       ncg     rms          ort
SDA:   1    -0.486316575851E+03    0.40752E+01    0.00000E+00   688   0.106E+02 0.000E+00
CGA:   2    -0.489444486559E+03   -0.31279E+01   -0.31282E+01   688   0.332E+01-0.655E-02
CGA:   3    -0.490208672612E+03   -0.76419E+00   -0.76498E+00   688   0.846E+00 0.617E-02
CGA:   4    -0.490375700160E+03   -0.16703E+00   -0.16720E+00   688   0.187E+00 0.310E-03
CGA:   5    -0.490415531679E+03   -0.39832E-01   -0.39815E-01   688   0.477E-01-0.262E-04
CGA:   6    -0.490428141333E+03   -0.12610E-01   -0.12610E-01   688   0.164E-01 0.866E-05
CGA:   7    -0.490433137126E+03   -0.49958E-02   -0.49948E-02   688   0.789E-02 0.173E-04
CGA:   8    -0.490435618441E+03   -0.24813E-02   -0.24800E-02   688   0.353E-02 0.243E-04
CGA:   9    -0.490436669046E+03   -0.10506E-02   -0.10504E-02   688   0.128E-02 0.731E-05
CGA:  10    -0.490437046076E+03   -0.37703E-03   -0.37700E-03   688   0.442E-03 0.503E-06
CGA:  11    -0.490437179692E+03   -0.13362E-03   -0.13352E-03   688   0.179E-03 0.287E-05
CGA:  12    -0.490437242343E+03   -0.62650E-04   -0.62681E-04   688   0.915E-04-0.470E-06
  28 F= -.49470217E+03 E0= -.49468862E+03  d E =-.102244E+00  mag=     0.0618
       N       E                     dE             d eps       ncg     rms          ort
SDA:   1    -0.488898960121E+03    0.15382E+01    0.00000E+00   688   0.412E+01 0.000E+00
CGA:   2    -0.490113894018E+03   -0.12149E+01   -0.12150E+01   688   0.126E+01-0.320E-02
CGA:   3    -0.490407150062E+03   -0.29326E+00   -0.29357E+00   688   0.302E+00 0.203E-02
CGA:   4    -0.490469198465E+03   -0.62048E-01   -0.62061E-01   688   0.655E-01 0.552E-05
CGA:   5    -0.490482946153E+03   -0.13748E-01   -0.13745E-01   688   0.178E-01 0.197E-04
CGA:   6    -0.490487407249E+03   -0.44611E-02   -0.44611E-02   688   0.570E-02-0.598E-05
CGA:   7    -0.490489194200E+03   -0.17870E-02   -0.17870E-02   688   0.261E-02-0.116E-05
CGA:   8    -0.490490054139E+03   -0.85994E-03   -0.85951E-03   688   0.115E-02 0.778E-05
CGA:   9    -0.490490406381E+03   -0.35224E-03   -0.35224E-03   688   0.381E-03 0.998E-08
CGA:  10    -0.490490524647E+03   -0.11827E-03   -0.11826E-03   688   0.110E-03 0.246E-06
CGA:  11    -0.490490561327E+03   -0.36679E-04   -0.36650E-04   688   0.400E-04 0.540E-06
  29 F= -.49475488E+03 E0= -.49474180E+03  d E =-.527089E-01  mag=     0.0560
       N       E                     dE             d eps       ncg     rms          ort
SDA:   1    -0.488156230331E+03    0.23343E+01    0.00000E+00   688   0.611E+01 0.000E+00
CGA:   2    -0.489955710063E+03   -0.17995E+01   -0.17996E+01   688   0.187E+01-0.562E-02
CGA:   3    -0.490390180174E+03   -0.43447E+00   -0.43503E+00   688   0.452E+00 0.316E-02
CGA:   4    -0.490482174338E+03   -0.91994E-01   -0.92033E-01   688   0.990E-01 0.440E-04
CGA:   5    -0.490502943434E+03   -0.20769E-01   -0.20762E-01   688   0.262E-01 0.193E-04
CGA:   6    -0.490509611753E+03   -0.66683E-02   -0.66684E-02   688   0.843E-02-0.460E-05
CGA:   7    -0.490512261023E+03   -0.26493E-02   -0.26493E-02   688   0.389E-02-0.152E-05
CGA:   8    -0.490513537613E+03   -0.12766E-02   -0.12761E-02   688   0.171E-02 0.953E-05
CGA:   9    -0.490514060902E+03   -0.52329E-03   -0.52327E-03   688   0.560E-03 0.517E-06
CGA:  10    -0.490514235111E+03   -0.17421E-03   -0.17421E-03   688   0.162E-03 0.335E-07
CGA:  11    -0.490514288438E+03   -0.53326E-04   -0.53290E-04   688   0.588E-04 0.758E-06
  30 F= -.49477774E+03 E0= -.49476476E+03  d E =-.755625E-01  mag=     0.0527
       N       E                     dE             d eps       ncg     rms          ort
SDA:   1    -0.488059053616E+03    0.24552E+01    0.00000E+00   688   0.642E+01 0.000E+00
CGA:   2    -0.489969017252E+03   -0.19100E+01   -0.19101E+01   688   0.192E+01-0.599E-02
CGA:   3    -0.490428643662E+03   -0.45963E+00   -0.45971E+00   688   0.450E+00 0.664E-03
CGA:   4    -0.490520943144E+03   -0.92299E-01   -0.92329E-01   688   0.929E-01 0.415E-04
CGA:   5    -0.490541398322E+03   -0.20455E-01   -0.20452E-01   688   0.249E-01 0.278E-04
CGA:   6    -0.490547596765E+03   -0.61984E-02   -0.61985E-02   688   0.822E-02-0.552E-05
CGA:   7    -0.490550084323E+03   -0.24876E-02   -0.24876E-02   688   0.377E-02 0.235E-06
CGA:   8    -0.490551271005E+03   -0.11867E-02   -0.11866E-02   688   0.170E-02 0.273E-05
CGA:   9    -0.490551778223E+03   -0.50722E-03   -0.50720E-03   688   0.580E-03 0.116E-05
CGA:  10    -0.490551950738E+03   -0.17252E-03   -0.17253E-03   688   0.186E-03-0.893E-06
CGA:  11    -0.490552005874E+03   -0.55136E-04   -0.55142E-04   688   0.691E-04-0.421E-06
  31 F= -.49481497E+03 E0= -.49480162E+03  d E =-.372353E-01  mag=     0.0483
       N       E                     dE             d eps       ncg     rms          ort
SDA:   1    -0.490548981498E+03    0.29692E-02    0.00000E+00   688   0.793E-02 0.000E+00
CGA:   2    -0.490551352625E+03   -0.23711E-02   -0.23712E-02   688   0.236E-02-0.415E-05
CGA:   3    -0.490551923679E+03   -0.57105E-03   -0.57101E-03   688   0.554E-03-0.981E-06
CGA:   4    -0.490552039298E+03   -0.11562E-03   -0.11568E-03   688   0.119E-03 0.888E-06
CGA:   5    -0.490552064969E+03   -0.25671E-04   -0.25602E-04   688   0.385E-04-0.106E-05
  32 F= -.49481505E+03 E0= -.49480167E+03  d E =-.373121E-01  mag=     0.0490
       N       E                     dE             d eps       ncg     rms          ort
SDA:   1    -0.488555404052E+03    0.19966E+01    0.00000E+00   688   0.524E+01 0.000E+00
CGA:   2    -0.490125976918E+03   -0.15706E+01   -0.15706E+01   688   0.154E+01-0.101E-02
CGA:   3    -0.490495916807E+03   -0.36994E+00   -0.36986E+00   688   0.366E+00-0.726E-03
CGA:   4    -0.490572428101E+03   -0.76511E-01   -0.76550E-01   688   0.706E-01 0.866E-04
CGA:   5    -0.490588914101E+03   -0.16486E-01   -0.16486E-01   688   0.194E-01 0.169E-04
CGA:   6    -0.490593928385E+03   -0.50143E-02   -0.50143E-02   688   0.688E-02-0.738E-05
CGA:   7    -0.490596024934E+03   -0.20965E-02   -0.20965E-02   688   0.323E-02 0.192E-05
CGA:   8    -0.490597050355E+03   -0.10254E-02   -0.10254E-02   688   0.143E-02-0.387E-07
CGA:   9    -0.490597459415E+03   -0.40906E-03   -0.40903E-03   688   0.517E-03 0.164E-05
CGA:  10    -0.490597603553E+03   -0.14414E-03   -0.14414E-03   688   0.164E-03-0.864E-07
CGA:  11    -0.490597654249E+03   -0.50696E-04   -0.50700E-04   688   0.586E-04-0.116E-06
  33 F= -.49486071E+03 E0= -.49484781E+03  d E =-.456642E-01  mag=     0.0419
       N       E                     dE             d eps       ncg     rms          ort
SDA:   1    -0.489810776142E+03    0.78683E+00    0.00000E+00   688   0.204E+01 0.000E+00
CGA:   2    -0.490421913427E+03   -0.61114E+00   -0.61115E+00   688   0.598E+00-0.196E-03
CGA:   3    -0.490566057526E+03   -0.14414E+00   -0.14412E+00   688   0.141E+00-0.162E-03
CGA:   4    -0.490595809935E+03   -0.29752E-01   -0.29761E-01   688   0.265E-01 0.179E-05
CGA:   5    -0.490602155911E+03   -0.63460E-02   -0.63462E-02   688   0.719E-02 0.909E-05
CGA:   6    -0.490604047232E+03   -0.18913E-02   -0.18913E-02   688   0.267E-02-0.486E-05
CGA:   7    -0.490604840933E+03   -0.79370E-03   -0.79370E-03   688   0.132E-02 0.212E-06
CGA:   8    -0.490605244287E+03   -0.40335E-03   -0.40336E-03   688   0.570E-03-0.442E-06
CGA:   9    -0.490605413686E+03   -0.16940E-03   -0.16939E-03   688   0.196E-03 0.465E-06
CGA:  10    -0.490605470534E+03   -0.56848E-04   -0.56849E-04   688   0.653E-04-0.104E-06
  34 F= -.49486853E+03 E0= -.49485604E+03  d E =-.534791E-01  mag=     0.0374
       N       E                     dE             d eps       ncg     rms          ort
SDA:   1    -0.489027022944E+03    0.15784E+01    0.00000E+00   688   0.421E+01 0.000E+00
CGA:   2    -0.490264477157E+03   -0.12375E+01   -0.12374E+01   688   0.124E+01 0.133E-02
CGA:   3    -0.490558206076E+03   -0.29373E+00   -0.29360E+00   688   0.310E+00-0.910E-03
CGA:   4    -0.490622882022E+03   -0.64676E-01   -0.64756E-01   688   0.555E-01 0.200E-03
CGA:   5    -0.490636823575E+03   -0.13942E-01   -0.13942E-01   688   0.137E-01 0.132E-04
CGA:   6    -0.490640756309E+03   -0.39327E-02   -0.39327E-02   688   0.487E-02 0.249E-05
CGA:   7    -0.490642339167E+03   -0.15829E-02   -0.15826E-02   688   0.237E-02 0.451E-05
CGA:   8    -0.490643092541E+03   -0.75337E-03   -0.75342E-03   688   0.100E-02-0.140E-05
CGA:   9    -0.490643393840E+03   -0.30130E-03   -0.30123E-03   688   0.336E-03 0.288E-05
CGA:  10    -0.490643491999E+03   -0.98159E-04   -0.98159E-04   688   0.114E-03-0.478E-07
  35 F= -.49490643E+03 E0= -.49489516E+03  d E =-.379029E-01  mag=     0.0255
       N       E                     dE             d eps       ncg     rms          ort
SDA:   1    -0.489755735355E+03    0.88766E+00    0.00000E+00   688   0.233E+01 0.000E+00
CGA:   2    -0.490442260240E+03   -0.68652E+00   -0.68651E+00   688   0.683E+00 0.699E-03
CGA:   3    -0.490605384837E+03   -0.16312E+00   -0.16307E+00   688   0.167E+00-0.365E-03
CGA:   4    -0.490640690315E+03   -0.35305E-01   -0.35334E-01   688   0.299E-01 0.609E-04
CGA:   5    -0.490648250643E+03   -0.75603E-02   -0.75605E-02   688   0.738E-02 0.497E-05
CGA:   6    -0.490650385664E+03   -0.21350E-02   -0.21350E-02   688   0.266E-02 0.315E-05
CGA:   7    -0.490651249913E+03   -0.86425E-03   -0.86423E-03   688   0.136E-02 0.383E-06
CGA:   8    -0.490651655999E+03   -0.40609E-03   -0.40607E-03   688   0.605E-03 0.898E-06
CGA:   9    -0.490651830638E+03   -0.17464E-03   -0.17463E-03   688   0.196E-03 0.766E-06
CGA:  10    -0.490651891425E+03   -0.60787E-04   -0.60788E-04   688   0.601E-04-0.457E-07
  36 F= -.49491466E+03 E0= -.49490440E+03  d E =-.461353E-01  mag=     0.0168
       N       E                     dE             d eps       ncg     rms          ort
SDA:   1    -0.489497709672E+03    0.11541E+01    0.00000E+00   688   0.307E+01 0.000E+00
CGA:   2    -0.490385664775E+03   -0.88796E+00   -0.88796E+00   688   0.952E+00 0.743E-04
CGA:   3    -0.490608521614E+03   -0.22286E+00   -0.22267E+00   688   0.233E+00-0.967E-03
CGA:   4    -0.490657937030E+03   -0.49415E-01   -0.49439E-01   688   0.411E-01 0.613E-04
CGA:   5    -0.490668314385E+03   -0.10377E-01   -0.10378E-01   688   0.107E-01 0.189E-04
CGA:   6    -0.490671187006E+03   -0.28726E-02   -0.28726E-02   688   0.414E-02-0.118E-05
CGA:   7    -0.490672379789E+03   -0.11928E-02   -0.11927E-02   688   0.196E-02 0.583E-05
CGA:   8    -0.490672993914E+03   -0.61413E-03   -0.61416E-03   688   0.834E-03-0.109E-05
CGA:   9    -0.490673252790E+03   -0.25888E-03   -0.25883E-03   688   0.274E-03 0.147E-05
CGA:  10    -0.490673339319E+03   -0.86529E-04   -0.86510E-04   688   0.834E-04 0.575E-06
  37 F= -.49493484E+03 E0= -.49492440E+03  d E =-.201714E-01  mag=     0.0161
       N       E                     dE             d eps       ncg     rms          ort
SDA:   1    -0.490670745245E+03    0.25075E-02    0.00000E+00   688   0.717E-02 0.000E+00
CGA:   2    -0.490672804450E+03   -0.20592E-02   -0.20592E-02   688   0.231E-02 0.214E-05
CGA:   3    -0.490673321974E+03   -0.51752E-03   -0.51737E-03   688   0.638E-03-0.218E-05
CGA:   4    -0.490673445107E+03   -0.12313E-03   -0.12318E-03   688   0.133E-03 0.588E-06
CGA:   5    -0.490673474000E+03   -0.28894E-04   -0.28880E-04   688   0.373E-04-0.226E-06
  38 F= -.49493491E+03 E0= -.49492443E+03  d E =-.202420E-01  mag=     0.0165
       N       E                     dE             d eps       ncg     rms          ort
SDA:   1    -0.489985494896E+03    0.68795E+00    0.00000E+00   688   0.183E+01 0.000E+00
CGA:   2    -0.490520110929E+03   -0.53462E+00   -0.53462E+00   688   0.580E+00-0.150E-03
CGA:   3    -0.490655023627E+03   -0.13491E+00   -0.13484E+00   688   0.140E+00-0.532E-03
CGA:   4    -0.490685085453E+03   -0.30062E-01   -0.30069E-01   688   0.255E-01 0.163E-04
CGA:   5    -0.490691408252E+03   -0.63228E-02   -0.63230E-02   688   0.726E-02 0.104E-04
CGA:   6    -0.490693277278E+03   -0.18690E-02   -0.18690E-02   688   0.298E-02-0.578E-05
CGA:   7    -0.490694102078E+03   -0.82480E-03   -0.82477E-03   688   0.139E-02 0.351E-05
CGA:   8    -0.490694543790E+03   -0.44171E-03   -0.44169E-03   688   0.589E-03 0.468E-06
CGA:   9    -0.490694726235E+03   -0.18244E-03   -0.18245E-03   688   0.207E-03-0.225E-06
CGA:  10    -0.490694788969E+03   -0.62734E-04   -0.62690E-04   688   0.656E-04 0.143E-05
  39 F= -.49495493E+03 E0= -.49494401E+03  d E =-.200202E-01  mag=     0.0207
       N       E                     dE             d eps       ncg     rms          ort
SDA:   1    -0.490391970702E+03    0.30276E+00    0.00000E+00   688   0.795E+00 0.000E+00
CGA:   2    -0.490623646308E+03   -0.23168E+00   -0.23168E+00   688   0.252E+00-0.747E-04
CGA:   3    -0.490682230987E+03   -0.58585E-01   -0.58564E-01   688   0.606E-01-0.129E-03
CGA:   4    -0.490695254157E+03   -0.13023E-01   -0.13025E-01   688   0.109E-01-0.230E-05
CGA:   5    -0.490697997009E+03   -0.27429E-02   -0.27429E-02   688   0.289E-02 0.374E-05
CGA:   6    -0.490698804306E+03   -0.80730E-03   -0.80731E-03   688   0.113E-02-0.197E-05
CGA:   7    -0.490699144574E+03   -0.34027E-03   -0.34023E-03   688   0.563E-03 0.132E-05
CGA:   8    -0.490699317131E+03   -0.17256E-03   -0.17256E-03   688   0.250E-03-0.203E-06
CGA:   9    -0.490699391145E+03   -0.74014E-04   -0.74001E-04   688   0.870E-04 0.648E-06
  40 F= -.49495864E+03 E0= -.49494738E+03  d E =-.237300E-01  mag=     0.0243
       N       E                     dE             d eps       ncg     rms          ort
SDA:   1    -0.490036077748E+03    0.66324E+00    0.00000E+00   688   0.175E+01 0.000E+00
CGA:   2    -0.490554978009E+03   -0.51890E+00   -0.51893E+00   688   0.556E+00-0.819E-03
CGA:   3    -0.490683484591E+03   -0.12851E+00   -0.12846E+00   688   0.131E+00-0.255E-03
CGA:   4    -0.490711340021E+03   -0.27855E-01   -0.27864E-01   688   0.245E-01 0.191E-04
CGA:   5    -0.490717329680E+03   -0.59897E-02   -0.59899E-02   688   0.702E-02 0.152E-04
CGA:   6    -0.490719123004E+03   -0.17933E-02   -0.17932E-02   688   0.282E-02-0.664E-05
CGA:   7    -0.490719909710E+03   -0.78671E-03   -0.78669E-03   688   0.129E-02 0.276E-05
CGA:   8    -0.490720316189E+03   -0.40648E-03   -0.40643E-03   688   0.540E-03 0.118E-05
CGA:   9    -0.490720480147E+03   -0.16396E-03   -0.16396E-03   688   0.188E-03-0.785E-07
CGA:  10    -0.490720536584E+03   -0.56437E-04   -0.56411E-04   688   0.563E-04 0.103E-05
  41 F= -.49497932E+03 E0= -.49496796E+03  d E =-.206829E-01  mag=     0.0251
       N       E                     dE             d eps       ncg     rms          ort
SDA:   1    -0.488223402076E+03    0.24971E+01    0.00000E+00   688   0.645E+01 0.000E+00
CGA:   2    -0.490124791369E+03   -0.19014E+01   -0.19015E+01   688   0.207E+01-0.552E-02
CGA:   3    -0.490598045392E+03   -0.47325E+00   -0.47291E+00   688   0.501E+00-0.163E-02
CGA:   4    -0.490701923233E+03   -0.10388E+00   -0.10396E+00   688   0.989E-01 0.178E-03
CGA:   5    -0.490724798206E+03   -0.22875E-01   -0.22872E-01   688   0.288E-01 0.154E-04
CGA:   6    -0.490731869065E+03   -0.70709E-02   -0.70710E-02   688   0.107E-01-0.718E-05
CGA:   7    -0.490734976838E+03   -0.31078E-02   -0.31077E-02   688   0.465E-02 0.498E-05
CGA:   8    -0.490736519803E+03   -0.15430E-02   -0.15428E-02   688   0.196E-02 0.406E-05
CGA:   9    -0.490737130632E+03   -0.61083E-03   -0.61084E-03   688   0.680E-03-0.218E-06
CGA:  10    -0.490737340536E+03   -0.20990E-03   -0.20984E-03   688   0.202E-03 0.202E-05
CGA:  11    -0.490737412068E+03   -0.71531E-04   -0.71668E-04   688   0.728E-04-0.179E-05
  42 F= -.49499518E+03 E0= -.49498375E+03  d E =-.365453E-01  mag=     0.0247
       N       E                     dE             d eps       ncg     rms          ort
SDA:   1    -0.489630001656E+03    0.11073E+01    0.00000E+00   688   0.285E+01 0.000E+00
CGA:   2    -0.490498001238E+03   -0.86800E+00   -0.86804E+00   688   0.860E+00-0.136E-02
CGA:   3    -0.490702517945E+03   -0.20452E+00   -0.20454E+00   688   0.202E+00 0.167E-03
CGA:   4    -0.490743892131E+03   -0.41374E-01   -0.41389E-01   688   0.415E-01 0.642E-05
CGA:   5    -0.490753541301E+03   -0.96492E-02   -0.96494E-02   688   0.120E-01 0.224E-04
CGA:   6    -0.490756572307E+03   -0.30310E-02   -0.30310E-02   688   0.456E-02-0.562E-05
CGA:   7    -0.490757910750E+03   -0.13384E-02   -0.13384E-02   688   0.209E-02 0.335E-05
CGA:   8    -0.490758573980E+03   -0.66323E-03   -0.66310E-03   688   0.852E-03 0.337E-05
CGA:   9    -0.490758832280E+03   -0.25830E-03   -0.25829E-03   688   0.278E-03 0.619E-06
CGA:  10    -0.490758916380E+03   -0.84099E-04   -0.84085E-04   688   0.854E-04 0.744E-06
  43 F= -.49501701E+03 E0= -.49500585E+03  d E =-.218333E-01  mag=     0.0212
       N       E                     dE             d eps       ncg     rms          ort
SDA:   1    -0.489869218218E+03    0.88961E+00    0.00000E+00   688   0.226E+01 0.000E+00
CGA:   2    -0.490558067669E+03   -0.68885E+00   -0.68889E+00   688   0.681E+00-0.976E-03
CGA:   3    -0.490720521006E+03   -0.16245E+00   -0.16247E+00   688   0.158E+00 0.131E-03
CGA:   4    -0.490753142232E+03   -0.32621E-01   -0.32630E-01   688   0.322E-01 0.313E-05
CGA:   5    -0.490760720521E+03   -0.75783E-02   -0.75788E-02   688   0.913E-02 0.209E-04
CGA:   6    -0.490763102817E+03   -0.23823E-02   -0.23822E-02   688   0.348E-02-0.635E-05
CGA:   7    -0.490764144034E+03   -0.10412E-02   -0.10411E-02   688   0.163E-02 0.428E-05
CGA:   8    -0.490764655152E+03   -0.51112E-03   -0.51106E-03   688   0.662E-03 0.173E-05
CGA:   9    -0.490764853852E+03   -0.19870E-03   -0.19868E-03   688   0.215E-03 0.117E-05
CGA:  10    -0.490764918736E+03   -0.64884E-04   -0.64876E-04   688   0.666E-04 0.425E-06
  44 F= -.49502327E+03 E0= -.49501236E+03  d E =-.280896E-01  mag=     0.0174
       N       E                     dE             d eps       ncg     rms          ort
SDA:   1    -0.490127865027E+03    0.63699E+00    0.00000E+00   688   0.164E+01 0.000E+00
CGA:   2    -0.490632506464E+03   -0.50464E+00   -0.50465E+00   688   0.490E+00-0.162E-03
CGA:   3    -0.490748354643E+03   -0.11585E+00   -0.11585E+00   688   0.115E+00 0.304E-04
CGA:   4    -0.490772179729E+03   -0.23825E-01   -0.23829E-01   688   0.233E-01-0.165E-04
CGA:   5    -0.490777584229E+03   -0.54045E-02   -0.54049E-02   688   0.659E-02 0.127E-04
CGA:   6    -0.490779284029E+03   -0.16998E-02   -0.16997E-02   688   0.245E-02-0.559E-05
CGA:   7    -0.490780025475E+03   -0.74145E-03   -0.74138E-03   688   0.114E-02 0.264E-05
CGA:   8    -0.490780385677E+03   -0.36020E-03   -0.36015E-03   688   0.467E-03 0.140E-05
CGA:   9    -0.490780524019E+03   -0.13834E-03   -0.13833E-03   688   0.153E-03 0.839E-06
CGA:  10    -0.490780569326E+03   -0.45306E-04   -0.45298E-04   688   0.460E-04 0.516E-06
  45 F= -.49503941E+03 E0= -.49502861E+03  d E =-.161405E-01  mag=     0.0162
       N       E                     dE             d eps       ncg     rms          ort
SDA:   1    -0.490176945898E+03    0.60358E+00    0.00000E+00   688   0.153E+01 0.000E+00
CGA:   2    -0.490647046729E+03   -0.47010E+00   -0.47011E+00   688   0.457E+00-0.145E-03
CGA:   3    -0.490755082885E+03   -0.10804E+00   -0.10804E+00   688   0.107E+00 0.284E-04
CGA:   4    -0.490777310199E+03   -0.22227E-01   -0.22231E-01   688   0.218E-01-0.162E-04
CGA:   5    -0.490782359830E+03   -0.50496E-02   -0.50500E-02   688   0.613E-02 0.121E-04
CGA:   6    -0.490783949310E+03   -0.15895E-02   -0.15894E-02   688   0.227E-02-0.529E-05
CGA:   7    -0.490784639348E+03   -0.69004E-03   -0.68997E-03   688   0.105E-02 0.256E-05
CGA:   8    -0.490784972449E+03   -0.33310E-03   -0.33305E-03   688   0.431E-03 0.118E-05
CGA:   9    -0.490785099985E+03   -0.12754E-03   -0.12752E-03   688   0.141E-03 0.948E-06
CGA:  10    -0.490785141716E+03   -0.41731E-04   -0.41725E-04   688   0.428E-04 0.412E-06
  46 F= -.49504443E+03 E0= -.49503373E+03  d E =-.211605E-01  mag=     0.0150
       N       E                     dE             d eps       ncg     rms          ort
SDA:   1    -0.490277514867E+03    0.50759E+00    0.00000E+00   688   0.130E+01 0.000E+00
CGA:   2    -0.490684849036E+03   -0.40733E+00   -0.40734E+00   688   0.378E+00-0.159E-03
CGA:   3    -0.490775277946E+03   -0.90429E-01   -0.90435E-01   688   0.858E-01 0.586E-04
CGA:   4    -0.490793211954E+03   -0.17934E-01   -0.17935E-01   688   0.174E-01-0.122E-04
CGA:   5    -0.490797306210E+03   -0.40943E-02   -0.40947E-02   688   0.481E-02 0.125E-04
CGA:   6    -0.490798575824E+03   -0.12696E-02   -0.12696E-02   688   0.181E-02-0.397E-05
CGA:   7    -0.490799129583E+03   -0.55376E-03   -0.55369E-03   688   0.865E-03 0.234E-05
CGA:   8    -0.490799394853E+03   -0.26527E-03   -0.26526E-03   688   0.357E-03 0.192E-06
CGA:   9    -0.490799499305E+03   -0.10445E-03   -0.10444E-03   688   0.113E-03 0.563E-06
CGA:  10    -0.490799533187E+03   -0.33882E-04   -0.33879E-04   688   0.349E-04 0.167E-06
  47 F= -.49505924E+03 E0= -.49504829E+03  d E =-.148080E-01  mag=     0.0156
       N       E                     dE             d eps       ncg     rms          ort
SDA:   1    -0.488575128554E+03    0.22244E+01    0.00000E+00   688   0.558E+01 0.000E+00
CGA:   2    -0.490316658101E+03   -0.17415E+01   -0.17416E+01   688   0.164E+01-0.159E-02
CGA:   3    -0.490703721964E+03   -0.38706E+00   -0.38713E+00   688   0.389E+00 0.511E-03
CGA:   4    -0.490782127263E+03   -0.78405E-01   -0.78433E-01   688   0.835E-01 0.721E-05
CGA:   5    -0.490800726536E+03   -0.18599E-01   -0.18597E-01   688   0.231E-01 0.228E-04
CGA:   6    -0.490806658742E+03   -0.59322E-02   -0.59322E-02   688   0.810E-02-0.366E-05
CGA:   7    -0.490809215737E+03   -0.25570E-02   -0.25569E-02   688   0.368E-02 0.238E-05
CGA:   8    -0.490810419674E+03   -0.12039E-02   -0.12037E-02   688   0.148E-02 0.421E-05
CGA:   9    -0.490810871636E+03   -0.45196E-03   -0.45195E-03   688   0.469E-03 0.402E-06
CGA:  10    -0.490811014039E+03   -0.14240E-03   -0.14240E-03   688   0.144E-03 0.274E-06
CGA:  11    -0.490811061925E+03   -0.47886E-04   -0.47915E-04   688   0.551E-04-0.551E-06
  48 F= -.49507154E+03 E0= -.49506002E+03  d E =-.271112E-01  mag=     0.0168
       N       E                     dE             d eps       ncg     rms          ort
SDA:   1    -0.490204138434E+03    0.60688E+00    0.00000E+00   688   0.155E+01 0.000E+00
CGA:   2    -0.490689857020E+03   -0.48572E+00   -0.48573E+00   688   0.455E+00-0.206E-03
CGA:   3    -0.490797841031E+03   -0.10798E+00   -0.10799E+00   688   0.103E+00 0.530E-04
CGA:   4    -0.490819282043E+03   -0.21441E-01   -0.21443E-01   688   0.209E-01-0.117E-04
CGA:   5    -0.490824228307E+03   -0.49463E-02   -0.49467E-02   688   0.575E-02 0.128E-04
CGA:   6    -0.490825727074E+03   -0.14988E-02   -0.14987E-02   688   0.221E-02-0.406E-05
CGA:   7    -0.490826378653E+03   -0.65158E-03   -0.65156E-03   688   0.105E-02 0.160E-05
CGA:   8    -0.490826703273E+03   -0.32462E-03   -0.32463E-03   688   0.417E-03-0.314E-06
CGA:   9    -0.490826830508E+03   -0.12724E-03   -0.12724E-03   688   0.128E-03-0.313E-07
CGA:  10    -0.490826869411E+03   -0.38903E-04   -0.38900E-04   688   0.403E-04 0.130E-06
  49 F= -.49508645E+03 E0= -.49507480E+03  d E =-.149032E-01  mag=     0.0164
       N       E                     dE             d eps       ncg     rms          ort
SDA:   1    -0.488882181803E+03    0.19446E+01    0.00000E+00   688   0.487E+01 0.000E+00
CGA:   2    -0.490406932040E+03   -0.15248E+01   -0.15248E+01   688   0.144E+01-0.128E-02
CGA:   3    -0.490746297712E+03   -0.33937E+00   -0.33941E+00   688   0.331E+00 0.357E-03
CGA:   4    -0.490814174122E+03   -0.67876E-01   -0.67899E-01   688   0.702E-01 0.948E-05
CGA:   5    -0.490830158659E+03   -0.15985E-01   -0.15984E-01   688   0.194E-01 0.235E-04
CGA:   6    -0.490835162086E+03   -0.50034E-02   -0.50034E-02   688   0.702E-02-0.567E-05
CGA:   7    -0.490837329358E+03   -0.21673E-02   -0.21672E-02   688   0.321E-02 0.275E-05
CGA:   8    -0.490838364787E+03   -0.10354E-02   -0.10354E-02   688   0.128E-02 0.941E-06
CGA:   9    -0.490838751794E+03   -0.38701E-03   -0.38700E-03   688   0.407E-03 0.185E-06
CGA:  10    -0.490838871573E+03   -0.11978E-03   -0.11978E-03   688   0.128E-03-0.112E-07
CGA:  11    -0.490838911477E+03   -0.39904E-04   -0.39920E-04   688   0.493E-04-0.558E-06
  50 F= -.49509685E+03 E0= -.49508510E+03  d E =-.253088E-01  mag=     0.0161
       N       E                     dE             d eps       ncg     rms          ort
SDA:   1    -0.489927904561E+03    0.91097E+00    0.00000E+00   688   0.228E+01 0.000E+00
CGA:   2    -0.490644674730E+03   -0.71677E+00   -0.71675E+00   688   0.704E+00 0.463E-03
CGA:   3    -0.490805794311E+03   -0.16112E+00   -0.16110E+00   688   0.163E+00-0.876E-04
CGA:   4    -0.490839962563E+03   -0.34168E-01   -0.34177E-01   688   0.329E-01-0.110E-04
CGA:   5    -0.490847627709E+03   -0.76651E-02   -0.76654E-02   688   0.892E-02 0.103E-04
CGA:   6    -0.490849919866E+03   -0.22922E-02   -0.22921E-02   688   0.324E-02-0.515E-05
CGA:   7    -0.490850889260E+03   -0.96939E-03   -0.96935E-03   688   0.152E-02 0.197E-05
CGA:   8    -0.490851364029E+03   -0.47477E-03   -0.47479E-03   688   0.630E-03-0.751E-06
CGA:   9    -0.490851554105E+03   -0.19008E-03   -0.19007E-03   688   0.198E-03 0.167E-06
CGA:  10    -0.490851614266E+03   -0.60161E-04   -0.60155E-04   688   0.597E-04 0.307E-06
  51 F= -.49510794E+03 E0= -.49509613E+03  d E =-.110926E-01  mag=     0.0198
       N       E                     dE             d eps       ncg     rms          ort
SDA:   1    -0.490850405590E+03    0.11485E-02    0.00000E+00   688   0.325E-02 0.000E+00
CGA:   2    -0.490851418176E+03   -0.10126E-02   -0.10126E-02   688   0.104E-02 0.546E-07
CGA:   3    -0.490851647114E+03   -0.22894E-03   -0.22896E-03   688   0.268E-03 0.360E-06
CGA:   4    -0.490851698713E+03   -0.51599E-04   -0.51542E-04   688   0.608E-04-0.627E-06
  52 F= -.49510797E+03 E0= -.49509614E+03  d E =-.111159E-01  mag=     0.0204
       N       E                     dE             d eps       ncg     rms          ort
SDA:   1    -0.490062062076E+03    0.78959E+00    0.00000E+00   688   0.197E+01 0.000E+00
CGA:   2    -0.490687992978E+03   -0.62593E+00   -0.62595E+00   688   0.595E+00-0.236E-03
CGA:   3    -0.490826572927E+03   -0.13858E+00   -0.13859E+00   688   0.133E+00 0.740E-04
CGA:   4    -0.490854346986E+03   -0.27774E-01   -0.27778E-01   688   0.275E-01 0.242E-06
CGA:   5    -0.490860875704E+03   -0.65287E-02   -0.65290E-02   688   0.723E-02 0.120E-04
CGA:   6    -0.490862838717E+03   -0.19630E-02   -0.19630E-02   688   0.265E-02-0.340E-05
CGA:   7    -0.490863673163E+03   -0.83445E-03   -0.83434E-03   688   0.128E-02 0.256E-05
CGA:   8    -0.490864060424E+03   -0.38726E-03   -0.38729E-03   688   0.537E-03-0.105E-05
CGA:   9    -0.490864215061E+03   -0.15464E-03   -0.15463E-03   688   0.165E-03 0.491E-06
CGA:  10    -0.490864264481E+03   -0.49420E-04   -0.49426E-04   688   0.508E-04-0.216E-06
  53 F= -.49511913E+03 E0= -.49510710E+03  d E =-.111603E-01  mag=     0.0249
       N       E                     dE             d eps       ncg     rms          ort
SDA:   1    -0.490730902120E+03    0.13331E+00    0.00000E+00   688   0.331E+00 0.000E+00
CGA:   2    -0.490836268685E+03   -0.10537E+00   -0.10537E+00   688   0.100E+00-0.136E-04
CGA:   3    -0.490859573990E+03   -0.23305E-01   -0.23306E-01   688   0.222E-01 0.738E-05
CGA:   4    -0.490864217012E+03   -0.46430E-02   -0.46430E-02   688   0.457E-02-0.525E-05
CGA:   5    -0.490865304093E+03   -0.10871E-02   -0.10872E-02   688   0.117E-02 0.333E-05
CGA:   6    -0.490865629606E+03   -0.32551E-03   -0.32551E-03   688   0.426E-03-0.102E-06
CGA:   7    -0.490865767911E+03   -0.13831E-03   -0.13832E-03   688   0.212E-03-0.224E-06
CGA:   8    -0.490865831063E+03   -0.63151E-04   -0.63149E-04   688   0.922E-04 0.890E-07
  54 F= -.49512010E+03 E0= -.49510798E+03  d E =-.121376E-01  mag=     0.0272
       N       E                     dE             d eps       ncg     rms          ort
SDA:   1    -0.490253924087E+03    0.61184E+00    0.00000E+00   688   0.152E+01 0.000E+00
CGA:   2    -0.490743699360E+03   -0.48978E+00   -0.48976E+00   688   0.463E+00 0.253E-03
CGA:   3    -0.490849749987E+03   -0.10605E+00   -0.10605E+00   688   0.102E+00 0.788E-05
CGA:   4    -0.490871215482E+03   -0.21465E-01   -0.21468E-01   688   0.209E-01-0.976E-05
CGA:   5    -0.490876231870E+03   -0.50164E-02   -0.50166E-02   688   0.563E-02 0.841E-05
CGA:   6    -0.490877725984E+03   -0.14941E-02   -0.14941E-02   688   0.218E-02-0.320E-05
CGA:   7    -0.490878375551E+03   -0.64957E-03   -0.64951E-03   688   0.105E-02 0.207E-05
CGA:   8    -0.490878691912E+03   -0.31636E-03   -0.31636E-03   688   0.415E-03-0.531E-08
CGA:   9    -0.490878815081E+03   -0.12317E-03   -0.12318E-03   688   0.124E-03-0.369E-06
CGA:  10    -0.490878852507E+03   -0.37426E-04   -0.37421E-04   688   0.366E-04 0.191E-06
  55 F= -.49513201E+03 E0= -.49511973E+03  d E =-.119101E-01  mag=     0.0298
       N       E                     dE             d eps       ncg     rms          ort
SDA:   1    -0.488153523772E+03    0.27253E+01    0.00000E+00   688   0.667E+01 0.000E+00
CGA:   2    -0.490297464746E+03   -0.21439E+01   -0.21438E+01   688   0.204E+01 0.190E-02
CGA:   3    -0.490762552605E+03   -0.46509E+00   -0.46510E+00   688   0.455E+00 0.229E-03
CGA:   4    -0.490856970724E+03   -0.94418E-01   -0.94454E-01   688   0.956E-01 0.633E-04
CGA:   5    -0.490879350333E+03   -0.22380E-01   -0.22379E-01   688   0.257E-01 0.155E-04
CGA:   6    -0.490886091732E+03   -0.67414E-02   -0.67414E-02   688   0.947E-02-0.446E-05
CGA:   7    -0.490889029677E+03   -0.29379E-02   -0.29378E-02   688   0.435E-02 0.565E-05
CGA:   8    -0.490890418526E+03   -0.13888E-02   -0.13888E-02   688   0.170E-02 0.818E-06
CGA:   9    -0.490890927102E+03   -0.50858E-03   -0.50857E-03   688   0.526E-03 0.483E-06
CGA:  10    -0.490891080277E+03   -0.15318E-03   -0.15317E-03   688   0.167E-03 0.741E-07
CGA:  11    -0.490891130799E+03   -0.50522E-04   -0.50528E-04   688   0.671E-04-0.220E-06
  56 F= -.49514194E+03 E0= -.49512927E+03  d E =-.218350E-01  mag=     0.0344
       N       E                     dE             d eps       ncg     rms          ort
SDA:   1    -0.490401678213E+03    0.48940E+00    0.00000E+00   688   0.122E+01 0.000E+00
CGA:   2    -0.490790138795E+03   -0.38846E+00   -0.38845E+00   688   0.389E+00 0.130E-03
CGA:   3    -0.490877313863E+03   -0.87175E-01   -0.87180E-01   688   0.870E-01 0.396E-04
CGA:   4    -0.490895656656E+03   -0.18343E-01   -0.18343E-01   688   0.180E-01-0.169E-04
CGA:   5    -0.490899947102E+03   -0.42904E-02   -0.42907E-02   688   0.492E-02 0.738E-05
CGA:   6    -0.490901232007E+03   -0.12849E-02   -0.12849E-02   688   0.189E-02-0.364E-05
CGA:   7    -0.490901800055E+03   -0.56805E-03   -0.56799E-03   688   0.889E-03 0.236E-05
CGA:   8    -0.490902077374E+03   -0.27732E-03   -0.27731E-03   688   0.359E-03 0.145E-06
CGA:   9    -0.490902184339E+03   -0.10696E-03   -0.10697E-03   688   0.114E-03-0.297E-06
CGA:  10    -0.490902218068E+03   -0.33730E-04   -0.33724E-04   688   0.356E-04 0.321E-06
  57 F= -.49515210E+03 E0= -.49513896E+03  d E =-.101584E-01  mag=     0.0412
       N       E                     dE             d eps       ncg     rms          ort
SDA:   1    -0.489647042663E+03    0.12551E+01    0.00000E+00   688   0.308E+01 0.000E+00
CGA:   2    -0.490626150209E+03   -0.97911E+00   -0.97908E+00   688   0.988E+00 0.487E-03
CGA:   3    -0.490846506886E+03   -0.22036E+00   -0.22038E+00   688   0.223E+00 0.134E-03
CGA:   4    -0.490893148394E+03   -0.46642E-01   -0.46645E-01   688   0.467E-01-0.149E-04
CGA:   5    -0.490904134514E+03   -0.10986E-01   -0.10986E-01   688   0.128E-01 0.143E-04
CGA:   6    -0.490907490464E+03   -0.33560E-02   -0.33559E-02   688   0.471E-02-0.567E-05
CGA:   7    -0.490908967246E+03   -0.14768E-02   -0.14766E-02   688   0.212E-02 0.483E-05
CGA:   8    -0.490909664281E+03   -0.69704E-03   -0.69704E-03   688   0.828E-03-0.169E-06
CGA:   9    -0.490909917049E+03   -0.25277E-03   -0.25275E-03   688   0.261E-03 0.651E-06
CGA:  10    -0.490909994326E+03   -0.77278E-04   -0.77277E-04   688   0.852E-04 0.411E-07
  58 F= -.49515840E+03 E0= -.49514447E+03  d E =-.164571E-01  mag=     0.0521
       N       E                     dE             d eps       ncg     rms          ort
SDA:   1    -0.490083706042E+03    0.82621E+00    0.00000E+00   688   0.205E+01 0.000E+00
CGA:   2    -0.490726392888E+03   -0.64269E+00   -0.64273E+00   688   0.666E+00-0.811E-03
CGA:   3    -0.490876779849E+03   -0.15039E+00   -0.15041E+00   688   0.152E+00 0.153E-03
CGA:   4    -0.490907736242E+03   -0.30956E-01   -0.30958E-01   688   0.323E-01-0.107E-04
CGA:   5    -0.490915404479E+03   -0.76682E-02   -0.76685E-02   688   0.839E-02 0.142E-04
CGA:   6    -0.490917671174E+03   -0.22667E-02   -0.22667E-02   688   0.308E-02-0.422E-05
CGA:   7    -0.490918634465E+03   -0.96329E-03   -0.96314E-03   688   0.143E-02 0.421E-05
CGA:   8    -0.490919085042E+03   -0.45058E-03   -0.45060E-03   688   0.590E-03-0.659E-06
CGA:   9    -0.490919260194E+03   -0.17515E-03   -0.17514E-03   688   0.192E-03 0.525E-06
CGA:  10    -0.490919316015E+03   -0.55821E-04   -0.55821E-04   688   0.648E-04 0.731E-08
  59 F= -.49516671E+03 E0= -.49515199E+03  d E =-.830991E-02  mag=     0.0619
       N       E                     dE             d eps       ncg     rms          ort
SDA:   1    -0.490914623801E+03    0.46364E-02    0.00000E+00   688   0.119E-01 0.000E+00
CGA:   2    -0.490918349758E+03   -0.37260E-02   -0.37259E-02   688   0.381E-02 0.223E-05
CGA:   3    -0.490919217583E+03   -0.86783E-03   -0.86792E-03   688   0.866E-03 0.178E-05
CGA:   4    -0.490919392013E+03   -0.17443E-03   -0.17437E-03   688   0.199E-03-0.803E-06
CGA:   5    -0.490919436948E+03   -0.44936E-04   -0.44956E-04   688   0.514E-04 0.421E-06
  60 F= -.49516675E+03 E0= -.49515191E+03  d E =-.835393E-02  mag=     0.0639
       N       E                     dE             d eps       ncg     rms          ort
SDA:   1    -0.490701525400E+03    0.21787E+00    0.00000E+00   688   0.555E+00 0.000E+00
CGA:   2    -0.490872799668E+03   -0.17127E+00   -0.17128E+00   688   0.187E+00-0.189E-04
CGA:   3    -0.490913570834E+03   -0.40771E-01   -0.40781E-01   688   0.437E-01 0.634E-04
CGA:   4    -0.490922664672E+03   -0.90938E-02   -0.90936E-02   688   0.912E-02-0.102E-04
CGA:   5    -0.490924838300E+03   -0.21736E-02   -0.21738E-02   688   0.247E-02 0.571E-05
CGA:   6    -0.490925488511E+03   -0.65021E-03   -0.65020E-03   688   0.969E-03-0.295E-05
CGA:   7    -0.490925774899E+03   -0.28639E-03   -0.28633E-03   688   0.455E-03 0.198E-05
CGA:   8    -0.490925915876E+03   -0.14098E-03   -0.14096E-03   688   0.188E-03 0.394E-06
CGA:   9    -0.490925971210E+03   -0.55334E-04   -0.55342E-04   688   0.644E-04-0.342E-06
  61 F= -.49517273E+03 E0= -.49515767E+03  d E =-.598141E-02  mag=     0.0681
       N       E                     dE             d eps       ncg     rms          ort
SDA:   1    -0.489978415739E+03    0.94750E+00    0.00000E+00   688   0.236E+01 0.000E+00
CGA:   2    -0.490705625162E+03   -0.72721E+00   -0.72722E+00   688   0.798E+00-0.167E-03
CGA:   3    -0.490879345445E+03   -0.17372E+00   -0.17380E+00   688   0.187E+00 0.428E-03
CGA:   4    -0.490917995656E+03   -0.38650E-01   -0.38654E-01   688   0.389E-01-0.593E-05
CGA:   5    -0.490927224893E+03   -0.92292E-02   -0.92297E-02   688   0.103E-01 0.157E-04
CGA:   6    -0.490929956322E+03   -0.27314E-02   -0.27314E-02   688   0.389E-02-0.558E-05
CGA:   7    -0.490931134515E+03   -0.11782E-02   -0.11780E-02   688   0.180E-02 0.521E-05
CGA:   8    -0.490931702259E+03   -0.56774E-03   -0.56772E-03   688   0.756E-03 0.400E-06
CGA:   9    -0.490931923545E+03   -0.22129E-03   -0.22128E-03   688   0.260E-03 0.181E-06
CGA:  10    -0.490931994775E+03   -0.71229E-04   -0.71228E-04   688   0.893E-04 0.679E-06
  62 F= -.49517760E+03 E0= -.49516231E+03  d E =-.108491E-01  mag=     0.0737
       N       E                     dE             d eps       ncg     rms          ort
SDA:   1    -0.490549918894E+03    0.38200E+00    0.00000E+00   688   0.961E+00 0.000E+00
CGA:   2    -0.490844897506E+03   -0.29498E+00   -0.29498E+00   688   0.333E+00-0.258E-05
CGA:   3    -0.490917113586E+03   -0.72216E-01   -0.72236E-01   688   0.775E-01 0.115E-03
CGA:   4    -0.490933191143E+03   -0.16078E-01   -0.16078E-01   688   0.157E-01-0.105E-04
CGA:   5    -0.490937015160E+03   -0.38240E-02   -0.38242E-02   688   0.406E-02 0.795E-05
CGA:   6    -0.490938132030E+03   -0.11169E-02   -0.11169E-02   688   0.153E-02-0.336E-05
CGA:   7    -0.490938611000E+03   -0.47897E-03   -0.47877E-03   688   0.704E-03 0.431E-05
CGA:   8    -0.490938837772E+03   -0.22677E-03   -0.22685E-03   688   0.284E-03-0.159E-05
CGA:   9    -0.490938924068E+03   -0.86296E-04   -0.86265E-04   688   0.895E-04 0.947E-06
  63 F= -.49518389E+03 E0= -.49516854E+03  d E =-.628842E-02  mag=     0.0765
       N       E                     dE             d eps       ncg     rms          ort
SDA:   1    -0.490778510191E+03    0.16033E+00    0.00000E+00   688   0.401E+00 0.000E+00
CGA:   2    -0.490901203559E+03   -0.12269E+00   -0.12269E+00   688   0.140E+00-0.486E-05
CGA:   3    -0.490931419212E+03   -0.30216E-01   -0.30222E-01   688   0.326E-01 0.416E-04
CGA:   4    -0.490938198975E+03   -0.67798E-02   -0.67795E-02   688   0.655E-02-0.910E-05
CGA:   5    -0.490939791748E+03   -0.15928E-02   -0.15929E-02   688   0.175E-02 0.442E-05
CGA:   6    -0.490940262860E+03   -0.47111E-03   -0.47111E-03   688   0.680E-03-0.230E-05
CGA:   7    -0.490940466107E+03   -0.20325E-03   -0.20318E-03   688   0.322E-03 0.234E-05
CGA:   8    -0.490940565752E+03   -0.99645E-04   -0.99659E-04   688   0.136E-03-0.377E-06
  64 F= -.49518511E+03 E0= -.49516971E+03  d E =-.751068E-02  mag=     0.0782
       N       E                     dE             d eps       ncg     rms          ort
SDA:   1    -0.490604551914E+03    0.33591E+00    0.00000E+00   688   0.838E+00 0.000E+00
CGA:   2    -0.490861643691E+03   -0.25709E+00   -0.25711E+00   688   0.285E+00-0.370E-03
CGA:   3    -0.490925603512E+03   -0.63960E-01   -0.63974E-01   688   0.665E-01 0.834E-04
CGA:   4    -0.490938978664E+03   -0.13375E-01   -0.13375E-01   688   0.133E-01-0.513E-05
CGA:   5    -0.490942285397E+03   -0.33067E-02   -0.33068E-02   688   0.333E-02 0.661E-05
CGA:   6    -0.490943211426E+03   -0.92603E-03   -0.92603E-03   688   0.124E-02 0.136E-06
CGA:   7    -0.490943589873E+03   -0.37845E-03   -0.37838E-03   688   0.604E-03 0.173E-05
CGA:   8    -0.490943768593E+03   -0.17872E-03   -0.17874E-03   688   0.250E-03-0.709E-06
CGA:   9    -0.490943843782E+03   -0.75189E-04   -0.75191E-04   688   0.761E-04-0.613E-07
  65 F= -.49518836E+03 E0= -.49517283E+03  d E =-.324935E-02  mag=     0.0754
       N       E                     dE             d eps       ncg     rms          ort
SDA:   1    -0.490934611571E+03    0.91570E-02    0.00000E+00   688   0.231E-01 0.000E+00
CGA:   2    -0.490941746079E+03   -0.71345E-02   -0.71345E-02   688   0.775E-02-0.374E-06
CGA:   3    -0.490943507695E+03   -0.17616E-02   -0.17615E-02   688   0.181E-02-0.120E-05
CGA:   4    -0.490943868130E+03   -0.36043E-03   -0.36046E-03   688   0.377E-03 0.363E-06
CGA:   5    -0.490943961282E+03   -0.93152E-04   -0.93141E-04   688   0.935E-04-0.462E-06
  66 F= -.49518848E+03 E0= -.49517293E+03  d E =-.337228E-02  mag=     0.0758
       N       E                     dE             d eps       ncg     rms          ort
SDA:   1    -0.490681355309E+03    0.26251E+00    0.00000E+00   688   0.657E+00 0.000E+00
CGA:   2    -0.490884476400E+03   -0.20312E+00   -0.20311E+00   688   0.222E+00 0.961E-04
CGA:   3    -0.490933755044E+03   -0.49279E-01   -0.49279E-01   688   0.518E-01 0.180E-04
CGA:   4    -0.490944364472E+03   -0.10609E-01   -0.10608E-01   688   0.104E-01-0.135E-04
CGA:   5    -0.490946903200E+03   -0.25387E-02   -0.25388E-02   688   0.267E-02 0.132E-05
CGA:   6    -0.490947620976E+03   -0.71778E-03   -0.71777E-03   688   0.103E-02 0.297E-06
CGA:   7    -0.490947923929E+03   -0.30295E-03   -0.30293E-03   688   0.488E-03 0.743E-06
CGA:   8    -0.490948073808E+03   -0.14988E-03   -0.14989E-03   688   0.198E-03-0.282E-06
CGA:   9    -0.490948134146E+03   -0.60338E-04   -0.60348E-04   688   0.645E-04-0.260E-06
  67 F= -.49519271E+03 E0= -.49517701E+03  d E =-.422860E-02  mag=     0.0732
       N       E                     dE             d eps       ncg     rms          ort
SDA:   1    -0.490906883803E+03    0.41190E-01    0.00000E+00   688   0.103E+00 0.000E+00
CGA:   2    -0.490938513159E+03   -0.31629E-01   -0.31629E-01   688   0.352E-01-0.136E-05
CGA:   3    -0.490946226202E+03   -0.77130E-02   -0.77133E-02   688   0.826E-02 0.682E-05
CGA:   4    -0.490947935150E+03   -0.17089E-02   -0.17085E-02   688   0.165E-02-0.585E-05
CGA:   5    -0.490948338266E+03   -0.40312E-03   -0.40312E-03   688   0.444E-03 0.276E-06
CGA:   6    -0.490948458951E+03   -0.12068E-03   -0.12069E-03   688   0.178E-03-0.933E-07
CGA:   7    -0.490948512532E+03   -0.53581E-04   -0.53569E-04   688   0.857E-04 0.345E-06
  68 F= -.49519311E+03 E0= -.49517731E+03  d E =-.462526E-02  mag=     0.0721
       N       E                     dE             d eps       ncg     rms          ort
SDA:   1    -0.490838154129E+03    0.11030E+00    0.00000E+00   688   0.284E+00 0.000E+00
CGA:   2    -0.490925127030E+03   -0.86973E-01   -0.86970E-01   688   0.935E-01 0.355E-04
CGA:   3    -0.490946072064E+03   -0.20945E-01   -0.20945E-01   688   0.225E-01 0.707E-05
CGA:   4    -0.490950628246E+03   -0.45562E-02   -0.45555E-02   688   0.459E-02-0.102E-04
CGA:   5    -0.490951743884E+03   -0.11156E-02   -0.11157E-02   688   0.126E-02 0.146E-05
CGA:   6    -0.490952071192E+03   -0.32731E-03   -0.32731E-03   688   0.508E-03 0.638E-06
CGA:   7    -0.490952216114E+03   -0.14492E-03   -0.14492E-03   688   0.239E-03 0.185E-06
CGA:   8    -0.490952290921E+03   -0.74807E-04   -0.74821E-04   688   0.961E-04-0.309E-06
  69 F= -.49519640E+03 E0= -.49518049E+03  d E =-.328962E-02  mag=     0.0727
       N       E                     dE             d eps       ncg     rms          ort
SDA:   1    -0.490817535398E+03    0.13468E+00    0.00000E+00   688   0.339E+00 0.000E+00
CGA:   2    -0.490921648292E+03   -0.10411E+00   -0.10411E+00   688   0.111E+00 0.533E-04
CGA:   3    -0.490946632684E+03   -0.24984E-01   -0.24984E-01   688   0.265E-01 0.502E-05
CGA:   4    -0.490952059756E+03   -0.54271E-02   -0.54265E-02   688   0.522E-02-0.105E-04
CGA:   5    -0.490953358937E+03   -0.12992E-02   -0.12992E-02   688   0.138E-02 0.144E-05
CGA:   6    -0.490953744530E+03   -0.38559E-03   -0.38558E-03   688   0.524E-03 0.962E-06
CGA:   7    -0.490953909705E+03   -0.16517E-03   -0.16517E-03   688   0.256E-03 0.176E-07
CGA:   8    -0.490953987892E+03   -0.78187E-04   -0.78204E-04   688   0.108E-03-0.482E-06
  70 F= -.49519755E+03 E0= -.49518157E+03  d E =-.444456E-02  mag=     0.0736
       N       E                     dE             d eps       ncg     rms          ort
SDA:   1    -0.490891748412E+03    0.62161E-01    0.00000E+00   688   0.162E+00 0.000E+00
CGA:   2    -0.490941036958E+03   -0.49289E-01   -0.49289E-01   688   0.524E-01-0.680E-05
CGA:   3    -0.490953027622E+03   -0.11991E-01   -0.11991E-01   688   0.126E-01 0.559E-05
CGA:   4    -0.490955536323E+03   -0.25087E-02   -0.25085E-02   688   0.254E-02-0.407E-05
CGA:   5    -0.490956147316E+03   -0.61099E-03   -0.61107E-03   688   0.696E-03 0.300E-05
CGA:   6    -0.490956323193E+03   -0.17588E-03   -0.17589E-03   688   0.276E-03 0.883E-06
CGA:   7    -0.490956400919E+03   -0.77726E-04   -0.77730E-04   688   0.125E-03-0.214E-06
  71 F= -.49519964E+03 E0= -.49518364E+03  d E =-.208577E-02  mag=     0.0732
       N       E                     dE             d eps       ncg     rms          ort
SDA:   1    -0.490885375975E+03    0.70947E-01    0.00000E+00   688   0.181E+00 0.000E+00
CGA:   2    -0.490940342067E+03   -0.54966E-01   -0.54967E-01   688   0.585E-01-0.116E-04
CGA:   3    -0.490953747773E+03   -0.13406E-01   -0.13406E-01   688   0.141E-01 0.694E-05
CGA:   4    -0.490956524050E+03   -0.27763E-02   -0.27761E-02   688   0.296E-02-0.482E-05
CGA:   5    -0.490957243846E+03   -0.71980E-03   -0.71987E-03   688   0.776E-03 0.364E-05
CGA:   6    -0.490957449829E+03   -0.20598E-03   -0.20598E-03   688   0.312E-03 0.592E-06
CGA:   7    -0.490957537731E+03   -0.87902E-04   -0.87901E-04   688   0.150E-03 0.362E-07
  72 F= -.49520043E+03 E0= -.49518444E+03  d E =-.287574E-02  mag=     0.0723
       N       E                     dE             d eps       ncg     rms          ort
SDA:   1    -0.490890933849E+03    0.66516E-01    0.00000E+00   688   0.173E+00 0.000E+00
CGA:   2    -0.490943839896E+03   -0.52906E-01   -0.52904E-01   688   0.565E-01 0.341E-04
CGA:   3    -0.490956476939E+03   -0.12637E-01   -0.12636E-01   688   0.136E-01 0.446E-05
CGA:   4    -0.490959252587E+03   -0.27756E-02   -0.27754E-02   688   0.292E-02-0.725E-05
CGA:   5    -0.490959936824E+03   -0.68424E-03   -0.68431E-03   688   0.844E-03 0.243E-05
CGA:   6    -0.490960145173E+03   -0.20835E-03   -0.20835E-03   688   0.338E-03 0.105E-06
CGA:   7    -0.490960242540E+03   -0.97366E-04   -0.97375E-04   688   0.156E-03-0.327E-06
  73 F= -.49520290E+03 E0= -.49518696E+03  d E =-.246859E-02  mag=     0.0710
       N       E                     dE             d eps       ncg     rms          ort
SDA:   1    -0.490860540020E+03    0.99605E-01    0.00000E+00   688   0.252E+00 0.000E+00
CGA:   2    -0.490937609538E+03   -0.77070E-01   -0.77066E-01   688   0.825E-01 0.588E-04
CGA:   3    -0.490956025988E+03   -0.18416E-01   -0.18415E-01   688   0.200E-01 0.191E-05
CGA:   4    -0.490960089081E+03   -0.40631E-02   -0.40628E-02   688   0.421E-02-0.888E-05
CGA:   5    -0.490961091241E+03   -0.10022E-02   -0.10023E-02   688   0.117E-02 0.385E-05
CGA:   6    -0.490961393070E+03   -0.30183E-03   -0.30183E-03   688   0.467E-03-0.642E-06
CGA:   7    -0.490961529351E+03   -0.13628E-03   -0.13627E-03   688   0.223E-03 0.309E-06
CGA:   8    -0.490961597082E+03   -0.67731E-04   -0.67723E-04   688   0.933E-04 0.175E-06
  74 F= -.49520396E+03 E0= -.49518811E+03  d E =-.353062E-02  mag=     0.0693
       N       E                     dE             d eps       ncg     rms          ort
SDA:   1    -0.490901786329E+03    0.59743E-01    0.00000E+00   688   0.156E+00 0.000E+00
CGA:   2    -0.490948849116E+03   -0.47063E-01   -0.47061E-01   688   0.512E-01 0.392E-04
CGA:   3    -0.490960373117E+03   -0.11524E-01   -0.11523E-01   688   0.125E-01 0.202E-05
CGA:   4    -0.490962919020E+03   -0.25459E-02   -0.25458E-02   688   0.246E-02-0.401E-05
[...]
CGA:   2    -0.490971511317E+03   -0.60659E-01   -0.60655E-01   688   0.695E-01 0.761E-04
CGA:   3    -0.490987003880E+03   -0.15493E-01   -0.15490E-01   688   0.171E-01-0.512E-05
CGA:   4    -0.490990481130E+03   -0.34773E-02   -0.34770E-02   688   0.340E-02-0.995E-05
CGA:   5    -0.490991284903E+03   -0.80377E-03   -0.80383E-03   688   0.911E-03 0.175E-05
CGA:   6    -0.490991522502E+03   -0.23760E-03   -0.23760E-03   688   0.341E-03 0.521E-06
CGA:   7    -0.490991622995E+03   -0.10049E-03   -0.10050E-03   688   0.161E-03-0.243E-06
CGA:   8    -0.490991671333E+03   -0.48338E-04   -0.48353E-04   688   0.680E-04-0.416E-06
  87 F= -.49522855E+03 E0= -.49521240E+03  d E =-.209252E-02  mag=     0.0773
       N       E                     dE             d eps       ncg     rms          ort
SDA:   1    -0.490970535659E+03    0.21087E-01    0.00000E+00   688   0.547E-01 0.000E+00
CGA:   2    -0.490986820390E+03   -0.16285E-01   -0.16284E-01   688   0.187E-01 0.911E-05
CGA:   3    -0.490990976533E+03   -0.41561E-02   -0.41560E-02   688   0.464E-02 0.313E-05
CGA:   4    -0.490991924503E+03   -0.94797E-03   -0.94771E-03   688   0.897E-03-0.486E-05
CGA:   5    -0.490992140389E+03   -0.21589E-03   -0.21589E-03   688   0.266E-03 0.199E-06
CGA:   6    -0.490992206116E+03   -0.65727E-04   -0.65739E-04   688   0.106E-03 0.688E-06
  88 F= -.49522881E+03 E0= -.49521278E+03  d E =-.235189E-02  mag=     0.0759
       N       E                     dE             d eps       ncg     rms          ort
SDA:   1    -0.490928316087E+03    0.63824E-01    0.00000E+00   688   0.166E+00 0.000E+00
CGA:   2    -0.490977942351E+03   -0.49626E-01   -0.49625E-01   688   0.556E-01 0.164E-04
CGA:   3    -0.490990609729E+03   -0.12667E-01   -0.12667E-01   688   0.135E-01 0.409E-05
CGA:   4    -0.490993299890E+03   -0.26902E-02   -0.26900E-02   688   0.291E-02-0.631E-05
CGA:   5    -0.490993973458E+03   -0.67357E-03   -0.67367E-03   688   0.865E-03 0.360E-05
CGA:   6    -0.490994180822E+03   -0.20736E-03   -0.20739E-03   688   0.337E-03 0.128E-05
CGA:   7    -0.490994277458E+03   -0.96635E-04   -0.96651E-04   688   0.146E-03-0.573E-06
  89 F= -.49523058E+03 E0= -.49521471E+03  d E =-.176514E-02  mag=     0.0737
       N       E                     dE             d eps       ncg     rms          ort
SDA:   1    -0.490663228345E+03    0.33095E+00    0.00000E+00   688   0.841E+00 0.000E+00
CGA:   2    -0.490914041804E+03   -0.25081E+00   -0.25080E+00   688   0.281E+00 0.137E-03
CGA:   3    -0.490977827928E+03   -0.63786E-01   -0.63783E-01   688   0.698E-01-0.216E-04
CGA:   4    -0.490991468952E+03   -0.13641E-01   -0.13643E-01   688   0.141E-01-0.126E-04
CGA:   5    -0.490994872127E+03   -0.34032E-02   -0.34034E-02   688   0.377E-02 0.109E-04
CGA:   6    -0.490995861972E+03   -0.98984E-03   -0.98985E-03   688   0.141E-02-0.541E-06
CGA:   7    -0.490996280858E+03   -0.41889E-03   -0.41884E-03   688   0.619E-03 0.132E-05
CGA:   8    -0.490996478223E+03   -0.19737E-03   -0.19745E-03   688   0.246E-03-0.140E-05
CGA:   9    -0.490996551444E+03   -0.73221E-04   -0.73191E-04   688   0.796E-04 0.864E-06
  90 F= -.49523216E+03 E0= -.49521658E+03  d E =-.334510E-02  mag=     0.0694
       N       E                     dE             d eps       ncg     rms          ort
SDA:   1    -0.490907975312E+03    0.88503E-01    0.00000E+00   688   0.230E+00 0.000E+00
CGA:   2    -0.490976480390E+03   -0.68505E-01   -0.68504E-01   688   0.775E-01 0.239E-04
CGA:   3    -0.490993944418E+03   -0.17464E-01   -0.17463E-01   688   0.188E-01 0.942E-06
CGA:   4    -0.490997691609E+03   -0.37472E-02   -0.37472E-02   688   0.372E-02-0.804E-05
CGA:   5    -0.490998570646E+03   -0.87904E-03   -0.87919E-03   688   0.101E-02 0.601E-05
CGA:   6    -0.490998826775E+03   -0.25613E-03   -0.25613E-03   688   0.381E-03-0.203E-06
CGA:   7    -0.490998934806E+03   -0.10803E-03   -0.10804E-03   688   0.171E-03-0.182E-06
CGA:   8    -0.490998986612E+03   -0.51806E-04   -0.51816E-04   688   0.710E-04-0.235E-06
  91 F= -.49523441E+03 E0= -.49521889E+03  d E =-.225032E-02  mag=     0.0682
       N       E                     dE             d eps       ncg     rms          ort
SDA:   1    -0.490632587753E+03    0.36635E+00    0.00000E+00   688   0.934E+00 0.000E+00
CGA:   2    -0.490909918892E+03   -0.27733E+00   -0.27732E+00   688   0.314E+00 0.175E-03
CGA:   3    -0.490980578733E+03   -0.70660E-01   -0.70652E-01   688   0.771E-01-0.551E-04
CGA:   4    -0.490995841397E+03   -0.15263E-01   -0.15266E-01   688   0.151E-01-0.992E-05
CGA:   5    -0.490999470588E+03   -0.36292E-02   -0.36294E-02   688   0.407E-02 0.124E-04
CGA:   6    -0.491000511773E+03   -0.10412E-02   -0.10412E-02   688   0.149E-02-0.170E-05
CGA:   7    -0.491000946232E+03   -0.43446E-03   -0.43444E-03   688   0.656E-03 0.665E-06
CGA:   8    -0.491001149362E+03   -0.20313E-03   -0.20319E-03   688   0.275E-03-0.118E-05
CGA:   9    -0.491001229483E+03   -0.80121E-04   -0.80107E-04   688   0.925E-04 0.534E-06
  92 F= -.49523627E+03 E0= -.49522079E+03  d E =-.411539E-02  mag=     0.0668
       N       E                     dE             d eps       ncg     rms          ort
SDA:   1    -0.490878747095E+03    0.12240E+00    0.00000E+00   688   0.316E+00 0.000E+00
CGA:   2    -0.490972027263E+03   -0.93280E-01   -0.93270E-01   688   0.110E+00 0.197E-03
CGA:   3    -0.490996242173E+03   -0.24215E-01   -0.24209E-01   688   0.265E-01-0.265E-04
CGA:   4    -0.491001686838E+03   -0.54447E-02   -0.54446E-02   688   0.515E-02-0.124E-04
CGA:   5    -0.491002878939E+03   -0.11921E-02   -0.11922E-02   688   0.143E-02 0.456E-05
CGA:   6    -0.491003236805E+03   -0.35787E-03   -0.35786E-03   688   0.503E-03-0.776E-06
CGA:   7    -0.491003382066E+03   -0.14526E-03   -0.14526E-03   688   0.230E-03-0.112E-06
CGA:   8    -0.491003450997E+03   -0.68931E-04   -0.68948E-04   688   0.985E-04-0.462E-06
  93 F= -.49523823E+03 E0= -.49522278E+03  d E =-.195703E-02  mag=     0.0654
       N       E                     dE             d eps       ncg     rms          ort
SDA:   1    -0.491001582863E+03    0.17992E-02    0.00000E+00   688   0.502E-02 0.000E+00
CGA:   2    -0.491003038040E+03   -0.14552E-02   -0.14551E-02   688   0.184E-02 0.143E-05
CGA:   3    -0.491003424116E+03   -0.38608E-03   -0.38612E-03   688   0.479E-03 0.956E-06
CGA:   4    -0.491003519409E+03   -0.95294E-04   -0.95245E-04   688   0.962E-04-0.757E-06
  94 F= -.49523827E+03 E0= -.49522281E+03  d E =-.199223E-02  mag=     0.0652
       N       E                     dE             d eps       ncg     rms          ort
SDA:   1    -0.490917125909E+03    0.86298E-01    0.00000E+00   688   0.225E+00 0.000E+00
CGA:   2    -0.490983663390E+03   -0.66537E-01   -0.66534E-01   688   0.752E-01 0.602E-04
CGA:   3    -0.491000837444E+03   -0.17174E-01   -0.17173E-01   688   0.183E-01-0.137E-04
CGA:   4    -0.491004453024E+03   -0.36156E-02   -0.36157E-02   688   0.368E-02-0.601E-05
CGA:   5    -0.491005295315E+03   -0.84229E-03   -0.84240E-03   688   0.107E-02 0.396E-05
CGA:   6    -0.491005547574E+03   -0.25226E-03   -0.25229E-03   688   0.396E-03 0.169E-05
CGA:   7    -0.491005656126E+03   -0.10855E-03   -0.10857E-03   688   0.172E-03-0.675E-06
CGA:   8    -0.491005710025E+03   -0.53899E-04   -0.53903E-04   688   0.680E-04-0.618E-07
  95 F= -.49524023E+03 E0= -.49522484E+03  d E =-.196494E-02  mag=     0.0627
       N       E                     dE             d eps       ncg     rms          ort
SDA:   1    -0.490724212278E+03    0.28144E+00    0.00000E+00   688   0.721E+00 0.000E+00
CGA:   2    -0.490937001481E+03   -0.21279E+00   -0.21277E+00   688   0.242E+00 0.297E-03
CGA:   3    -0.490991861475E+03   -0.54860E-01   -0.54851E-01   688   0.581E-01-0.871E-04
CGA:   4    -0.491003435552E+03   -0.11574E-01   -0.11576E-01   688   0.112E-01-0.793E-05
CGA:   5    -0.491006097021E+03   -0.26615E-02   -0.26617E-02   688   0.299E-02 0.967E-05
CGA:   6    -0.491006864258E+03   -0.76724E-03   -0.76724E-03   688   0.105E-02 0.249E-06
CGA:   7    -0.491007164140E+03   -0.29988E-03   -0.29987E-03   688   0.492E-03 0.361E-06
CGA:   8    -0.491007306522E+03   -0.14238E-03   -0.14240E-03   688   0.209E-03-0.638E-06
CGA:   9    -0.491007369466E+03   -0.62943E-04   -0.62925E-04   688   0.679E-04 0.454E-06
  96 F= -.49524148E+03 E0= -.49522624E+03  d E =-.321403E-02  mag=     0.0579
       N       E                     dE             d eps       ncg     rms          ort
SDA:   1    -0.490886444560E+03    0.12086E+00    0.00000E+00   688   0.316E+00 0.000E+00
CGA:   2    -0.490979082642E+03   -0.92638E-01   -0.92635E-01   688   0.105E+00 0.682E-04
CGA:   3    -0.491002928937E+03   -0.23846E-01   -0.23844E-01   688   0.254E-01-0.152E-04
CGA:   4    -0.491007963488E+03   -0.50346E-02   -0.50349E-02   688   0.485E-02-0.824E-05
CGA:   5    -0.491009100322E+03   -0.11368E-02   -0.11370E-02   688   0.129E-02 0.676E-05
CGA:   6    -0.491009429773E+03   -0.32945E-03   -0.32945E-03   688   0.443E-03 0.236E-06
CGA:   7    -0.491009559775E+03   -0.13000E-03   -0.12999E-03   688   0.199E-03 0.377E-06
CGA:   8    -0.491009621535E+03   -0.61760E-04   -0.61787E-04   688   0.854E-04-0.546E-06
  97 F= -.49524347E+03 E0= -.49522815E+03  d E =-.198927E-02  mag=     0.0581
       N       E                     dE             d eps       ncg     rms          ort
SDA:   1    -0.490807409528E+03    0.20215E+00    0.00000E+00   688   0.522E+00 0.000E+00
CGA:   2    -0.490960325858E+03   -0.15292E+00   -0.15291E+00   688   0.174E+00 0.145E-03
CGA:   3    -0.490999737301E+03   -0.39411E-01   -0.39406E-01   688   0.426E-01-0.384E-04
CGA:   4    -0.491008142457E+03   -0.84052E-02   -0.84067E-02   688   0.801E-02-0.816E-05
CGA:   5    -0.491010045698E+03   -0.19032E-02   -0.19034E-02   688   0.216E-02 0.805E-05
CGA:   6    -0.491010589622E+03   -0.54392E-03   -0.54393E-03   688   0.769E-03 0.582E-06
CGA:   7    -0.491010804281E+03   -0.21466E-03   -0.21465E-03   688   0.357E-03 0.229E-06
CGA:   8    -0.491010910688E+03   -0.10641E-03   -0.10642E-03   688   0.151E-03-0.387E-06
CGA:   9    -0.491010958518E+03   -0.47830E-04   -0.47811E-04   688   0.521E-04 0.341E-06
  98 F= -.49524446E+03 E0= -.49522898E+03  d E =-.298390E-02  mag=     0.0600
       N       E                     dE             d eps       ncg     rms          ort
SDA:   1    -0.490864317028E+03    0.14659E+00    0.00000E+00   688   0.383E+00 0.000E+00
CGA:   2    -0.490975812013E+03   -0.11149E+00   -0.11148E+00   688   0.130E+00 0.262E-03
CGA:   3    -0.491004685840E+03   -0.28874E-01   -0.28866E-01   688   0.319E-01-0.445E-04
CGA:   4    -0.491011095692E+03   -0.64099E-02   -0.64101E-02   688   0.597E-02-0.137E-04
CGA:   5    -0.491012474283E+03   -0.13786E-02   -0.13788E-02   688   0.159E-02 0.497E-05
CGA:   6    -0.491012867870E+03   -0.39359E-03   -0.39358E-03   688   0.527E-03-0.374E-06
CGA:   7    -0.491013017924E+03   -0.15005E-03   -0.15006E-03   688   0.231E-03-0.140E-06
CGA:   8    -0.491013088599E+03   -0.70675E-04   -0.70710E-04   688   0.984E-04-0.834E-06
  99 F= -.49524611E+03 E0= -.49523052E+03  d E =-.164514E-02  mag=     0.0625
       N       E                     dE             d eps       ncg     rms          ort
SDA:   1    -0.491013083062E+03   -0.65138E-04    0.00000E+00   688   0.166E-03 0.000E+00
CGA:   2    -0.491013120687E+03   -0.37625E-04   -0.37628E-04   688   0.805E-04 0.672E-07
 100 F= -.49524613E+03 E0= -.49523052E+03  d E =-.166876E-02  mag=     0.0629
       N       E                     dE             d eps       ncg     rms          ort
SDA:   1    -0.490860292149E+03    0.15279E+00    0.00000E+00   688   0.400E+00 0.000E+00
CGA:   2    -0.490977076301E+03   -0.11678E+00   -0.11678E+00   688   0.133E+00 0.113E-03
CGA:   3    -0.491007394024E+03   -0.30318E-01   -0.30313E-01   688   0.322E-01-0.488E-04
CGA:   4    -0.491013695584E+03   -0.63016E-02   -0.63022E-02   688   0.614E-02-0.931E-05
CGA:   5    -0.491015151738E+03   -0.14562E-02   -0.14563E-02   688   0.158E-02 0.597E-05
CGA:   6    -0.491015547090E+03   -0.39535E-03   -0.39536E-03   688   0.572E-03 0.158E-05
CGA:   7    -0.491015699950E+03   -0.15286E-03   -0.15287E-03   688   0.256E-03-0.115E-05
CGA:   8    -0.491015775255E+03   -0.75305E-04   -0.75335E-04   688   0.101E-03-0.792E-06
 101 F= -.49524819E+03 E0= -.49523259E+03  d E =-.205470E-02  mag=     0.0633
       N       E                     dE             d eps       ncg     rms          ort
SDA:   1    -0.490832744548E+03    0.18296E+00    0.00000E+00   688   0.475E+00 0.000E+00
CGA:   2    -0.490971083703E+03   -0.13834E+00   -0.13833E+00   688   0.156E+00 0.143E-03
CGA:   3    -0.491006946686E+03   -0.35863E-01   -0.35857E-01   688   0.383E-01-0.638E-04
CGA:   4    -0.491014441829E+03   -0.74951E-02   -0.74962E-02   688   0.712E-02-0.983E-05
CGA:   5    -0.491016162962E+03   -0.17211E-02   -0.17212E-02   688   0.179E-02 0.692E-05
CGA:   6    -0.491016634519E+03   -0.47156E-03   -0.47155E-03   688   0.605E-03 0.105E-05
CGA:   7    -0.491016810700E+03   -0.17618E-03   -0.17621E-03   688   0.280E-03-0.965E-06
CGA:   8    -0.491016890148E+03   -0.79448E-04   -0.79474E-04   688   0.124E-03-0.107E-05
 102 F= -.49524864E+03 E0= -.49523314E+03  d E =-.251105E-02  mag=     0.0627
       N       E                     dE             d eps       ncg     rms          ort
SDA:   1    -0.490845969751E+03    0.17084E+00    0.00000E+00   688   0.445E+00 0.000E+00
CGA:   2    -0.490975852290E+03   -0.12988E+00   -0.12987E+00   688   0.150E+00 0.209E-03
CGA:   3    -0.491009656065E+03   -0.33804E-01   -0.33796E-01   688   0.367E-01-0.731E-04
CGA:   4    -0.491016810509E+03   -0.71544E-02   -0.71555E-02   688   0.679E-02-0.946E-05
CGA:   5    -0.491018443922E+03   -0.16334E-02   -0.16335E-02   688   0.180E-02 0.488E-05
CGA:   6    -0.491018888785E+03   -0.44486E-03   -0.44489E-03   688   0.658E-03 0.262E-05
CGA:   7    -0.491019061273E+03   -0.17249E-03   -0.17249E-03   688   0.294E-03-0.132E-05
CGA:   8    -0.491019147780E+03   -0.86507E-04   -0.86533E-04   688   0.116E-03-0.697E-06
 103 F= -.49525030E+03 E0= -.49523486E+03  d E =-.165897E-02  mag=     0.0622
       N       E                     dE             d eps       ncg     rms          ort
SDA:   1    -0.490732999507E+03    0.28606E+00    0.00000E+00   688   0.739E+00 0.000E+00
CGA:   2    -0.490948720693E+03   -0.21572E+00   -0.21570E+00   688   0.249E+00 0.452E-03
CGA:   3    -0.491004897925E+03   -0.56177E-01   -0.56161E-01   688   0.609E-01-0.151E-03
CGA:   4    -0.491016770885E+03   -0.11873E-01   -0.11876E-01   688   0.112E-01-0.106E-04
CGA:   5    -0.491019497557E+03   -0.27267E-02   -0.27268E-02   688   0.284E-02 0.794E-05
CGA:   6    -0.491020242566E+03   -0.74501E-03   -0.74500E-03   688   0.963E-03 0.157E-05
CGA:   7    -0.491020521305E+03   -0.27874E-03   -0.27876E-03   688   0.438E-03-0.655E-06
CGA:   8    -0.491020648022E+03   -0.12672E-03   -0.12676E-03   688   0.190E-03-0.130E-05
CGA:   9    -0.491020702423E+03   -0.54401E-04   -0.54381E-04   688   0.625E-04 0.764E-06
 104 F= -.49525108E+03 E0= -.49523569E+03  d E =-.243902E-02  mag=     0.0619
       N       E                     dE             d eps       ncg     rms          ort
SDA:   1    -0.490876139169E+03    0.14451E+00    0.00000E+00   688   0.372E+00 0.000E+00
CGA:   2    -0.490985877568E+03   -0.10974E+00   -0.10972E+00   688   0.134E+00 0.307E-03
CGA:   3    -0.491014628854E+03   -0.28751E-01   -0.28743E-01   688   0.317E-01-0.423E-04
CGA:   4    -0.491021030197E+03   -0.64013E-02   -0.64022E-02   688   0.597E-02-0.829E-05
CGA:   5    -0.491022444294E+03   -0.14141E-02   -0.14142E-02   688   0.155E-02 0.306E-05
CGA:   6    -0.491022840891E+03   -0.39660E-03   -0.39660E-03   688   0.515E-03 0.186E-05
CGA:   7    -0.491022988390E+03   -0.14750E-03   -0.14752E-03   688   0.235E-03-0.812E-06
CGA:   8    -0.491023056510E+03   -0.68120E-04   -0.68126E-04   688   0.999E-04-0.198E-06
 105 F= -.49525304E+03 E0= -.49523762E+03  d E =-.195988E-02  mag=     0.0619
       N       E                     dE             d eps       ncg     rms          ort
SDA:   1    -0.491015766457E+03    0.72219E-02    0.00000E+00   688   0.190E-01 0.000E+00
CGA:   2    -0.491021335879E+03   -0.55694E-02   -0.55692E-02   688   0.697E-02 0.548E-05
CGA:   3    -0.491022801819E+03   -0.14659E-02   -0.14659E-02   688   0.171E-02 0.596E-06
CGA:   4    -0.491023141069E+03   -0.33925E-03   -0.33915E-03   688   0.329E-03-0.167E-05
CGA:   5    -0.491023215597E+03   -0.74528E-04   -0.74515E-04   688   0.110E-03-0.383E-06
 106 F= -.49525311E+03 E0= -.49523766E+03  d E =-.202950E-02  mag=     0.0622
       N       E                     dE             d eps       ncg     rms          ort
SDA:   1    -0.490932679021E+03    0.90462E-01    0.00000E+00   688   0.232E+00 0.000E+00
CGA:   2    -0.491001673077E+03   -0.68994E-01   -0.68992E-01   688   0.840E-01 0.310E-04
CGA:   3    -0.491019781060E+03   -0.18108E-01   -0.18106E-01   688   0.203E-01-0.143E-04
CGA:   4    -0.491023771109E+03   -0.39900E-02   -0.39905E-02   688   0.390E-02-0.324E-05
CGA:   5    -0.491024694622E+03   -0.92351E-03   -0.92357E-03   688   0.107E-02 0.399E-05
CGA:   6    -0.491024951181E+03   -0.25656E-03   -0.25660E-03   688   0.393E-03 0.281E-05
CGA:   7    -0.491025054661E+03   -0.10348E-03   -0.10349E-03   688   0.170E-03-0.739E-06
CGA:   8    -0.491025106136E+03   -0.51475E-04   -0.51493E-04   688   0.677E-04-0.336E-06
 107 F= -.49525478E+03 E0= -.49523930E+03  d E =-.166308E-02  mag=     0.0617
       N       E                     dE             d eps       ncg     rms          ort
SDA:   1    -0.490964637023E+03    0.60418E-01    0.00000E+00   688   0.153E+00 0.000E+00
CGA:   2    -0.491010294268E+03   -0.45657E-01   -0.45656E-01   688   0.552E-01 0.206E-04
CGA:   3    -0.491022275377E+03   -0.11981E-01   -0.11980E-01   688   0.131E-01-0.953E-05
CGA:   4    -0.491024833412E+03   -0.25580E-02   -0.25582E-02   688   0.245E-02-0.296E-05
CGA:   5    -0.491025426290E+03   -0.59288E-03   -0.59291E-03   688   0.649E-03 0.290E-05
CGA:   6    -0.491025588922E+03   -0.16263E-03   -0.16264E-03   688   0.230E-03 0.268E-05
CGA:   7    -0.491025650664E+03   -0.61742E-04   -0.61758E-04   688   0.109E-03-0.116E-05
 108 F= -.49525513E+03 E0= -.49523963E+03  d E =-.202087E-02  mag=     0.0613
       N       E                     dE             d eps       ncg     rms          ort
SDA:   1    -0.490984266223E+03    0.41323E-01    0.00000E+00   688   0.107E+00 0.000E+00
CGA:   2    -0.491016223135E+03   -0.31957E-01   -0.31954E-01   688   0.387E-01 0.434E-04
CGA:   3    -0.491024628844E+03   -0.84057E-02   -0.84042E-02   688   0.888E-02-0.124E-04
CGA:   4    -0.491026375510E+03   -0.17467E-02   -0.17466E-02   688   0.183E-02-0.419E-05
CGA:   5    -0.491026798778E+03   -0.42327E-03   -0.42332E-03   688   0.522E-03 0.240E-05
CGA:   6    -0.491026923314E+03   -0.12454E-03   -0.12456E-03   688   0.189E-03 0.195E-05
CGA:   7    -0.491026974391E+03   -0.51078E-04   -0.51093E-04   688   0.830E-04-0.858E-06
 109 F= -.49525632E+03 E0= -.49524082E+03  d E =-.118513E-02  mag=     0.0612
       N       E                     dE             d eps       ncg     rms          ort
SDA:   1    -0.490869645872E+03    0.15728E+00    0.00000E+00   688   0.396E+00 0.000E+00
CGA:   2    -0.490988060417E+03   -0.11841E+00   -0.11840E+00   688   0.144E+00 0.240E-03
CGA:   3    -0.491019311933E+03   -0.31252E-01   -0.31242E-01   688   0.327E-01-0.817E-04
CGA:   4    -0.491025829639E+03   -0.65177E-02   -0.65185E-02   688   0.650E-02-0.638E-05
CGA:   5    -0.491027368137E+03   -0.15385E-02   -0.15386E-02   688   0.170E-02 0.665E-05
CGA:   6    -0.491027810128E+03   -0.44199E-03   -0.44197E-03   688   0.574E-03 0.219E-05
CGA:   7    -0.491027975972E+03   -0.16584E-03   -0.16590E-03   688   0.270E-03-0.145E-05
CGA:   8    -0.491028051377E+03   -0.75405E-04   -0.75410E-04   688   0.112E-03-0.210E-06
 110 F= -.49525713E+03 E0= -.49524173E+03  d E =-.199303E-02  mag=     0.0605
