       N       E                     dE             d eps       ncg     rms          rms(c)
DAV:   1     0.252641143611E+04    0.25264E+04   -0.98924E+04  3880   0.113E+03
DAV:   2     0.342714047769E+02   -0.24921E+04   -0.23840E+04  4752   0.286E+02
DAV:   3    -0.484627810346E+03   -0.51890E+03   -0.51463E+03  4088   0.145E+02
DAV:   4    -0.505603447705E+03   -0.20976E+02   -0.20400E+02  4200   0.404E+01
DAV:   5    -0.506527648704E+03   -0.92420E+00   -0.91465E+00  4984   0.701E+00    0.387E+01
DAV:   6    -0.482420387039E+03    0.24107E+02   -0.52602E+01  4152   0.249E+01    0.238E+01
DAV:   7    -0.478738390514E+03    0.36820E+01   -0.32590E+01  4192   0.167E+01    0.157E+01
DAV:   8    -0.477019263155E+03    0.17191E+01   -0.97231E+00  4000   0.117E+01    0.110E+01
DAV:   9    -0.477262214947E+03   -0.24295E+00   -0.14080E+01  4672   0.935E+00    0.639E+00
DAV:  10    -0.476508296742E+03    0.75392E+00   -0.62666E+00  4432   0.847E+00    0.316E+00
DAV:  11    -0.476462040095E+03    0.46257E-01   -0.22882E+00  4632   0.400E+00    0.238E+00
DAV:  12    -0.476366730839E+03    0.95309E-01   -0.14904E+00  4952   0.272E+00    0.140E+00
DAV:  13    -0.476326079440E+03    0.40651E-01   -0.15911E-01  3888   0.135E+00    0.689E-01
DAV:  14    -0.476322516918E+03    0.35625E-02   -0.71803E-02  3968   0.676E-01    0.343E-01
DAV:  15    -0.476322991748E+03   -0.47483E-03   -0.35098E-02  4000   0.437E-01    0.314E-01
DAV:  16    -0.476322177537E+03    0.81421E-03   -0.26913E-02  4304   0.321E-01    0.207E-01
DAV:  17    -0.476322048560E+03    0.12898E-03   -0.12099E-02  4112   0.199E-01    0.137E-01
DAV:  18    -0.476321927123E+03    0.12144E-03   -0.40677E-03  3328   0.116E-01    0.735E-02
DAV:  19    -0.476321904708E+03    0.22414E-04   -0.54596E-04  2288   0.515E-02
   1 F= -.48032707E+03 E0= -.48032707E+03  d E =0.000000E+00  mag=     0.0000
