 vasp.5.4.4.18Apr17-6-g9f103f2a35 (build Jan 14 2022 15:04:31) complex          
  
 executed on             LinuxIFC date 2023.04.05  11:31:16
 running on   48 total cores
 distrk:  each k-point on   48 cores,    1 groups
 distr:  one band on NCORES_PER_BAND=  12 cores,    4 groups


--------------------------------------------------------------------------------------------------------


 INCAR:
 POTCAR:    PAW_PBE C 08Apr2002                   
 POTCAR:    PAW_PBE N 08Apr2002                   
 POTCAR:    PAW_PBE Ge_d 03Jul2007                
 POTCAR:    PAW_PBE C 08Apr2002                   
   SHA256 =  253f7b50bb8d59471dbedb8285d89021f4a42ed1a2c5d38a03a736e69125dd95 C/
   COPYR  = (c) Copyright 08Apr2002 Georg Kresse                                
   COPYR  = This file is part of the software VASP. Any use, copying, and all ot
   COPYR  = If you do not have a valid VASP license, you may not use, copy or di
   VRHFIN =C: s2p2                                                              
   LEXCH  = PE                                                                  
   EATOM  =   147.1560 eV,   10.8157 Ry                                         
                                                                                
   TITEL  = PAW_PBE C 08Apr2002                                                 
   LULTRA =        F    use ultrasoft PP ?                                      
   IUNSCR =        1    unscreen: 0-lin 1-nonlin 2-no                           
   RPACOR =    1.200    partial core radius                                     
   POMASS =   12.011; ZVAL   =    4.000    mass and valenz                      
   RCORE  =    1.500    outmost cutoff radius                                   
   RWIGS  =    1.630; RWIGS  =    0.863    wigner-seitz radius (au A)           
   ENMAX  =  400.000; ENMIN  =  300.000 eV                                      
   ICORE  =        2    local potential                                         
   LCOR   =        T    correct aug charges                                     
   LPAW   =        T    paw PP                                                  
   EAUG   =  644.873                                                            
   DEXC   =    0.000                                                            
   RMAX   =    1.529    core radius for proj-oper                               
   RAUG   =    1.300    factor for augmentation sphere                          
   RDEP   =    1.501    radius for radial grids                                 
   RDEPT  =    1.300    core radius for aug-charge                              
                                                                                
   Atomic configuration                                                         
    4 entries                                                                   
     n  l   j            E        occ.                                          
     1  0  0.50      -273.3789   2.0000                                         
     2  0  0.50       -13.7508   2.0000                                         
     2  1  0.50        -5.2854   2.0000                                         
     3  2  1.50        -5.4423   0.0000                                         
   Description                                                                  
     l       E           TYP  RCUT    TYP  RCUT                                 
     0    -13.7508458     23  1.200                                             
     0     -8.2022199     23  1.200                                             
     1     -5.2854383     23  1.500                                             
     1     34.0145650     23  1.500                                             
     2     -5.4423304      7  1.500                                             
  local pseudopotential read in
  partial core-charges read in
  partial kinetic energy density read in
  atomic valenz-charges read in
  non local Contribution for L=           0  read in
    real space projection operators read in
  non local Contribution for L=           0  read in
    real space projection operators read in
  non local Contribution for L=           1  read in
    real space projection operators read in
  non local Contribution for L=           1  read in
    real space projection operators read in
    PAW grid and wavefunctions read in
 
   number of l-projection  operators is LMAX  =           4
   number of lm-projection operators is LMMAX =           8
 
 POTCAR:    PAW_PBE N 08Apr2002                   
   SHA256 =  e053789ff3a61a86a1b75d8a110fcc91f86041011e7b0817c7c99e4e8a6349d7 N/
   COPYR  = (c) Copyright 08Apr2002 Georg Kresse                                
   COPYR  = This file is part of the software VASP. Any use, copying, and all ot
   COPYR  = If you do not have a valid VASP license, you may not use, copy or di
   VRHFIN =N: s2p3                                                              
   LEXCH  = PE                                                                  
   EATOM  =   264.5486 eV,   19.4438 Ry                                         
                                                                                
   TITEL  = PAW_PBE N 08Apr2002                                                 
   LULTRA =        F    use ultrasoft PP ?                                      
   IUNSCR =        1    unscreen: 0-lin 1-nonlin 2-no                           
   RPACOR =    1.200    partial core radius                                     
   POMASS =   14.001; ZVAL   =    5.000    mass and valenz                      
   RCORE  =    1.500    outmost cutoff radius                                   
   RWIGS  =    1.400; RWIGS  =    0.741    wigner-seitz radius (au A)           
   ENMAX  =  400.000; ENMIN  =  300.000 eV                                      
   ICORE  =        2    local potential                                         
   LCOR   =        T    correct aug charges                                     
   LPAW   =        T    paw PP                                                  
   EAUG   =  627.112                                                            
   DEXC   =    0.000                                                            
   RMAX   =    1.529    core radius for proj-oper                               
   RAUG   =    1.300    factor for augmentation sphere                          
   RDEP   =    1.514    radius for radial grids                                 
   RDEPT  =    1.338    core radius for aug-charge                              
                                                                                
   Atomic configuration                                                         
    4 entries                                                                   
     n  l   j            E        occ.                                          
     1  0  0.50      -384.7179   2.0000                                         
     2  0  0.50       -18.5828   2.0000                                         
     2  1  0.50        -7.0898   3.0000                                         
     3  2  1.50        -6.8029   0.0000                                         
   Description                                                                  
     l       E           TYP  RCUT    TYP  RCUT                                 
     0    -18.5828119     23  1.200                                             
     0    -13.5018863     23  1.200                                             
     1     -7.0897853     23  1.500                                             
     1      9.5240782     23  1.500                                             
     2     -6.8029130      7  1.500                                             
  local pseudopotential read in
  partial core-charges read in
  partial kinetic energy density read in
  atomic valenz-charges read in
  non local Contribution for L=           0  read in
    real space projection operators read in
  non local Contribution for L=           0  read in
    real space projection operators read in
  non local Contribution for L=           1  read in
    real space projection operators read in
  non local Contribution for L=           1  read in
    real space projection operators read in
    PAW grid and wavefunctions read in
 
   number of l-projection  operators is LMAX  =           4
   number of lm-projection operators is LMMAX =           8
 
 POTCAR:    PAW_PBE Ge_d 03Jul2007                
   SHA256 =  944b26c40d2d7c4f4eb1ff3a2e8dbfdd7129146276cd341854bfd5c0e57780ed Ge
   COPYR  = (c) Copyright 03Jul2007 Georg Kresse                                
   COPYR  = This file is part of the software VASP. Any use, copying, and all ot
   COPYR  = If you do not have a valid VASP license, you may not use, copy or di
   VRHFIN =Ge: 3d4s4p                                                           
   LEXCH  = PE                                                                  
   EATOM  =  2596.2402 eV,  190.8183 Ry                                         
                                                                                
   TITEL  = PAW_PBE Ge_d 03Jul2007                                              
   LULTRA =        F    use ultrasoft PP ?                                      
   IUNSCR =        1    unscreen: 0-lin 1-nonlin 2-no                           
   RPACOR =    2.000    partial core radius                                     
   POMASS =   72.610; ZVAL   =   14.000    mass and valenz                      
   RCORE  =    2.300    outmost cutoff radius                                   
   RWIGS  =    2.300; RWIGS  =    1.217    wigner-seitz radius (au A)           
   ENMAX  =  310.294; ENMIN  =  232.720 eV                                      
   ICORE  =        3    local potential                                         
   LCOR   =        T    correct aug charges                                     
   LPAW   =        T    paw PP                                                  
   EAUG   =  531.356                                                            
   DEXC   =    0.000                                                            
   RMAX   =    2.342    core radius for proj-oper                               
   RAUG   =    1.300    factor for augmentation sphere                          
   RDEP   =    2.318    radius for radial grids                                 
   RDEPT  =    1.783    core radius for aug-charge                              
                                                                                
   Atomic configuration                                                         
    9 entries                                                                   
     n  l   j            E        occ.                                          
     1  0  0.50    -10959.8463   2.0000                                         
     2  0  0.50     -1371.6056   2.0000                                         
     2  1  1.50     -1198.4791   6.0000                                         
     3  0  0.50      -168.4733   2.0000                                         
     3  1  1.50      -115.6019   6.0000                                         
     3  2  2.50       -29.3106  10.0000                                         
     4  0  0.50       -11.7309   2.0000                                         
     4  1  0.50        -3.8952   2.0000                                         
     4  3  2.50        -4.0817   0.0000                                         
   Description                                                                  
     l       E           TYP  RCUT    TYP  RCUT                                 
     2    -29.3105938     23  2.200                                             
     2    -13.6058260     23  2.200                                             
     0    -11.7309493     23  2.300                                             
     0     -7.4578696     23  2.300                                             
     1     -3.8952261     23  2.300                                             
     1      6.1178114     23  2.300                                             
     3     -1.3605826     23  2.300                                             
  local pseudopotential read in
  partial core-charges read in
  partial kinetic energy density read in
  atomic valenz-charges read in
  non local Contribution for L=           2  read in
    real space projection operators read in
  non local Contribution for L=           2  read in
    real space projection operators read in
  non local Contribution for L=           0  read in
    real space projection operators read in
  non local Contribution for L=           0  read in
    real space projection operators read in
  non local Contribution for L=           1  read in
    real space projection operators read in
  non local Contribution for L=           1  read in
    real space projection operators read in
    PAW grid and wavefunctions read in
 
   number of l-projection  operators is LMAX  =           6
   number of lm-projection operators is LMMAX =          18
 

 ----------------------------------------------------------------------------- 
|                                                                             |
|  ADVICE TO THIS USER RUNNING 'VASP/VAMP'   (HEAR YOUR MASTER'S VOICE ...):  |
|                                                                             |
|      You have a (more or less) 'large supercell' and for larger cells       |
|      it might be more efficient to use real space projection opertators     |
|      So try LREAL= Auto  in the INCAR   file.                               |
|      Mind:          For very  accurate calculation you might also keep the  |
|      reciprocal projection scheme          (i.e. LREAL=.FALSE.)             |
|                                                                             |
 ----------------------------------------------------------------------------- 

  PAW_PBE C 08Apr2002                   :
 energy of atom  1       EATOM= -147.1560
 kinetic energy error for atom=    0.0132 (will be added to EATOM!!)
  PAW_PBE N 08Apr2002                   :
 energy of atom  2       EATOM= -264.5486
 kinetic energy error for atom=    0.0298 (will be added to EATOM!!)
  PAW_PBE Ge_d 03Jul2007                :
 energy of atom  3       EATOM=-2596.2402
 kinetic energy error for atom=    0.0090 (will be added to EATOM!!)
 
 
 POSCAR: POSCAR-c3n4                             
  positions in cartesian coordinates
  No initial velocities read in
 exchange correlation table for  LEXCH =        8
   RHO(1)=    0.500       N(1)  =     2000
   RHO(2)=  100.500       N(2)  =     4000

 VTST: version 3.2, (02/03/18)

 CHAIN: initializing optimizer
 
 OPT: Using VASP Dynamics algorithm
 CHAIN: Read ICHAIN            0
 
 POSCAR: POSCAR-c3n4                             
  positions in cartesian coordinates
  No initial velocities read in
 


--------------------------------------------------------------------------------------------------------


 ion  position               nearest neighbor table
   1  0.106  0.214  0.426-  26 1.37  46 1.37  25 1.44
   2  0.288  0.399  0.433-  29 1.35  35 1.41  25 1.46
   3  0.104  0.392  0.427-  44 1.34  39 1.41  25 1.46
   4  0.447  0.064  0.506-  30 1.35  27 1.36  48 1.44
   5  0.453  0.401  0.413-  28 1.36  29 1.37  56 1.45
   6  0.112  0.053  0.449-  26 1.35  31 1.36  32 1.43
   7  0.096  0.712  0.484-  54 1.36  34 1.38  33 1.43
   8  0.284  0.890  0.501-  27 1.36  37 1.38  33 1.44
   9  0.109  0.895  0.498-  31 1.35  52 1.37  33 1.46
  10  0.448  0.548  0.502-  38 1.35  56 1.38  35 1.39
  11  0.445  0.885  0.489-  37 1.36  36 1.37  48 1.41
  12  0.087  0.542  0.481-  34 1.35  40 1.37  39 1.38
  13  0.616  0.223  0.473-  42 1.38  30 1.38  41 1.43
  14  0.780  0.390  0.400-  45 1.38  51 1.39  41 1.43
  15  0.610  0.394  0.435-  28 1.37  55 1.37  41 1.48
  16  0.940  0.052  0.461-  46 1.34  43 1.36  32 1.42
  17  0.941  0.387  0.394-  45 1.35  44 1.37  40 1.45
  18  0.623  0.066  0.512-  42 1.35  47 1.37  48 1.44
  19  0.613  0.711  0.531-  50 1.35  38 1.39  49 1.44
  20  0.790  0.897  0.523-  43 1.35  53 1.37  49 1.48
  21  0.609  0.892  0.521-  47 1.36  36 1.37  49 1.47
  22  0.938  0.563  0.421-  51 1.33  54 1.37  40 1.45
  23  0.954  0.902  0.535-  52 1.37  53 1.37  32 1.43
  24  0.621  0.555  0.490-  55 1.34  50 1.36  56 1.44
  25  0.167  0.335  0.425-   1 1.44   3 1.46   2 1.46
  26  0.165  0.161  0.421-   6 1.35   1 1.37
  27  0.336  0.002  0.522-   8 1.36   4 1.36
  28  0.512  0.352  0.392-   5 1.36  15 1.37
  29  0.345  0.361  0.390-   2 1.35   5 1.37
  30  0.506  0.177  0.493-   4 1.35  13 1.38
  31  0.159  0.988  0.447-   9 1.35   6 1.36
  32  0.002  0.002  0.483-  16 1.42  23 1.43   6 1.43
  33  0.165  0.831  0.500-   7 1.43   8 1.44   9 1.46
  34  0.134  0.645  0.518-  12 1.35   7 1.38
  35  0.334  0.491  0.492-  10 1.39   2 1.41  57 2.10
  36  0.503  0.831  0.490-  11 1.37  21 1.37
  37  0.333  0.829  0.479-  11 1.36   8 1.38
  38  0.499  0.648  0.545-  10 1.35  19 1.39
  39  0.142  0.484  0.485-  12 1.38   3 1.41  57 2.12
  40  0.988  0.496  0.436-  12 1.37  22 1.45  17 1.45
  41  0.667  0.330  0.429-  13 1.43  14 1.43  15 1.48
  42  0.680  0.178  0.495-  18 1.35  13 1.38
  43  0.827  0.986  0.468-  20 1.35  16 1.36
  44  0.011  0.348  0.379-   3 1.34  17 1.37
  45  0.830  0.330  0.380-  17 1.35  14 1.38
  46  0.993  0.161  0.435-  16 1.34   1 1.37
  47  0.669  0.005  0.539-  21 1.36  18 1.37
  48  0.505  0.004  0.498-  11 1.41  18 1.44   4 1.44
  49  0.668  0.832  0.534-  19 1.44  21 1.47  20 1.48
  50  0.675  0.666  0.512-  19 1.35  24 1.36
  51  0.832  0.507  0.396-  22 1.33  14 1.39
  52  0.016  0.853  0.549-  23 1.37   9 1.37
  53  0.849  0.860  0.566-  20 1.37  23 1.37
  54  0.004  0.677  0.435-   7 1.36  22 1.37
  55  0.668  0.491  0.484-  24 1.34  15 1.37
  56  0.506  0.502  0.467-  10 1.38  24 1.44   5 1.45
  57  0.287  0.593  0.558-  35 2.10  39 2.12
 

IMPORTANT INFORMATION: All symmetrisations will be switched off!
NOSYMM: (Re-)initialisation of all symmetry stuff for point group C_1.

 
 
 KPOINTS: K-Points                                

Automatic generation of k-mesh.
Space group operators:
 irot       det(A)        alpha          n_x          n_y          n_z        tau_x        tau_y        tau_z
    1     1.000000     0.000000     1.000000     0.000000     0.000000     0.000000     0.000000     0.000000
 
 Subroutine IBZKPT returns following result:
 ===========================================
 
 Found      5 irreducible k-points:
 
 Following reciprocal coordinates:
            Coordinates               Weight
  0.000000  0.000000  0.000000      1.000000
  0.333333 -0.000000  0.000000      2.000000
 -0.000000  0.333333  0.000000      2.000000
  0.333333  0.333333  0.000000      2.000000
 -0.333333  0.333333  0.000000      2.000000
 
 Following cartesian coordinates:
            Coordinates               Weight
  0.000000  0.000000  0.000000      1.000000
  0.024277  0.014368  0.000000      2.000000
  0.000396  0.028736  0.000000      2.000000
  0.024673  0.043104  0.000000      2.000000
 -0.023881  0.014368  0.000000      2.000000
 
 TETIRR: Found     24 inequivalent tetrahedra from       54


--------------------------------------------------------------------------------------------------------




 Dimension of arrays:
   k-points           NKPTS =      5   k-points in BZ     NKDIM =      5   number of bands    NBANDS=    168
   number of dos      NEDOS =   4000   number of ions     NIONS =     57
   non local maximal  LDIM  =      6   non local SUM 2l+1 LMDIM =     18
   total plane-waves  NPLWV = 414720
   max r-space proj   IRMAX =      1   max aug-charges    IRDMAX=   5655
   dimension x,y,z NGX =    72 NGY =   72 NGZ =   80
   dimension x,y,z NGXF=   144 NGYF=  144 NGZF=  160
   support grid    NGXF=   144 NGYF=  144 NGZF=  160
   ions per type =              24  32   1
   NGX,Y,Z   is equivalent  to a cutoff of   8.48,  8.64,  8.69 a.u.
   NGXF,Y,Z  is equivalent  to a cutoff of  16.95, 17.27, 17.39 a.u.

 SYSTEM =  unknown system                          
 POSCAR =  POSCAR-c3n4                             

 Startparameter for this run:
   NWRITE =      2    write-flag & timer
   PREC   = normal    normal or accurate (medium, high low for compatibility)
   ISTART =      0    job   : 0-new  1-cont  2-samecut
   ICHARG =      2    charge: 1-file 2-atom 10-const
   ISPIN  =      2    spin polarized calculation?
   LNONCOLLINEAR =      F non collinear calculations
   LSORBIT =      F    spin-orbit coupling
   INIWAV =      1    electr: 0-lowe 1-rand  2-diag
   LASPH  =      F    aspherical Exc in radial PAW
   METAGGA=      F    non-selfconsistent MetaGGA calc.

 Electronic Relaxation 1
   ENCUT  =  440.0 eV  32.34 Ry    5.69 a.u.  24.15 23.71 26.17*2*pi/ulx,y,z
   ENINI  =  440.0     initial cutoff
   ENAUG  =  644.9 eV  augmentation charge cutoff
   NELM   =    100;   NELMIN=  2; NELMDL= -5     # of ELM steps 
   EDIFF  = 0.1E-03   stopping-criterion for ELM
   LREAL  =      F    real-space projection
   NLSPLINE    = F    spline interpolate recip. space projectors
   LCOMPAT=      F    compatible to vasp.4.4
   GGA_COMPAT  = T    GGA compatible to vasp.4.4-vasp.4.6
   LMAXPAW     = -100 max onsite density
   LMAXMIX     =    2 max onsite mixed and CHGCAR
   VOSKOWN=      0    Vosko Wilk Nusair interpolation
   ROPT   =    0.00000   0.00000   0.00000
 Ionic relaxation
   EDIFFG = -.1E-01   stopping-criterion for IOM
   NSW    =      0    number of steps for IOM
   NBLOCK =      1;   KBLOCK =      1    inner block; outer block 
   IBRION =     -1    ionic relax: 0-MD 1-quasi-New 2-CG
   NFREE  =      0    steps in history (QN), initial steepest desc. (CG)
   ISIF   =      2    stress and relaxation
   IWAVPR =     10    prediction:  0-non 1-charg 2-wave 3-comb
   ISYM   =      0    0-nonsym 1-usesym 2-fastsym
   LCORR  =      T    Harris-Foulkes like correction to forces

   POTIM  = 0.5000    time-step for ionic-motion
   TEIN   =    0.0    initial temperature
   TEBEG  =    0.0;   TEEND  =   0.0 temperature during run
   SMASS  =  -3.00    Nose mass-parameter (am)
   estimated Nose-frequenzy (Omega)   =  0.10E-29 period in steps =****** mass=  -0.456E-26a.u.
   SCALEE = 1.0000    scale energy and forces
   NPACO  =    256;   APACO  = 16.0  distance and # of slots for P.C.
   PSTRESS=    0.0 pullay stress

  Mass of Ions in am
   POMASS =  12.01 14.00 72.61
  Ionic Valenz
   ZVAL   =   4.00  5.00 14.00
  Atomic Wigner-Seitz radii
   RWIGS  =  -1.00 -1.00 -1.00
  virtual crystal weights 
   VCA    =   1.00  1.00  1.00
   NELECT =     270.0000    total number of electrons
   NUPDOWN=      -1.0000    fix difference up-down

 DOS related values:
   EMIN   = -14.00;   EMAX   =  6.00  energy-range for DOS
   EFERMI =   0.00
   ISMEAR =    -5;   SIGMA  =   0.20  broadening in eV -4-tet -1-fermi 0-gaus

 Electronic relaxation 2 (details)
   IALGO  =     38    algorithm
   LDIAG  =      T    sub-space diagonalisation (order eigenvalues)
   LSUBROT=      F    optimize rotation matrix (better conditioning)
   TURBO    =      0    0=normal 1=particle mesh
   IRESTART =      0    0=no restart 2=restart with 2 vectors
   NREBOOT  =      0    no. of reboots
   NMIN     =      0    reboot dimension
   EREF     =   0.00    reference energy to select bands
   IMIX   =      4    mixing-type and parameters
     AMIX     =   0.25;   BMIX     =  0.00
     AMIX_MAG =   1.00;   BMIX_MAG =  0.00
     AMIN     =   0.10
     WC   =   100.;   INIMIX=   1;  MIXPRE=   1;  MAXMIX= -45

 Intra band minimization:
   WEIMIN = 0.0000     energy-eigenvalue tresh-hold
   EBREAK =  0.15E-06  absolut break condition
   DEPER  =   0.30     relativ break condition  

   TIME   =   0.40     timestep for ELM

  volume/ion in A,a.u.               =      44.84       302.63
  Fermi-wavevector in a.u.,A,eV,Ry     =   0.773869  1.462400  8.148157  0.598873
  Thomas-Fermi vector in A             =   1.875804
 
 Write flags
   LWAVE        =      F    write WAVECAR
   LDOWNSAMPLE  =      F    k-point downsampling of WAVECAR
   LCHARG       =      F    write CHGCAR
   LVTOT        =      F    write LOCPOT, total local potential
   LVHAR        =      F    write LOCPOT, Hartree potential only
   LELF         =      F    write electronic localiz. function (ELF)
   LORBIT       =     11    0 simple, 1 ext, 2 COOP (PROOUT), +10 PAW based schemes


 Dipole corrections
   LMONO  =      F    monopole corrections only (constant potential shift)
   LDIPOL =      F    correct potential (dipole corrections)
   IDIPOL =      0    1-x, 2-y, 3-z, 4-all directions 
   EPSILON=  1.0000000 bulk dielectric constant

 Exchange correlation treatment:
   GGA     =    --    GGA type
   LEXCH   =     8    internal setting for exchange type
   VOSKOWN=      0    Vosko Wilk Nusair interpolation
   LHFCALC =     F    Hartree Fock is set to
   LHFONE  =     F    Hartree Fock one center treatment
   AEXX    =    0.0000 exact exchange contribution

 Linear response parameters
   LEPSILON=     F    determine dielectric tensor
   LRPA    =     F    only Hartree local field effects (RPA)
   LNABLA  =     F    use nabla operator in PAW spheres
   LVEL    =     F    velocity operator in full k-point grid
   LINTERFAST=   F  fast interpolation
   KINTER  =     0    interpolate to denser k-point grid
   CSHIFT  =0.1000    complex shift for real part using Kramers Kronig
   OMEGAMAX=  -1.0    maximum frequency
   DEG_THRESHOLD= 0.2000000E-02 threshold for treating states as degnerate
   RTIME   =   -0.100 relaxation time in fs
  (WPLASMAI=    0.000 imaginary part of plasma frequency in eV, 0.658/RTIME)
   DFIELD  = 0.0000000 0.0000000 0.0000000 field for delta impulse in time
 
 Orbital magnetization related:
   ORBITALMAG=     F  switch on orbital magnetization
   LCHIMAG   =     F  perturbation theory with respect to B field
   DQ        =  0.001000  dq finite difference perturbation B field
   LLRAUG    =     F  two centre corrections for induced B field



--------------------------------------------------------------------------------------------------------


 Static calculation
 charge density and potential will be updated during run
 spin polarized calculation
 Variant of blocked Davidson
 Davidson routine will perform the subspace rotation
 perform sub-space diagonalisation
    after iterative eigenvector-optimisation
 modified Broyden-mixing scheme, WC =      100.0
 initial mixing is a Kerker type mixing with AMIX =  0.2500 and BMIX =      0.0001
 Hartree-type preconditioning will be used
 using additional bands           33
 reciprocal scheme for non local part
 use partial core corrections
 calculate Harris-corrections to forces 
   (improved forces if not selfconsistent)
 use gradient corrections 
 use of overlap-Matrix (Vanderbilt PP)
 Fermi weights with tetrahedron method with Bloechl corrections


--------------------------------------------------------------------------------------------------------


  energy-cutoff  :      440.00
  volume of cell :     2556.15
      direct lattice vectors                 reciprocal lattice vectors
    14.120292719 -0.194555283  0.000000000     0.071402323  0.042258936  0.000000000
    -7.060146360 11.929094814  0.000000000     0.001164522  0.084517871  0.000000000
     0.000000000  0.000000000 15.300000000     0.000000000  0.000000000  0.065359477

  length of vectors
    14.121632988 13.861780899 15.300000000     0.082970533  0.084525893  0.065359477


 
 k-points in units of 2pi/SCALE and weight: K-Points                                
   0.00000000  0.00000000  0.00000000       0.111
   0.02427679  0.01436804  0.00000000       0.222
   0.00039594  0.02873608  0.00000000       0.222
   0.02467273  0.04310411  0.00000000       0.222
  -0.02388085  0.01436804  0.00000000       0.222
 
 k-points in reciprocal lattice and weights: K-Points                                
   0.00000000  0.00000000  0.00000000       0.111
   0.33333333 -0.00000000  0.00000000       0.222
  -0.00000000  0.33333333  0.00000000       0.222
   0.33333333  0.33333333  0.00000000       0.222
  -0.33333333  0.33333333  0.00000000       0.222
 
 position of ions in fractional coordinates (direct lattice) 
   0.10567936  0.21351909  0.42646415
   0.28750403  0.39866334  0.43315811
   0.10379301  0.39177313  0.42728737
   0.44732828  0.06383887  0.50569377
   0.45258916  0.40124889  0.41252546
   0.11203481  0.05273921  0.44868132
   0.09638015  0.71191070  0.48390127
   0.28433946  0.89006364  0.50120122
   0.10941441  0.89537413  0.49812536
   0.44792521  0.54827090  0.50190381
   0.44544784  0.88520183  0.48897001
   0.08690842  0.54210436  0.48067119
   0.61614813  0.22292684  0.47270451
   0.78023735  0.38968276  0.39988272
   0.61037743  0.39432339  0.43546161
   0.93951642  0.05229783  0.46070020
   0.94071854  0.38652888  0.39388003
   0.62278394  0.06558106  0.51203168
   0.61322902  0.71118454  0.53124878
   0.78984871  0.89727295  0.52288011
   0.60944297  0.89248269  0.52132702
   0.93832005  0.56283419  0.42050954
   0.95436023  0.90171878  0.53466451
   0.62130548  0.55465507  0.48986027
   0.16668926  0.33545237  0.42502835
   0.16473950  0.16097029  0.42095206
   0.33626584  0.00180669  0.52215766
   0.51175722  0.35246859  0.39238613
   0.34471728  0.36074551  0.38975287
   0.50565751  0.17673507  0.49315170
   0.15873210  0.98821904  0.44665654
   0.00214731  0.00186372  0.48284181
   0.16462634  0.83083069  0.50025956
   0.13400723  0.64526801  0.51778798
   0.33371346  0.49116238  0.49155062
   0.50288345  0.83078126  0.48972341
   0.33307237  0.82932770  0.47937372
   0.49902190  0.64803204  0.54483375
   0.14173676  0.48364631  0.48511610
   0.98839512  0.49595573  0.43598798
   0.66736443  0.33015381  0.42931770
   0.67970142  0.17802103  0.49523771
   0.82720183  0.98622484  0.46784919
   0.01097216  0.34809993  0.37880244
   0.83047981  0.33016544  0.37952861
   0.99296173  0.16101876  0.43513088
   0.66886761  0.00524437  0.53948092
   0.50484899  0.00388347  0.49830916
   0.66830364  0.83227641  0.53419919
   0.67536455  0.66551462  0.51246466
   0.83211404  0.50666912  0.39574663
   0.01584380  0.85299492  0.54867721
   0.84924332  0.85956436  0.56604968
   0.00424175  0.67726383  0.43455477
   0.66753141  0.49127771  0.48382075
   0.50565566  0.50179634  0.46716125
   0.28676550  0.59288202  0.55779478
 
 position of ions in cartesian coordinates  (Angst):
  -0.01525247  2.52652894  6.52490152
   1.24501949  4.69975734  6.62731913
  -1.30038803  4.65330535  6.53749677
   5.86569451  0.67450982  7.73711462
   3.55781544  4.69848248  6.31163954
   1.20961778  0.60733411  6.86482422
  -3.66527783  8.47369899  7.40368946
  -2.26902319 10.56233379  7.66837871
  -4.77650898 10.65971576  7.62131798
   2.45396233  6.45322935  7.67912826
   0.04019945 10.47299235  7.48124108
  -2.60016387  6.44990587  7.35426916
   7.12629583  2.53944055  7.23237896
   8.26596240  4.49676333  6.11820560
   5.83472707  4.58516899  6.66256267
  12.89701659  0.44107786  7.04871309
  10.55427072  4.42791793  6.02636449
   8.33087965  0.66115672  7.83408466
   3.63790638  8.36448089  8.12810630
   4.81801661 10.54998489  8.00006561
   2.30445469 10.52794023  7.97630344
   9.27566200  6.53154734  6.43379597
   7.10957918 10.57101302  8.18036706
   4.85706931  6.49565469  7.49486208
  -0.01464168  3.96921287  6.50293372
   1.18969621  1.88817887  6.44056650
   4.73541655 -0.04387015  7.98901215
   4.73768198  4.10506612  6.00350786
   2.32059277  4.23630084  5.96321896
   5.89225654  2.00991112  7.54522098
  -4.73562742 11.75767647  6.83384511
   0.01716253  0.02181472  7.38747974
  -3.54121407  9.87902912  7.65397131
  -2.66346527  7.67139143  7.92215605
   1.24445351  5.79419684  7.52072448
   1.23542426  9.81262973  7.49276825
  -1.15209560  9.82832776  7.33441796
   2.47113426  7.63334831  8.33595641
  -1.41324920  5.74188700  7.42227636
  10.45490840  5.72400547  6.67061605
   7.09244689  3.80859686  6.56856084
   8.34072854  1.99139023  7.57713695
   4.71744032 11.60383312  7.15809257
  -2.30270635  4.15038232  5.79567733
   9.39560165  3.77700060  5.80678775
  12.88409422  1.72762209  6.65750239
   9.40758052 -0.06757119  8.25405802
   7.10119768 -0.05189476  7.62413014
   3.56064983  9.79828218  8.17324767
   4.83771447  7.80759128  7.84070927
   8.17253562  5.88221182  6.05492343
  -5.79854994 10.17237480  8.39476135
   5.92291407 10.08860003  8.66056009
  -4.72168707  8.07831922  6.64868799
   5.95724630  5.73062663  7.40245743
   3.59725030  5.88759818  7.14756708
  -0.13662106  7.01675414  8.53426018
 


--------------------------------------------------------------------------------------------------------


 k-point  1 :   0.0000 0.0000 0.0000  plane waves:   53561
 k-point  2 :   0.3333-0.0000 0.0000  plane waves:   53587
 k-point  3 :  -0.0000 0.3333 0.0000  plane waves:   53527
 k-point  4 :   0.3333 0.3333 0.0000  plane waves:   53548
 k-point  5 :  -0.3333 0.3333 0.0000  plane waves:   53572

 maximum and minimum number of plane-waves per node :      4486     4442

 maximum number of plane-waves:     53587
 maximum index in each direction: 
   IXMAX=   24   IYMAX=   23   IZMAX=   26
   IXMIN=  -24   IYMIN=  -24   IZMIN=  -26


 parallel 3D FFT for wavefunctions:
    minimum data exchange during FFTs selected (reduces bandwidth)
 parallel 3D FFT for charge:
    minimum data exchange during FFTs selected (reduces bandwidth)


 total amount of memory used by VASP MPI-rank0    86571. kBytes
=======================================================================

   base      :      30000. kBytes
   nonl-proj :      13713. kBytes
   fftplans  :       3433. kBytes
   grid      :       8923. kBytes
   one-center:        155. kBytes
   wavefun   :      30347. kBytes
 
     INWAV:  cpu time    0.0000: real time    0.0001
 Broyden mixing: mesh for mixing (old mesh)
   NGX = 49   NGY = 47   NGZ = 53
  (NGX  =144   NGY  =144   NGZ  =160)
  gives a total of 122059 points

 initial charge density was supplied:
 charge density of overlapping atoms calculated
 number of electron     270.0000000 magnetization       1.0000000
 keeping initial charge density in first step


--------------------------------------------------------------------------------------------------------


 Maximum index for augmentation-charges          229 (set IRDMAX)


--------------------------------------------------------------------------------------------------------


 First call to EWALD:  gamma=   0.130
 Maximum number of real-space cells 3x 3x 3
 Maximum number of reciprocal cells 3x 3x 3

    FEWALD:  cpu time    0.0043: real time    0.0045


--------------------------------------- Iteration      1(   1)  ---------------------------------------


    POTLOK:  cpu time    0.1082: real time    0.1188
    SETDIJ:  cpu time    0.0085: real time    0.0095
     EDDAV:  cpu time    7.3891: real time    7.5083
 BZINTS: Fermi energy:  8.733672;270.000000 electrons
         Band energy:***********;  BLOECHL correction: -0.003193
       DOS:  cpu time    0.1284: real time    0.1288
    --------------------------------------------
      LOOP:  cpu time    7.6343: real time    7.7654

 eigenvalue-minimisations  :  3880
 total energy-change (2. order) : 0.2526411E+04  (-0.9892371E+04)
 number of electron     270.0000000 magnetization       1.0000000
 augmentation part      270.0000000 magnetization       1.0000000

 Free energy of the ion-electron system (eV)
  ---------------------------------------------------
  alpha Z        PSCENC =       135.95221073
  Ewald energy   TEWEN  =     26846.40644485
  -Hartree energ DENC   =    -38318.32609396
  -exchange      EXHF   =         0.00000000
  -V(xc)+E(xc)   XCENC  =      1020.69956117
  PAW double counting   =     10998.91041168   -11485.61342155
  entropy T*S    EENTRO =         0.00000000
  eigenvalues    EBANDS =     -1263.87800877
  atomic energy  EATOM  =     14592.26033195
  Solvation  Ediel_sol  =         0.00000000
  ---------------------------------------------------
  free energy    TOTEN  =      2526.41143611 eV

  energy without entropy =     2526.41143611  energy(sigma->0) =     2526.41143611


--------------------------------------------------------------------------------------------------------




--------------------------------------- Iteration      1(   2)  ---------------------------------------


     EDDAV:  cpu time    9.7332: real time    9.9985
 BZINTS: Fermi energy: -0.280945;270.000000 electrons
         Band energy:***********;  BLOECHL correction:  0.000000
       DOS:  cpu time    0.0040: real time    0.0040
    --------------------------------------------
      LOOP:  cpu time    9.7372: real time   10.0025

 eigenvalue-minimisations  :  4752
 total energy-change (2. order) :-0.2492140E+04  (-0.2383977E+04)
 number of electron     270.0000000 magnetization       1.0000000
 augmentation part      270.0000000 magnetization       1.0000000

 Free energy of the ion-electron system (eV)
  ---------------------------------------------------
  alpha Z        PSCENC =       135.95221073
  Ewald energy   TEWEN  =     26846.40644485
  -Hartree energ DENC   =    -38318.32609396
  -exchange      EXHF   =         0.00000000
  -V(xc)+E(xc)   XCENC  =      1020.69956117
  PAW double counting   =     10998.91041168   -11485.61342155
  entropy T*S    EENTRO =         0.00000000
  eigenvalues    EBANDS =     -3756.01804011
  atomic energy  EATOM  =     14592.26033195
  Solvation  Ediel_sol  =         0.00000000
  ---------------------------------------------------
  free energy    TOTEN  =        34.27140478 eV

  energy without entropy =       34.27140478  energy(sigma->0) =       34.27140478


--------------------------------------------------------------------------------------------------------




--------------------------------------- Iteration      1(   3)  ---------------------------------------


     EDDAV:  cpu time    8.7908: real time    8.9589
 BZINTS: Fermi energy: -3.561765;270.000000 electrons
         Band energy:***********;  BLOECHL correction:  0.000000
       DOS:  cpu time    0.0041: real time    0.0041
    --------------------------------------------
      LOOP:  cpu time    8.7949: real time    8.9630

 eigenvalue-minimisations  :  4088
 total energy-change (2. order) :-0.5188992E+03  (-0.5146328E+03)
 number of electron     270.0000000 magnetization       1.0000000
 augmentation part      270.0000000 magnetization       1.0000000

 Free energy of the ion-electron system (eV)
  ---------------------------------------------------
  alpha Z        PSCENC =       135.95221073
  Ewald energy   TEWEN  =     26846.40644485
  -Hartree energ DENC   =    -38318.32609396
  -exchange      EXHF   =         0.00000000
  -V(xc)+E(xc)   XCENC  =      1020.69956117
  PAW double counting   =     10998.91041168   -11485.61342155
  entropy T*S    EENTRO =         0.00000000
  eigenvalues    EBANDS =     -4274.91725523
  atomic energy  EATOM  =     14592.26033195
  Solvation  Ediel_sol  =         0.00000000
  ---------------------------------------------------
  free energy    TOTEN  =      -484.62781035 eV

  energy without entropy =     -484.62781035  energy(sigma->0) =     -484.62781035


--------------------------------------------------------------------------------------------------------




--------------------------------------- Iteration      1(   4)  ---------------------------------------


     EDDAV:  cpu time    8.9665: real time    9.1722
 BZINTS: Fermi energy: -3.966242;270.000000 electrons
         Band energy:***********;  BLOECHL correction:  0.000000
       DOS:  cpu time    0.0039: real time    0.0039
    --------------------------------------------
      LOOP:  cpu time    8.9704: real time    9.1760

 eigenvalue-minimisations  :  4200
 total energy-change (2. order) :-0.2097564E+02  (-0.2040047E+02)
 number of electron     270.0000000 magnetization       1.0000000
 augmentation part      270.0000000 magnetization       1.0000000

 Free energy of the ion-electron system (eV)
  ---------------------------------------------------
  alpha Z        PSCENC =       135.95221073
  Ewald energy   TEWEN  =     26846.40644485
  -Hartree energ DENC   =    -38318.32609396
  -exchange      EXHF   =         0.00000000
  -V(xc)+E(xc)   XCENC  =      1020.69956117
  PAW double counting   =     10998.91041168   -11485.61342155
  entropy T*S    EENTRO =         0.00000000
  eigenvalues    EBANDS =     -4295.89289259
  atomic energy  EATOM  =     14592.26033195
  Solvation  Ediel_sol  =         0.00000000
  ---------------------------------------------------
  free energy    TOTEN  =      -505.60344770 eV

  energy without entropy =     -505.60344770  energy(sigma->0) =     -505.60344770


--------------------------------------------------------------------------------------------------------




--------------------------------------- Iteration      1(   5)  ---------------------------------------


     EDDAV:  cpu time    9.8814: real time   10.0012
 BZINTS: Fermi energy: -4.000000;270.000000 electrons
         Band energy:***********;  BLOECHL correction:  0.000000
       DOS:  cpu time    0.0036: real time    0.0036
    CHARGE:  cpu time    0.1606: real time    0.1672
    MIXING:  cpu time    0.0033: real time    0.0043
    --------------------------------------------
      LOOP:  cpu time   10.0490: real time   10.1764

 eigenvalue-minimisations  :  4984
 total energy-change (2. order) :-0.9242010E+00  (-0.9146532E+00)
 number of electron     269.9999942 magnetization       0.0000001
 augmentation part       19.1059371 magnetization       0.0000555

 Broyden mixing:
  rms(total) = 0.38721E+01    rms(broyden)= 0.38693E+01
  rms(prec ) = 0.42879E+01
  weight for this iteration     100.00

 Free energy of the ion-electron system (eV)
  ---------------------------------------------------
  alpha Z        PSCENC =       135.95221073
  Ewald energy   TEWEN  =     26846.40644485
  -Hartree energ DENC   =    -38318.32609396
  -exchange      EXHF   =         0.00000000
  -V(xc)+E(xc)   XCENC  =      1020.69956117
  PAW double counting   =     10998.91041168   -11485.61342155
  entropy T*S    EENTRO =         0.00000000
  eigenvalues    EBANDS =     -4296.81709359
  atomic energy  EATOM  =     14592.26033195
  Solvation  Ediel_sol  =         0.00000000
  ---------------------------------------------------
  free energy    TOTEN  =      -506.52764870 eV

  energy without entropy =     -506.52764870  energy(sigma->0) =     -506.52764870


--------------------------------------------------------------------------------------------------------




--------------------------------------- Iteration      1(   6)  ---------------------------------------


    POTLOK:  cpu time    0.1006: real time    0.1034
    SETDIJ:  cpu time    0.0101: real time    0.0101
     EDDAV:  cpu time    8.0676: real time    8.2038
 BZINTS: Fermi energy: -3.751188;270.000000 electrons
         Band energy:***********;  BLOECHL correction:  0.000000
       DOS:  cpu time    0.0038: real time    0.0039
    CHARGE:  cpu time    0.1184: real time    0.1228
    MIXING:  cpu time    0.0025: real time    0.0031
    --------------------------------------------
      LOOP:  cpu time    8.3029: real time    8.4471

 eigenvalue-minimisations  :  4152
 total energy-change (2. order) : 0.2410726E+02  (-0.5260152E+01)
 number of electron     269.9999949 magnetization      -0.0000000
 augmentation part       18.0316671 magnetization       0.0008329

 Broyden mixing:
  rms(total) = 0.23809E+01    rms(broyden)= 0.23805E+01
  rms(prec ) = 0.25496E+01
  weight for this iteration     100.00

 eigenvalues of (default mixing * dielectric matrix)
  average eigenvalue GAMMA=   1.3928
  1.3928

 Free energy of the ion-electron system (eV)
  ---------------------------------------------------
  alpha Z        PSCENC =       135.95221073
  Ewald energy   TEWEN  =     26846.40644485
  -Hartree energ DENC   =    -38582.81356340
  -exchange      EXHF   =         0.00000000
  -V(xc)+E(xc)   XCENC  =      1034.26230589
  PAW double counting   =     14169.22614418   -14657.62730256
  entropy T*S    EENTRO =         0.00000000
  eigenvalues    EBANDS =     -4020.08695869
  atomic energy  EATOM  =     14592.26033195
  Solvation  Ediel_sol  =         0.00000000
  ---------------------------------------------------
  free energy    TOTEN  =      -482.42038704 eV

  energy without entropy =     -482.42038704  energy(sigma->0) =     -482.42038704


--------------------------------------------------------------------------------------------------------




--------------------------------------- Iteration      1(   7)  ---------------------------------------


    POTLOK:  cpu time    0.0988: real time    0.1019
    SETDIJ:  cpu time    0.0087: real time    0.0087
     EDDAV:  cpu time    8.5484: real time    8.6417
 BZINTS: Fermi energy: -3.339835;270.000000 electrons
         Band energy:***********;  BLOECHL correction:  0.000000
       DOS:  cpu time    0.0035: real time    0.0035
    CHARGE:  cpu time    0.1174: real time    0.1183
    MIXING:  cpu time    0.0031: real time    0.0032
    --------------------------------------------
      LOOP:  cpu time    8.7798: real time    8.8771

 eigenvalue-minimisations  :  4192
 total energy-change (2. order) : 0.3681997E+01  (-0.3259019E+01)
 number of electron     269.9999955 magnetization      -0.0000000
 augmentation part       17.6618797 magnetization      -0.0016488

 Broyden mixing:
  rms(total) = 0.15704E+01    rms(broyden)= 0.15700E+01
  rms(prec ) = 0.16990E+01
  weight for this iteration     100.00

 eigenvalues of (default mixing * dielectric matrix)
  average eigenvalue GAMMA=   1.4604
  0.9229  1.9980

 Free energy of the ion-electron system (eV)
  ---------------------------------------------------
  alpha Z        PSCENC =       135.95221073
  Ewald energy   TEWEN  =     26846.40644485
  -Hartree energ DENC   =    -38810.13619502
  -exchange      EXHF   =         0.00000000
  -V(xc)+E(xc)   XCENC  =      1043.88059002
  PAW double counting   =     18144.98754919   -18635.85291359
  entropy T*S    EENTRO =         0.00000000
  eigenvalues    EBANDS =     -3796.23640864
  atomic energy  EATOM  =     14592.26033195
  Solvation  Ediel_sol  =         0.00000000
  ---------------------------------------------------
  free energy    TOTEN  =      -478.73839051 eV

  energy without entropy =     -478.73839051  energy(sigma->0) =     -478.73839051


--------------------------------------------------------------------------------------------------------




--------------------------------------- Iteration      1(   8)  ---------------------------------------


    POTLOK:  cpu time    0.1217: real time    0.1240
    SETDIJ:  cpu time    0.0083: real time    0.0083
     EDDAV:  cpu time    7.9930: real time    8.1237
 BZINTS: Fermi energy: -2.869717;270.000000 electrons
         Band energy:***********;  BLOECHL correction:  0.000000
       DOS:  cpu time    0.0035: real time    0.0035
    CHARGE:  cpu time    0.1179: real time    0.1188
    MIXING:  cpu time    0.0029: real time    0.0029
    --------------------------------------------
      LOOP:  cpu time    8.2473: real time    8.3813

 eigenvalue-minimisations  :  4000
 total energy-change (2. order) : 0.1719127E+01  (-0.9723136E+00)
 number of electron     269.9999951 magnetization       0.0000000
 augmentation part       17.4402712 magnetization      -0.0001843

 Broyden mixing:
  rms(total) = 0.11010E+01    rms(broyden)= 0.11008E+01
  rms(prec ) = 0.11773E+01
  weight for this iteration     100.00

 eigenvalues of (default mixing * dielectric matrix)
  average eigenvalue GAMMA=   1.6344
  3.0058  1.2436  0.6539

 Free energy of the ion-electron system (eV)
  ---------------------------------------------------
  alpha Z        PSCENC =       135.95221073
  Ewald energy   TEWEN  =     26846.40644485
  -Hartree energ DENC   =    -38903.23080644
  -exchange      EXHF   =         0.00000000
  -V(xc)+E(xc)   XCENC  =      1047.92961852
  PAW double counting   =     20949.39413238   -21442.32266085
  entropy T*S    EENTRO =         0.00000000
  eigenvalues    EBANDS =     -3703.40853430
  atomic energy  EATOM  =     14592.26033195
  Solvation  Ediel_sol  =         0.00000000
  ---------------------------------------------------
  free energy    TOTEN  =      -477.01926315 eV

  energy without entropy =     -477.01926315  energy(sigma->0) =     -477.01926315


--------------------------------------------------------------------------------------------------------




--------------------------------------- Iteration      1(   9)  ---------------------------------------


    POTLOK:  cpu time    0.0961: real time    0.0983
    SETDIJ:  cpu time    0.0084: real time    0.0084
     EDDAV:  cpu time    9.2207: real time    9.3195
 BZINTS: Fermi energy: -2.720930;270.000000 electrons
         Band energy:***********;  BLOECHL correction:  0.000000
       DOS:  cpu time    0.0038: real time    0.0038
    CHARGE:  cpu time    0.1177: real time    0.1186
    MIXING:  cpu time    0.0028: real time    0.0028
    --------------------------------------------
      LOOP:  cpu time    9.4495: real time    9.5514

 eigenvalue-minimisations  :  4672
 total energy-change (2. order) :-0.2429518E+00  (-0.1407953E+01)
 number of electron     269.9999950 magnetization       0.0000000
 augmentation part       17.5460188 magnetization      -0.0000391

 Broyden mixing:
  rms(total) = 0.63872E+00    rms(broyden)= 0.63842E+00
  rms(prec ) = 0.81434E+00
  weight for this iteration     100.00

 eigenvalues of (default mixing * dielectric matrix)
  average eigenvalue GAMMA=   1.5574
  3.5825  1.3139  0.6666  0.6666

 Free energy of the ion-electron system (eV)
  ---------------------------------------------------
  alpha Z        PSCENC =       135.95221073
  Ewald energy   TEWEN  =     26846.40644485
  -Hartree energ DENC   =    -38965.60006169
  -exchange      EXHF   =         0.00000000
  -V(xc)+E(xc)   XCENC  =      1050.39141175
  PAW double counting   =     24506.01153505   -25003.43627178
  entropy T*S    EENTRO =         0.00000000
  eigenvalues    EBANDS =     -3639.24781581
  atomic energy  EATOM  =     14592.26033195
  Solvation  Ediel_sol  =         0.00000000
  ---------------------------------------------------
  free energy    TOTEN  =      -477.26221495 eV

  energy without entropy =     -477.26221495  energy(sigma->0) =     -477.26221495


--------------------------------------------------------------------------------------------------------




--------------------------------------- Iteration      1(  10)  ---------------------------------------


    POTLOK:  cpu time    0.1205: real time    0.1228
    SETDIJ:  cpu time    0.0093: real time    0.0096
     EDDAV:  cpu time    8.6189: real time    8.6727
 BZINTS: Fermi energy: -2.349587;270.000000 electrons
         Band energy:***********;  BLOECHL correction:  0.000000
       DOS:  cpu time    0.0035: real time    0.0035
    CHARGE:  cpu time    0.1179: real time    0.1186
    MIXING:  cpu time    0.0031: real time    0.0031
    --------------------------------------------
      LOOP:  cpu time    8.8733: real time    8.9303

 eigenvalue-minimisations  :  4432
 total energy-change (2. order) : 0.7539182E+00  (-0.6266620E+00)
 number of electron     269.9999951 magnetization       0.0000000
 augmentation part       17.5340740 magnetization      -0.0000920

 Broyden mixing:
  rms(total) = 0.31597E+00    rms(broyden)= 0.31525E+00
  rms(prec ) = 0.39778E+00
  weight for this iteration     100.00

 eigenvalues of (default mixing * dielectric matrix)
  average eigenvalue GAMMA=   1.4626
  3.8259  1.4200  0.9676  0.5499  0.5499

 Free energy of the ion-electron system (eV)
  ---------------------------------------------------
  alpha Z        PSCENC =       135.95221073
  Ewald energy   TEWEN  =     26846.40644485
  -Hartree energ DENC   =    -38990.19291500
  -exchange      EXHF   =         0.00000000
  -V(xc)+E(xc)   XCENC  =      1051.75318150
  PAW double counting   =     26388.14700176   -26885.78084468
  entropy T*S    EENTRO =         0.00000000
  eigenvalues    EBANDS =     -3615.05370786
  atomic energy  EATOM  =     14592.26033195
  Solvation  Ediel_sol  =         0.00000000
  ---------------------------------------------------
  free energy    TOTEN  =      -476.50829674 eV

  energy without entropy =     -476.50829674  energy(sigma->0) =     -476.50829674


--------------------------------------------------------------------------------------------------------




--------------------------------------- Iteration      1(  11)  ---------------------------------------


    POTLOK:  cpu time    0.0991: real time    0.1009
    SETDIJ:  cpu time    0.0085: real time    0.0085
     EDDAV:  cpu time    8.8449: real time    8.9554
 BZINTS: Fermi energy: -2.434609;270.000000 electrons
         Band energy:***********;  BLOECHL correction:  0.000000
       DOS:  cpu time    0.0035: real time    0.0035
    CHARGE:  cpu time    0.1158: real time    0.1168
    MIXING:  cpu time    0.0028: real time    0.0028
    --------------------------------------------
      LOOP:  cpu time    9.0746: real time    9.1879

 eigenvalue-minimisations  :  4632
 total energy-change (2. order) : 0.4625665E-01  (-0.2288221E+00)
 number of electron     269.9999951 magnetization       0.0000000
 augmentation part       17.5213387 magnetization      -0.0000383

 Broyden mixing:
  rms(total) = 0.23754E+00    rms(broyden)= 0.23719E+00
  rms(prec ) = 0.32059E+00
  weight for this iteration     100.00

 eigenvalues of (default mixing * dielectric matrix)
  average eigenvalue GAMMA=   1.3842
  3.8329  1.4325  1.0175  1.0175  0.5025  0.5025

 Free energy of the ion-electron system (eV)
  ---------------------------------------------------
  alpha Z        PSCENC =       135.95221073
  Ewald energy   TEWEN  =     26846.40644485
  -Hartree energ DENC   =    -38982.77418745
  -exchange      EXHF   =         0.00000000
  -V(xc)+E(xc)   XCENC  =      1051.66235328
  PAW double counting   =     27098.11628132   -27595.29745106
  entropy T*S    EENTRO =         0.00000000
  eigenvalues    EBANDS =     -3622.78802371
  atomic energy  EATOM  =     14592.26033195
  Solvation  Ediel_sol  =         0.00000000
  ---------------------------------------------------
  free energy    TOTEN  =      -476.46204009 eV

  energy without entropy =     -476.46204009  energy(sigma->0) =     -476.46204009


--------------------------------------------------------------------------------------------------------




--------------------------------------- Iteration      1(  12)  ---------------------------------------


    POTLOK:  cpu time    0.0991: real time    0.1015
    SETDIJ:  cpu time    0.0084: real time    0.0084
     EDDAV:  cpu time    9.4036: real time    9.4769
 BZINTS: Fermi energy: -2.450863;270.000000 electrons
         Band energy:***********;  BLOECHL correction:  0.000000
       DOS:  cpu time    0.0037: real time    0.0037
    CHARGE:  cpu time    0.1153: real time    0.1155
    MIXING:  cpu time    0.0032: real time    0.0032
    --------------------------------------------
      LOOP:  cpu time    9.6333: real time    9.7093

 eigenvalue-minimisations  :  4952
 total energy-change (2. order) : 0.9530926E-01  (-0.1490405E+00)
 number of electron     269.9999951 magnetization      -0.0000000
 augmentation part       17.4842311 magnetization      -0.0000319

 Broyden mixing:
  rms(total) = 0.14042E+00    rms(broyden)= 0.14008E+00
  rms(prec ) = 0.17767E+00
  weight for this iteration     100.00

 eigenvalues of (default mixing * dielectric matrix)
  average eigenvalue GAMMA=   1.3814
  3.7802  1.9761  1.2334  0.8367  0.8367  0.5032  0.5032

 Free energy of the ion-electron system (eV)
  ---------------------------------------------------
  alpha Z        PSCENC =       135.95221073
  Ewald energy   TEWEN  =     26846.40644485
  -Hartree energ DENC   =    -38968.83899172
  -exchange      EXHF   =         0.00000000
  -V(xc)+E(xc)   XCENC  =      1051.23578852
  PAW double counting   =     27295.12178358   -27791.59769506
  entropy T*S    EENTRO =         0.00000000
  eigenvalues    EBANDS =     -3636.90660370
  atomic energy  EATOM  =     14592.26033195
  Solvation  Ediel_sol  =         0.00000000
  ---------------------------------------------------
  free energy    TOTEN  =      -476.36673084 eV

  energy without entropy =     -476.36673084  energy(sigma->0) =     -476.36673084


--------------------------------------------------------------------------------------------------------




--------------------------------------- Iteration      1(  13)  ---------------------------------------


    POTLOK:  cpu time    0.0993: real time    0.1013
    SETDIJ:  cpu time    0.0083: real time    0.0083
     EDDAV:  cpu time    7.7347: real time    7.8041
 BZINTS: Fermi energy: -2.480870;270.000000 electrons
         Band energy:***********;  BLOECHL correction:  0.000000
       DOS:  cpu time    0.0037: real time    0.0037
    CHARGE:  cpu time    0.1158: real time    0.1162
    MIXING:  cpu time    0.0033: real time    0.0033
    --------------------------------------------
      LOOP:  cpu time    7.9651: real time    8.0369

 eigenvalue-minimisations  :  3888
 total energy-change (2. order) : 0.4065140E-01  (-0.1591060E-01)
 number of electron     269.9999951 magnetization      -0.0000000
 augmentation part       17.5037083 magnetization      -0.0000404

 Broyden mixing:
  rms(total) = 0.68892E-01    rms(broyden)= 0.68865E-01
  rms(prec ) = 0.80626E-01
  weight for this iteration     100.00

 eigenvalues of (default mixing * dielectric matrix)
  average eigenvalue GAMMA=   1.3752
  3.7709  2.4485  1.2907  0.8442  0.8442  0.7957  0.5038  0.5038

 Free energy of the ion-electron system (eV)
  ---------------------------------------------------
  alpha Z        PSCENC =       135.95221073
  Ewald energy   TEWEN  =     26846.40644485
  -Hartree energ DENC   =    -38951.11975869
  -exchange      EXHF   =         0.00000000
  -V(xc)+E(xc)   XCENC  =      1050.59487490
  PAW double counting   =     27394.60182416   -27890.96371322
  entropy T*S    EENTRO =         0.00000000
  eigenvalues    EBANDS =     -3654.05829412
  atomic energy  EATOM  =     14592.26033195
  Solvation  Ediel_sol  =         0.00000000
  ---------------------------------------------------
  free energy    TOTEN  =      -476.32607944 eV

  energy without entropy =     -476.32607944  energy(sigma->0) =     -476.32607944


--------------------------------------------------------------------------------------------------------




--------------------------------------- Iteration      1(  14)  ---------------------------------------


    POTLOK:  cpu time    0.0993: real time    0.1012
    SETDIJ:  cpu time    0.0083: real time    0.0084
     EDDAV:  cpu time    7.9841: real time    8.0559
 BZINTS: Fermi energy: -2.520880;270.000000 electrons
         Band energy:***********;  BLOECHL correction:  0.000000
       DOS:  cpu time    0.0037: real time    0.0037
    CHARGE:  cpu time    0.1407: real time    0.1417
    MIXING:  cpu time    0.0033: real time    0.0033
    --------------------------------------------
      LOOP:  cpu time    8.2395: real time    8.3143

 eigenvalue-minimisations  :  3968
 total energy-change (2. order) : 0.3562522E-02  (-0.7180303E-02)
 number of electron     269.9999951 magnetization       0.0000000
 augmentation part       17.5108977 magnetization      -0.0000213

 Broyden mixing:
  rms(total) = 0.34336E-01    rms(broyden)= 0.34244E-01
  rms(prec ) = 0.41148E-01
  weight for this iteration     100.00

 eigenvalues of (default mixing * dielectric matrix)
  average eigenvalue GAMMA=   1.3555
  3.7791  2.5348  1.3033  0.9223  0.9223  0.8647  0.8647  0.5041  0.5041

 Free energy of the ion-electron system (eV)
  ---------------------------------------------------
  alpha Z        PSCENC =       135.95221073
  Ewald energy   TEWEN  =     26846.40644485
  -Hartree energ DENC   =    -38943.33601184
  -exchange      EXHF   =         0.00000000
  -V(xc)+E(xc)   XCENC  =      1050.31742796
  PAW double counting   =     27477.59604657   -27973.87887171
  entropy T*S    EENTRO =         0.00000000
  eigenvalues    EBANDS =     -3661.64009544
  atomic energy  EATOM  =     14592.26033195
  Solvation  Ediel_sol  =         0.00000000
  ---------------------------------------------------
  free energy    TOTEN  =      -476.32251692 eV

  energy without entropy =     -476.32251692  energy(sigma->0) =     -476.32251692


--------------------------------------------------------------------------------------------------------




--------------------------------------- Iteration      1(  15)  ---------------------------------------


    POTLOK:  cpu time    0.0983: real time    0.1004
    SETDIJ:  cpu time    0.0085: real time    0.0086
     EDDAV:  cpu time    7.8934: real time    7.9694
 BZINTS: Fermi energy: -2.514629;270.000000 electrons
         Band energy:***********;  BLOECHL correction:  0.000000
       DOS:  cpu time    0.0035: real time    0.0035
    CHARGE:  cpu time    0.1152: real time    0.1157
    MIXING:  cpu time    0.0034: real time    0.0034
    --------------------------------------------
      LOOP:  cpu time    8.1223: real time    8.2008

 eigenvalue-minimisations  :  4000
 total energy-change (2. order) :-0.4748296E-03  (-0.3509772E-02)
 number of electron     269.9999951 magnetization       0.0000000
 augmentation part       17.5094604 magnetization       0.0000044

 Broyden mixing:
  rms(total) = 0.31430E-01    rms(broyden)= 0.31391E-01
  rms(prec ) = 0.41050E-01
  weight for this iteration     100.00

 eigenvalues of (default mixing * dielectric matrix)
  average eigenvalue GAMMA=   1.3578
  3.7264  2.6917  1.3672  1.2308  1.2308  0.8160  0.8160  0.6947  0.5022  0.5022

 Free energy of the ion-electron system (eV)
  ---------------------------------------------------
  alpha Z        PSCENC =       135.95221073
  Ewald energy   TEWEN  =     26846.40644485
  -Hartree energ DENC   =    -38943.99050775
  -exchange      EXHF   =         0.00000000
  -V(xc)+E(xc)   XCENC  =      1050.32761939
  PAW double counting   =     27506.35887056   -28002.68143614
  entropy T*S    EENTRO =         0.00000000
  eigenvalues    EBANDS =     -3660.95652535
  atomic energy  EATOM  =     14592.26033195
  Solvation  Ediel_sol  =         0.00000000
  ---------------------------------------------------
  free energy    TOTEN  =      -476.32299175 eV

  energy without entropy =     -476.32299175  energy(sigma->0) =     -476.32299175


--------------------------------------------------------------------------------------------------------




--------------------------------------- Iteration      1(  16)  ---------------------------------------


    POTLOK:  cpu time    0.0984: real time    0.1009
    SETDIJ:  cpu time    0.0084: real time    0.0084
     EDDAV:  cpu time    8.2838: real time    8.3671
 BZINTS: Fermi energy: -2.515879;270.000000 electrons
         Band energy:***********;  BLOECHL correction:  0.000000
       DOS:  cpu time    0.0037: real time    0.0037
    CHARGE:  cpu time    0.1182: real time    0.1195
    MIXING:  cpu time    0.0038: real time    0.0039
    --------------------------------------------
      LOOP:  cpu time    8.5163: real time    8.6035

 eigenvalue-minimisations  :  4304
 total energy-change (2. order) : 0.8142111E-03  (-0.2691339E-02)
 number of electron     269.9999951 magnetization       0.0000000
 augmentation part       17.5102346 magnetization       0.0000056

 Broyden mixing:
  rms(total) = 0.20725E-01    rms(broyden)= 0.20658E-01
  rms(prec ) = 0.27256E-01
  weight for this iteration     100.00

 eigenvalues of (default mixing * dielectric matrix)
  average eigenvalue GAMMA=   1.3586
  3.6848  2.9517  1.7709  1.1009  1.1009  0.9940  0.8061  0.8061  0.7299  0.4996
  0.4996

 Free energy of the ion-electron system (eV)
  ---------------------------------------------------
  alpha Z        PSCENC =       135.95221073
  Ewald energy   TEWEN  =     26846.40644485
  -Hartree energ DENC   =    -38943.73824927
  -exchange      EXHF   =         0.00000000
  -V(xc)+E(xc)   XCENC  =      1050.31095025
  PAW double counting   =     27510.41468699   -28006.77625896
  entropy T*S    EENTRO =         0.00000000
  eigenvalues    EBANDS =     -3661.15229407
  atomic energy  EATOM  =     14592.26033195
  Solvation  Ediel_sol  =         0.00000000
  ---------------------------------------------------
  free energy    TOTEN  =      -476.32217754 eV

  energy without entropy =     -476.32217754  energy(sigma->0) =     -476.32217754


--------------------------------------------------------------------------------------------------------




--------------------------------------- Iteration      1(  17)  ---------------------------------------


    POTLOK:  cpu time    0.0969: real time    0.0991
    SETDIJ:  cpu time    0.0085: real time    0.0088
     EDDAV:  cpu time    8.2006: real time    8.2970
 BZINTS: Fermi energy: -2.515879;270.000000 electrons
         Band energy:***********;  BLOECHL correction:  0.000000
       DOS:  cpu time    0.0041: real time    0.0042
    CHARGE:  cpu time    0.1154: real time    0.1164
    MIXING:  cpu time    0.0040: real time    0.0040
    --------------------------------------------
      LOOP:  cpu time    8.4295: real time    8.5294

 eigenvalue-minimisations  :  4112
 total energy-change (2. order) : 0.1289764E-03  (-0.1209913E-02)
 number of electron     269.9999951 magnetization       0.0000000
 augmentation part       17.5102000 magnetization       0.0000297

 Broyden mixing:
  rms(total) = 0.13686E-01    rms(broyden)= 0.13652E-01
  rms(prec ) = 0.17532E-01
  weight for this iteration     100.00

 eigenvalues of (default mixing * dielectric matrix)
  average eigenvalue GAMMA=   1.4017
  3.7221  3.1122  1.9242  1.4078  1.4078  0.8372  0.8372  1.0176  0.9252  0.4978
  0.4978  0.6340

 Free energy of the ion-electron system (eV)
  ---------------------------------------------------
  alpha Z        PSCENC =       135.95221073
  Ewald energy   TEWEN  =     26846.40644485
  -Hartree energ DENC   =    -38943.81669434
  -exchange      EXHF   =         0.00000000
  -V(xc)+E(xc)   XCENC  =      1050.31138418
  PAW double counting   =     27516.16161975   -28012.53162484
  entropy T*S    EENTRO =         0.00000000
  eigenvalues    EBANDS =     -3661.06572085
  atomic energy  EATOM  =     14592.26033195
  Solvation  Ediel_sol  =         0.00000000
  ---------------------------------------------------
  free energy    TOTEN  =      -476.32204856 eV

  energy without entropy =     -476.32204856  energy(sigma->0) =     -476.32204856


--------------------------------------------------------------------------------------------------------




--------------------------------------- Iteration      1(  18)  ---------------------------------------


    POTLOK:  cpu time    0.1288: real time    0.1310
    SETDIJ:  cpu time    0.0086: real time    0.0086
     EDDAV:  cpu time    7.1602: real time    7.2446
 BZINTS: Fermi energy: -2.515879;270.000000 electrons
         Band energy:***********;  BLOECHL correction:  0.000000
       DOS:  cpu time    0.0040: real time    0.0040
    CHARGE:  cpu time    0.1798: real time    0.1810
    MIXING:  cpu time    0.0043: real time    0.0043
    --------------------------------------------
      LOOP:  cpu time    7.4858: real time    7.5735

 eigenvalue-minimisations  :  3328
 total energy-change (2. order) : 0.1214375E-03  (-0.4067712E-03)
 number of electron     269.9999951 magnetization       0.0000000
 augmentation part       17.5098109 magnetization       0.0000462

 Broyden mixing:
  rms(total) = 0.73525E-02    rms(broyden)= 0.73291E-02
  rms(prec ) = 0.94342E-02
  weight for this iteration     100.00

 eigenvalues of (default mixing * dielectric matrix)
  average eigenvalue GAMMA=   1.4708
  3.5503  3.5503  2.9850  1.6660  1.1972  1.1972  0.8317  0.8317  0.9283  0.7739
  0.4971  0.4971  0.6151

 Free energy of the ion-electron system (eV)
  ---------------------------------------------------
  alpha Z        PSCENC =       135.95221073
  Ewald energy   TEWEN  =     26846.40644485
  -Hartree energ DENC   =    -38943.94516450
  -exchange      EXHF   =         0.00000000
  -V(xc)+E(xc)   XCENC  =      1050.32003424
  PAW double counting   =     27523.04988004   -28019.41906697
  entropy T*S    EENTRO =         0.00000000
  eigenvalues    EBANDS =     -3660.94659747
  atomic energy  EATOM  =     14592.26033195
  Solvation  Ediel_sol  =         0.00000000
  ---------------------------------------------------
  free energy    TOTEN  =      -476.32192712 eV

  energy without entropy =     -476.32192712  energy(sigma->0) =     -476.32192712


--------------------------------------------------------------------------------------------------------




--------------------------------------- Iteration      1(  19)  ---------------------------------------


    POTLOK:  cpu time    0.1002: real time    0.1017
    SETDIJ:  cpu time    0.0098: real time    0.0098
     EDDAV:  cpu time    5.7072: real time    5.7702
 BZINTS: Fermi energy: -2.514629;270.000000 electrons
         Band energy:***********;  BLOECHL correction:  0.000000
       DOS:  cpu time    0.0039: real time    0.0040
    --------------------------------------------
      LOOP:  cpu time    5.8210: real time    5.8857

 eigenvalue-minimisations  :  2288
 total energy-change (2. order) : 0.2241444E-04  (-0.5459559E-04)
 number of electron     269.9999951 magnetization       0.0000000
 augmentation part       17.5098109 magnetization       0.0000462

 Free energy of the ion-electron system (eV)
  ---------------------------------------------------
  alpha Z        PSCENC =       135.95221073
  Ewald energy   TEWEN  =     26846.40644485
  -Hartree energ DENC   =    -38944.32430313
  -exchange      EXHF   =         0.00000000
  -V(xc)+E(xc)   XCENC  =      1050.33400985
  PAW double counting   =     27521.72784793   -28018.09765948
  entropy T*S    EENTRO =         0.00000000
  eigenvalues    EBANDS =     -3660.58078742
  atomic energy  EATOM  =     14592.26033195
  Solvation  Ediel_sol  =         0.00000000
  ---------------------------------------------------
  free energy    TOTEN  =      -476.32190471 eV

  energy without entropy =     -476.32190471  energy(sigma->0) =     -476.32190471


--------------------------------------------------------------------------------------------------------




 average (electrostatic) potential at core
  the test charge radii are     0.6991  0.7089  0.9911
  (the norm of the test charge is              1.0000)
       1 -60.7870       2 -61.1174       3 -61.1124       4 -60.7718       5 -60.7921
       6 -60.7912       7 -60.9721       8 -60.8236       9 -60.7273      10 -61.4173
      11 -60.9156      12 -61.3907      13 -60.7734      14 -60.7318      15 -60.5329
      16 -60.7881      17 -60.7748      18 -60.7548      19 -61.0635      20 -60.7769
      21 -60.8227      22 -60.8597      23 -60.8479      24 -60.8103      25 -74.6852
      26 -72.4320      27 -72.4057      28 -72.6469      29 -72.7717      30 -72.4538
      31 -72.4542      32 -74.8888      33 -74.3670      34 -72.8918      35 -73.8199
      36 -72.5335      37 -72.5465      38 -72.9504      39 -73.7730      40 -74.9817
      41 -74.4690      42 -72.5270      43 -72.4502      44 -72.7776      45 -72.7232
      46 -72.4377      47 -72.4503      48 -74.7611      49 -74.5338      50 -72.7003
      51 -72.5691      52 -72.4454      53 -72.4049      54 -72.6720      55 -72.5851
      56 -75.0098      57 -82.6153
 
 
 
 E-fermi :  -2.5146     XC(G=0):  -2.8883     alpha+bet : -2.1210


 spin component 1

 k-point     1 :       0.0000    0.0000    0.0000
  band No.  band energies     occupation 
      1     -27.9362      1.00000
      2     -27.9339      1.00000
      3     -27.9091      1.00000
      4     -27.8663      1.00000
      5     -27.8493      1.00000
      6     -25.9685      1.00000
      7     -25.8509      1.00000
      8     -25.6429      1.00000
      9     -25.5510      1.00000
     10     -24.7739      1.00000
     11     -24.6774      1.00000
     12     -24.6435      1.00000
     13     -23.8397      1.00000
     14     -23.7444      1.00000
     15     -23.6413      1.00000
     16     -23.5725      1.00000
     17     -23.5196      1.00000
     18     -23.4135      1.00000
     19     -22.7945      1.00000
     20     -22.6116      1.00000
     21     -22.5902      1.00000
     22     -21.8953      1.00000
     23     -21.8495      1.00000
     24     -21.7185      1.00000
     25     -21.6289      1.00000
     26     -21.5526      1.00000
     27     -21.5520      1.00000
     28     -21.4502      1.00000
     29     -21.4287      1.00000
     30     -21.0550      1.00000
     31     -20.9687      1.00000
     32     -20.8948      1.00000
     33     -20.6828      1.00000
     34     -20.4699      1.00000
     35     -20.3774      1.00000
     36     -20.2008      1.00000
     37     -20.0322      1.00000
     38     -17.4134      1.00000
     39     -17.3290      1.00000
     40     -17.2010      1.00000
     41     -16.9617      1.00000
     42     -16.8614      1.00000
     43     -16.8195      1.00000
     44     -16.4855      1.00000
     45     -16.2757      1.00000
     46     -15.7244      1.00000
     47     -15.6221      1.00000
     48     -15.5089      1.00000
     49     -15.2428      1.00000
     50     -14.9373      1.00000
     51     -14.9062      1.00000
     52     -14.2585      1.00000
     53     -14.1746      1.00000
     54     -13.9960      1.00000
     55     -13.8396      1.00000
     56     -13.6742      1.00000
     57     -13.6163      1.00000
     58     -13.4504      1.00000
     59     -13.4456      1.00000
     60     -13.3728      1.00000
     61     -13.2942      1.00000
     62     -13.2019      1.00000
     63     -12.5367      1.00000
     64     -12.3512      1.00000
     65     -12.3184      1.00000
     66     -12.1632      1.00000
     67     -12.1000      1.00000
     68     -12.0544      1.00000
     69     -12.0156      1.00000
     70     -11.9828      1.00000
     71     -11.7660      1.00000
     72     -11.6645      1.00000
     73     -11.5855      1.00000
     74     -11.3745      1.00000
     75     -11.2778      1.00000
     76     -11.1125      1.00000
     77     -11.0411      1.00000
     78     -10.7726      1.00000
     79     -10.6449      1.00000
     80     -10.4163      1.00000
     81     -10.3391      1.00000
     82     -10.1328      1.00000
     83      -9.9352      1.00000
     84      -9.7222      1.00000
     85      -9.5710      1.00000
     86      -9.2426      1.00000
     87      -9.1481      1.00000
     88      -9.1202      1.00000
     89      -9.0576      1.00000
     90      -9.0220      1.00000
     91      -8.7547      1.00000
     92      -8.3375      1.00000
     93      -8.3057      1.00000
     94      -8.1614      1.00000
     95      -8.0402      1.00000
     96      -7.9947      1.00000
     97      -7.8664      1.00000
     98      -7.7135      1.00000
     99      -7.6076      1.00000
    100      -7.4114      1.00000
    101      -7.3774      1.00000
    102      -7.3654      1.00000
    103      -7.3038      1.00000
    104      -7.2363      1.00000
    105      -7.1969      1.00000
    106      -7.1366      1.00000
    107      -7.0646      1.00000
    108      -7.0485      1.00000
    109      -6.8829      1.00000
    110      -6.7708      1.00000
    111      -6.6810      1.00000
    112      -6.6116      1.00000
    113      -6.4471      1.00000
    114      -6.3900      1.00000
    115      -6.0543      1.00000
    116      -5.8794      1.00000
    117      -5.7912      1.00000
    118      -5.7555      1.00000
    119      -5.7046      1.00000
    120      -5.5962      1.00000
    121      -5.5490      1.00000
    122      -5.4258      1.00000
    123      -5.2872      1.00000
    124      -5.2438      1.00000
    125      -5.2322      1.00000
    126      -5.1076      1.00000
    127      -5.0275      1.00000
    128      -4.8921      1.00000
    129      -4.7927      1.00000
    130      -4.6784      1.00000
    131      -4.5647      1.00000
    132      -4.5196      1.00000
    133      -4.4508      1.00000
    134      -4.2415      1.00000
    135      -2.6279      1.00000
    136      -2.3952      0.00000
    137      -2.1942      0.00000
    138      -1.9278      0.00000
    139      -1.7351      0.00000
    140      -1.6591      0.00000
    141      -1.5743      0.00000
    142      -1.3532      0.00000
    143      -1.2395      0.00000
    144      -1.0683      0.00000
    145      -0.9977      0.00000
    146      -0.7129      0.00000
    147      -0.5632      0.00000
    148       0.2851      0.00000
    149       0.4210      0.00000
    150       0.6278      0.00000
    151       0.7236      0.00000
    152       0.7792      0.00000
    153       0.8363      0.00000
    154       0.8992      0.00000
    155       0.9910      0.00000
    156       1.3130      0.00000
    157       1.5149      0.00000
    158       1.5409      0.00000
    159       1.6543      0.00000
    160       1.7191      0.00000
    161       1.7704      0.00000
    162       1.9497      0.00000
    163       1.9850      0.00000
    164       2.0682      0.00000
    165       2.1334      0.00000
    166       2.2194      0.00000
    167       2.4006      0.00000
    168       2.4545      0.00000

 k-point     2 :       0.3333   -0.0000    0.0000
  band No.  band energies     occupation 
      1     -27.9362      1.00000
      2     -27.9339      1.00000
      3     -27.9091      1.00000
      4     -27.8663      1.00000
      5     -27.8493      1.00000
      6     -25.9469      1.00000
      7     -25.8723      1.00000
      8     -25.6440      1.00000
      9     -25.5696      1.00000
     10     -24.7536      1.00000
     11     -24.6466      1.00000
     12     -24.5388      1.00000
     13     -24.1933      1.00000
     14     -23.7093      1.00000
     15     -23.6459      1.00000
     16     -23.5511      1.00000
     17     -23.5089      1.00000
     18     -23.1643      1.00000
     19     -22.8378      1.00000
     20     -22.6194      1.00000
     21     -22.5267      1.00000
     22     -21.9173      1.00000
     23     -21.8309      1.00000
     24     -21.7655      1.00000
     25     -21.6743      1.00000
     26     -21.6672      1.00000
     27     -21.5876      1.00000
     28     -21.4696      1.00000
     29     -21.4526      1.00000
     30     -20.9994      1.00000
     31     -20.9190      1.00000
     32     -20.8176      1.00000
     33     -20.7140      1.00000
     34     -20.4229      1.00000
     35     -20.3760      1.00000
     36     -20.1578      1.00000
     37     -20.0697      1.00000
     38     -17.3138      1.00000
     39     -17.2800      1.00000
     40     -17.1466      1.00000
     41     -17.0634      1.00000
     42     -16.9412      1.00000
     43     -16.7617      1.00000
     44     -16.6815      1.00000
     45     -16.4931      1.00000
     46     -15.6459      1.00000
     47     -15.5720      1.00000
     48     -15.4510      1.00000
     49     -15.3754      1.00000
     50     -14.6810      1.00000
     51     -14.4497      1.00000
     52     -14.2859      1.00000
     53     -14.1380      1.00000
     54     -14.0035      1.00000
     55     -13.8745      1.00000
     56     -13.7263      1.00000
[...]
   -.146E+02 0.287E+02 0.114E+03   0.114E+02 -.285E+02 -.115E+03   0.260E+01 -.645E-01 0.484E+00   -.182E-01 -.390E-02 -.840E-03
   0.626E+02 -.508E+02 -.789E+02   -.650E+02 0.520E+02 0.790E+02   0.243E+01 -.130E+01 -.206E+00   -.705E-02 0.654E-02 -.219E-02
   -.124E+02 0.482E+02 0.181E+03   0.129E+02 -.507E+02 -.182E+03   -.465E+00 0.250E+01 0.145E+01   -.127E-02 -.137E-01 -.962E-02
   -.583E+02 -.165E+02 0.870E+02   0.607E+02 0.177E+02 -.878E+02   -.249E+01 -.119E+01 0.899E+00   0.676E-02 0.195E-02 -.411E-02
   0.362E+02 -.269E+02 -.315E+02   -.368E+02 0.239E+02 0.305E+02   0.437E+00 0.254E+01 0.797E+00   0.290E-02 -.109E-01 -.964E-03
   0.249E+02 -.129E+02 -.445E+02   -.216E+02 0.150E+02 0.441E+02   -.283E+01 -.173E+01 0.363E+00   0.666E-02 -.291E-03 -.604E-03
   -.903E+01 0.448E+00 -.543E+02   0.549E+01 0.146E+01 0.540E+02   0.307E+01 -.154E+01 0.224E+00   -.448E-02 0.125E-02 -.100E-02
   -.216E+02 0.165E+02 -.653E+02   0.208E+02 -.147E+02 0.663E+02   0.984E+00 -.168E+01 -.108E+01   -.185E-01 0.107E-01 0.856E-02
   -.314E+01 0.200E+02 0.434E+02   0.309E+01 -.227E+02 -.426E+02   0.534E-01 0.283E+01 -.622E+00   -.455E-02 -.122E-01 0.122E-02
   0.288E+02 0.153E+02 -.592E+02   -.279E+02 -.132E+02 0.597E+02   -.116E+01 -.201E+01 -.796E+00   0.199E-02 0.241E-02 0.675E-03
   -.360E+01 -.169E+02 -.125E+02   0.369E+01 0.130E+02 0.134E+02   -.889E-01 0.336E+01 -.651E+00   0.748E-02 -.777E-02 0.141E-02
   0.365E+02 0.271E+02 0.175E+03   -.333E+02 -.254E+02 -.174E+03   -.281E+01 -.147E+01 -.522E+00   0.214E-01 0.412E-02 -.189E-02
   -.136E+02 0.217E+02 0.791E+02   0.103E+02 -.199E+02 -.784E+02   0.291E+01 -.135E+01 -.534E+00   0.162E-01 -.717E-02 -.252E-02
   0.605E+02 -.154E+02 0.599E+02   -.629E+02 0.167E+02 -.603E+02   0.252E+01 -.124E+01 0.452E+00   -.105E-01 0.772E-02 -.285E-02
   0.198E+01 0.687E+02 0.194E+03   -.219E+01 -.710E+02 -.196E+03   0.534E-01 0.247E+01 0.148E+01   -.457E-02 -.728E-02 0.874E-03
   -.598E+02 -.537E+02 -.895E+02   0.622E+02 0.550E+02 0.898E+02   -.244E+01 -.131E+01 -.389E+00   0.741E-02 0.989E-02 -.236E-02
   -.301E+02 -.263E+02 -.129E+03   0.304E+02 0.234E+02 0.128E+03   -.165E+00 0.250E+01 0.872E+00   -.735E-05 0.527E-02 0.243E-02
   0.122E+02 -.964E+00 -.995E+02   -.860E+01 0.279E+01 0.988E+02   -.309E+01 -.147E+01 0.467E+00   0.102E-01 0.974E-02 -.173E-02
   -.274E+02 -.893E+01 -.813E+02   0.242E+02 0.111E+02 0.803E+02   0.282E+01 -.182E+01 0.803E+00   -.107E-01 0.773E-02 -.265E-02
   0.658E+02 -.647E+02 0.125E+03   -.683E+02 0.662E+02 -.125E+03   0.246E+01 -.171E+01 0.500E-01   -.560E-02 -.842E-02 -.943E-03
   -.974E+01 0.398E+02 -.171E+03   0.975E+01 -.427E+02 0.172E+03   -.270E-01 0.301E+01 -.128E+01   0.214E-02 -.941E-02 0.471E-02
   -.767E+02 -.237E+02 -.548E+02   0.793E+02 0.244E+02 0.558E+02   -.270E+01 -.708E+00 -.970E+00   0.128E-01 0.118E-01 0.600E-02
   -.130E+02 0.332E+02 0.153E+03   0.134E+02 -.343E+02 -.156E+03   -.331E+00 0.878E+00 0.248E+01   -.357E-01 -.581E-02 0.177E-02
   -.181E+03 -.307E+02 0.205E+03   0.210E+03 0.468E+02 -.217E+03   -.305E+02 -.166E+02 0.121E+02   -.107E-01 -.114E-01 -.261E-03
   0.146E+03 -.142E+03 -.217E+03   -.175E+03 0.157E+03 0.228E+03   0.302E+02 -.159E+02 -.110E+02   0.275E-02 -.449E-02 -.455E-02
   0.469E+01 0.159E+03 0.361E+03   -.224E+01 -.187E+03 -.382E+03   -.267E+01 0.285E+02 0.223E+02   0.161E-01 -.220E-01 -.135E-01
   -.334E+02 0.129E+03 0.381E+03   0.309E+02 -.155E+03 -.405E+03   0.256E+01 0.265E+02 0.248E+02   -.163E-01 -.169E-01 -.123E-01
   0.180E+03 -.920E+02 -.103E+03   -.208E+03 0.111E+03 0.103E+03   0.293E+02 -.199E+02 -.153E+00   0.145E-01 -.102E-01 -.153E-02
   -.136E+03 -.748E+02 0.232E+03   0.165E+03 0.837E+02 -.250E+03   -.296E+02 -.913E+01 0.194E+02   -.198E-02 -.317E-02 0.238E-02
   -.418E+01 -.158E+01 -.221E+02   0.435E+01 0.159E+01 0.231E+02   -.186E+00 -.885E-02 -.103E+01   -.358E-03 0.150E-02 -.187E-02
   0.142E+02 -.204E+02 -.883E+02   -.145E+02 0.211E+02 0.923E+02   0.208E+00 -.694E+00 -.413E+01   0.314E-02 -.761E-02 -.357E-02
   -.343E+01 -.568E+02 -.278E+03   0.242E+02 0.694E+02 0.300E+03   -.212E+02 -.130E+02 -.229E+02   -.308E-02 -.482E-03 -.582E-02
   0.956E+01 0.615E+02 -.695E+02   -.281E+02 -.575E+02 0.796E+02   0.192E+02 -.416E+01 -.105E+02   -.247E-01 0.517E-02 0.796E-02
   -.148E+02 0.107E+03 0.113E+03   0.176E+02 -.139E+03 -.123E+03   -.298E+01 0.334E+02 0.994E+01   -.698E-02 0.468E-02 0.336E-02
   -.490E+00 0.104E+03 0.126E+03   -.152E+01 -.136E+03 -.136E+03   0.211E+01 0.332E+02 0.100E+02   -.634E-02 -.284E-02 0.453E-02
   0.396E+02 -.556E+02 -.304E+03   -.646E+02 0.687E+02 0.321E+03   0.255E+02 -.136E+02 -.175E+02   -.579E-02 0.130E-01 0.282E-02
   -.351E+01 0.703E+02 -.984E+02   0.205E+02 -.668E+02 0.112E+03   -.175E+02 -.356E+01 -.142E+02   -.140E-01 -.101E-01 -.966E-02
   0.450E+02 0.166E+02 0.688E+02   -.489E+02 -.194E+02 -.683E+02   0.427E+01 0.295E+01 -.420E+00   -.513E-02 -.148E-01 -.862E-02
   0.132E+02 0.358E+02 0.136E+03   -.151E+02 -.373E+02 -.140E+03   0.192E+01 0.166E+01 0.428E+01   0.396E-01 -.859E-02 -.132E-02
   -.177E+03 -.968E+02 -.112E+03   0.206E+03 0.115E+03 0.113E+03   -.298E+02 -.192E+02 -.783E+00   -.418E-02 0.279E-02 -.656E-02
   0.140E+03 -.638E+02 0.180E+03   -.170E+03 0.723E+02 -.196E+03   0.307E+02 -.876E+01 0.167E+02   0.391E-02 0.111E-01 0.371E-03
   0.947E+01 0.150E+03 0.394E+03   -.463E+01 -.176E+03 -.416E+03   -.487E+01 0.273E+02 0.230E+02   -.842E-02 0.102E-01 0.178E-01
   0.256E+01 0.219E+03 0.328E+03   -.412E+01 -.251E+03 -.338E+03   0.172E+01 0.338E+02 0.108E+02   0.527E-02 0.219E-01 0.109E-01
   0.182E+03 -.320E+02 0.124E+03   -.212E+03 0.492E+02 -.130E+03   0.311E+02 -.178E+02 0.578E+01   -.166E-02 0.468E-02 -.570E-03
   -.133E+03 -.146E+03 -.267E+03   0.161E+03 0.161E+03 0.280E+03   -.288E+02 -.157E+02 -.143E+02   -.437E-02 0.698E-02 -.702E-02
   0.734E+00 -.298E+02 -.116E+02   -.625E+00 0.309E+02 0.936E+01   -.131E+00 -.123E+01 0.233E+01   -.120E-03 0.649E-02 0.124E-02
   -.136E+02 -.233E+02 -.172E+03   0.136E+02 0.251E+02 0.177E+03   0.129E+00 -.196E+01 -.552E+01   -.149E-02 0.422E-02 -.345E-02
   -.208E+03 -.608E+02 -.846E+02   0.238E+03 0.785E+02 0.854E+02   -.302E+02 -.184E+02 -.751E+00   0.254E-02 0.156E-01 0.725E-02
   0.165E+03 -.137E+03 0.279E+03   -.195E+03 0.152E+03 -.285E+03   0.309E+02 -.157E+02 0.695E+01   0.256E-01 -.169E-01 0.213E-02
   -.184E+00 0.138E+03 -.351E+03   0.464E+01 -.165E+03 0.373E+03   -.463E+01 0.281E+02 -.227E+02   0.408E-03 0.251E-03 -.432E-02
   -.321E+02 0.106E+03 -.394E+03   0.306E+02 -.132E+03 0.419E+03   0.160E+01 0.260E+02 -.260E+02   0.842E-02 0.489E-02 -.292E-02
   0.174E+03 -.118E+03 0.215E+03   -.197E+03 0.140E+03 -.227E+03   0.239E+02 -.227E+02 0.125E+02   0.865E-02 -.105E-01 0.533E-02
   -.156E+03 -.681E+02 -.169E+03   0.187E+03 0.765E+02 0.183E+03   -.318E+02 -.872E+01 -.142E+02   0.274E-01 0.263E-02 0.462E-02
   -.422E+02 0.193E+02 0.407E+02   0.450E+02 -.215E+02 -.428E+02   -.301E+01 0.222E+01 0.221E+01   -.589E-03 0.115E-01 0.675E-02
   0.424E+02 -.106E+03 -.908E+03   -.434E+02 0.121E+03 0.926E+03   0.107E+01 -.151E+02 -.178E+02   -.395E-01 -.319E-02 -.288E-02
 -----------------------------------------------------------------------------------------------
   0.264E+01 -.479E+01 -.165E+01   0.739E-12 0.256E-12 0.000E+00   -.259E+01 0.482E+01 0.168E+01   -.500E-01 -.300E-01 -.191E-01
 
 
 POSITION                                       TOTAL-FORCE (eV/Angst)
 -----------------------------------------------------------------------------------
     -0.01525      2.52653      6.52490        -0.013625     -0.478363      0.228270
      1.24502      4.69976      6.62732         0.547630      0.138800      0.094831
     -1.30039      4.65331      6.53750        -0.571313      0.102714      0.011397
      5.86569      0.67451      7.73711         0.077278     -0.020021     -0.103213
      3.55782      4.69848      6.31164         0.088194      0.012605      0.177556
      1.20962      0.60733      6.86482        -0.092649      0.046419      0.071031
     -3.66528      8.47370      7.40369        -0.079126     -0.372108     -0.230690
     -2.26902     10.56233      7.66838         0.442835      0.326295     -0.056010
     -4.77651     10.65972      7.62132        -0.439492      0.345308     -0.115662
      2.45396      6.45323      7.67913         0.229768      0.115918     -0.095404
      0.04020     10.47299      7.48124         0.003985      0.144174      0.139148
     -2.60016      6.44991      7.35427        -0.223918      0.118323     -0.250253
      7.12630      2.53944      7.23238         0.010572     -0.498669      0.228108
      8.26596      4.49676      6.11821         0.405584      0.208572      0.117721
      5.83473      4.58517      6.66256        -0.394447      0.397789      0.160797
     12.89702      0.44108      7.04871         0.101191      0.056890      0.064784
     10.55427      4.42792      6.02636        -0.146857      0.067822      0.175694
      8.33088      0.66116      7.83408        -0.080178     -0.074498     -0.064773
      3.63791      8.36448      8.12811         0.145983     -0.380129     -0.252261
      4.81802     10.54998      8.00007         0.473766      0.340484     -0.239285
      2.30445     10.52794      7.97630        -0.430741      0.336158     -0.158375
      9.27566      6.53155      6.43380        -0.042815     -0.210801      0.075741
      7.10958     10.57101      8.18037        -0.015284      0.085036     -0.203299
      4.85707      6.49565      7.49486        -0.058931      0.037967     -0.045305
     -0.01464      3.96921      6.50293        -0.015975     -0.194593      0.102550
      1.18970      1.88818      6.44057        -0.838181     -0.558148      0.424945
      4.73542     -0.04387      7.98901         0.859577     -0.455105     -0.530654
      4.73768      4.10507      6.00351        -0.203314      0.800273      0.793620
      2.32059      4.23630      5.96322         0.004510      0.661960      0.841866
      5.89226      2.00991      7.54522         0.845354     -0.722576     -0.150188
     -4.73563     11.75768      6.83385        -0.846188     -0.280265      0.722292
      0.01716      0.02181      7.38748        -0.011292     -0.004474     -0.028300
     -3.54121      9.87903      7.65397        -0.046325     -0.069383     -0.167001
     -2.66347      7.67139      7.92216        -0.536503     -0.420634     -0.879854
      1.24445      5.79420      7.52072         0.684412     -0.180737     -0.415318
      1.23542      9.81263      7.49277        -0.157028      0.960694      0.391880
     -1.15210      9.82833      7.33442         0.089445      0.975661      0.408481
      2.47113      7.63335      8.33596         0.623331     -0.498678     -0.758345
     -1.41325      5.74189      7.42228        -0.594481     -0.125966     -0.551375
     10.45491      5.72401      6.67062         0.294960      0.128564      0.052773
      7.09245      3.80860      6.56856         0.067268      0.111347      0.150678
      8.34073      1.99139      7.57714        -0.902977     -0.631844     -0.117379
      4.71744     11.60383      7.15809         0.886463     -0.245942      0.678604
     -2.30271      4.15038      5.79568        -0.034836      0.707843      0.849336
      9.39560      3.77700      5.80679         0.166568      1.077883      0.518294
     12.88409      1.72762      6.65750         0.881771     -0.600152      0.228184
      9.40758     -0.06757      8.25406        -0.794353     -0.448577     -0.628034
      7.10120     -0.05189      7.62413        -0.021873     -0.062208      0.085912
      3.56065      9.79828      8.17325         0.046723     -0.110387     -0.229690
      4.83771      7.80759      7.84071        -0.923181     -0.596809     -0.040246
      8.17254      5.88221      6.05492         1.008123     -0.377055      0.510046
     -5.79855     10.17237      8.39476        -0.166318      0.772589     -0.779444
      5.92291     10.08860      8.66056         0.069282      0.618460     -0.921950
     -4.72169      8.07832      6.64869         0.774542     -0.650392      0.493531
      5.95725      5.73063      7.40246        -0.975836     -0.270081     -0.583221
      3.59725      5.88760      7.14757        -0.209511      0.081926      0.150342
     -0.13662      7.01675      8.53426         0.038434     -0.239877     -0.352887
 -----------------------------------------------------------------------------------
    total drift:                               -0.005362      0.000286      0.008744


--------------------------------------------------------------------------------------------------------



  FREE ENERGIE OF THE ION-ELECTRON SYSTEM (eV)
  ---------------------------------------------------
  free  energy   TOTEN  =      -480.32706688 eV

  energy  without entropy=     -480.32706688  energy(sigma->0) =     -480.32706688
 


--------------------------------------------------------------------------------------------------------


    POTLOK:  cpu time    0.1069: real time    0.1072


--------------------------------------------------------------------------------------------------------


 stress matrix after NEB project (eV)
    -68.46613      0.96159     -1.67265
      0.96159    -63.45175     -3.22529
     -1.67265     -3.22529    -20.62065
  FORCES: max atom, RMS     1.207562    0.766786
  FORCE total and by dimension    5.789106    1.077883
  Stress total and by dimension   95.745477   68.466133
     LOOP+:  cpu time  170.2664: real time  172.5036
    4ORBIT:  cpu time    0.0000: real time    0.0000
 


 total charge     
 
# of ion       s       p       d       tot
------------------------------------------
    1        0.835   1.668   0.000   2.504
    2        0.823   1.657   0.000   2.480
    3        0.826   1.661   0.000   2.487
    4        0.848   1.676   0.000   2.523
    5        0.839   1.674   0.000   2.513
    6        0.851   1.685   0.000   2.536
    7        0.836   1.662   0.000   2.498
    8        0.835   1.657   0.000   2.492
    9        0.840   1.660   0.000   2.499
   10        0.850   1.704   0.000   2.554
   11        0.848   1.679   0.000   2.527
   12        0.854   1.713   0.000   2.567
   13        0.835   1.657   0.000   2.491
   14        0.830   1.661   0.000   2.492
   15        0.828   1.664   0.000   2.492
   16        0.851   1.690   0.000   2.541
   17        0.840   1.682   0.000   2.522
   18        0.845   1.673   0.000   2.518
   19        0.834   1.660   0.000   2.495
   20        0.837   1.656   0.000   2.494
   21        0.832   1.651   0.000   2.483
   22        0.846   1.676   0.000   2.522
   23        0.847   1.664   0.000   2.511
   24        0.848   1.692   0.000   2.540
   25        1.196   2.666   0.000   3.862
   26        1.267   2.601   0.000   3.867
   27        1.263   2.598   0.000   3.861
   28        1.267   2.570   0.000   3.838
   29        1.265   2.591   0.000   3.856
   30        1.263   2.594   0.000   3.857
   31        1.272   2.594   0.000   3.866
   32        1.223   2.695   0.000   3.918
   33        1.204   2.680   0.000   3.885
   34        1.260   2.609   0.000   3.869
   35        1.237   2.613   0.000   3.850
   36        1.261   2.592   0.000   3.853
   37        1.260   2.593   0.000   3.853
   38        1.257   2.600   0.000   3.858
   39        1.238   2.619   0.000   3.856
   40        1.221   2.712   0.000   3.933
   41        1.203   2.665   0.000   3.868
   42        1.262   2.584   0.000   3.847
   43        1.269   2.601   0.000   3.870
   44        1.264   2.592   0.000   3.856
   45        1.266   2.576   0.000   3.841
   46        1.266   2.607   0.000   3.872
   47        1.263   2.590   0.000   3.853
   48        1.220   2.698   0.000   3.919
   49        1.203   2.650   0.000   3.853
   50        1.264   2.604   0.000   3.868
   51        1.263   2.593   0.000   3.856
   52        1.266   2.576   0.000   3.843
   53        1.266   2.580   0.000   3.846
   54        1.262   2.586   0.000   3.848
   55        1.271   2.589   0.000   3.860
   56        1.220   2.707   0.000   3.927
   57        1.346   0.689  10.035  12.070
--------------------------------------------------
tot         61.488 124.535  10.035 196.058
 


 magnetization (x)
 
# of ion       s       p       d       tot
------------------------------------------
    1        0.000   0.000   0.000   0.000
    2       -0.000  -0.001   0.000  -0.001
    3        0.000   0.001   0.000   0.001
    4        0.000   0.000   0.000   0.000
    5       -0.000  -0.001   0.000  -0.001
    6        0.000   0.000   0.000   0.000
    7        0.000   0.000   0.000   0.000
    8        0.000   0.000   0.000   0.000
    9        0.000   0.000   0.000   0.000
   10        0.000   0.000   0.000   0.000
   11       -0.000  -0.000   0.000  -0.000
   12       -0.000  -0.000   0.000  -0.000
   13        0.000   0.000   0.000   0.000
   14        0.000   0.001   0.000   0.001
   15       -0.000  -0.001   0.000  -0.001
   16       -0.000  -0.000   0.000  -0.000
   17        0.000   0.001   0.000   0.001
   18        0.000   0.000   0.000   0.000
   19       -0.000  -0.000   0.000  -0.000
   20       -0.000  -0.000   0.000  -0.000
   21       -0.000  -0.000   0.000  -0.000
   22        0.000   0.000   0.000   0.000
   23       -0.000   0.000   0.000   0.000
   24       -0.000  -0.001   0.000  -0.001
   25        0.000  -0.000   0.000  -0.000
   26       -0.000   0.000   0.000  -0.000
   27        0.000   0.000   0.000   0.000
   28        0.000   0.000   0.000   0.000
   29        0.000   0.000   0.000   0.000
   30        0.000   0.000   0.000   0.000
   31        0.000   0.000   0.000   0.000
   32       -0.000   0.000   0.000   0.000
   33       -0.000  -0.000   0.000  -0.000
   34        0.000   0.000   0.000   0.000
   35        0.000  -0.000   0.000  -0.000
   36       -0.000   0.000   0.000   0.000
   37        0.000   0.000   0.000   0.000
   38       -0.000  -0.000   0.000  -0.000
   39       -0.000   0.000   0.000   0.000
   40        0.000   0.001   0.000   0.001
   41       -0.000  -0.000   0.000  -0.000
   42       -0.000   0.000   0.000   0.000
   43       -0.000  -0.000   0.000  -0.000
   44       -0.000  -0.000   0.000  -0.000
   45        0.000  -0.000   0.000  -0.000
   46       -0.000  -0.000   0.000  -0.000
   47       -0.000  -0.000   0.000  -0.000
   48        0.000   0.000   0.000   0.000
   49        0.000  -0.000   0.000  -0.000
   50       -0.000   0.000   0.000   0.000
   51        0.000   0.000   0.000   0.000
   52        0.000   0.000   0.000   0.000
   53       -0.000  -0.000   0.000  -0.000
   54       -0.000  -0.000   0.000  -0.000
   55       -0.000  -0.000   0.000  -0.000
   56       -0.000  -0.001   0.000  -0.001
   57       -0.000  -0.000  -0.000  -0.000
--------------------------------------------------
tot          0.000   0.000  -0.000   0.000
 
 BZINTS: Fermi energy: -2.514629;270.000000 electrons
         Band energy:***********;  BLOECHL correction:  0.000000

 total amount of memory used by VASP MPI-rank0    86571. kBytes
=======================================================================

   base      :      30000. kBytes
   nonl-proj :      13713. kBytes
   fftplans  :       3433. kBytes
   grid      :       8923. kBytes
   one-center:        155. kBytes
   wavefun   :      30347. kBytes
 
  
  
 General timing and accounting informations for this job:
 ========================================================
  
                  Total CPU time used (sec):      183.579
                            User time (sec):      176.886
                          System time (sec):        6.693
                         Elapsed time (sec):      194.392
  
                   Maximum memory used (kb):      448604.
                   Average memory used (kb):           0.
  
                          Minor page faults:       974073
                          Major page faults:            0
                 Voluntary context switches:         7663
