  71  71   0   0
  0.4011563E+02  0.1487831E-08  0.1477209E-08  0.1500000E-08  0.3000000E-15
  1.000000000000000E-004
  CAR 
 unknown system                          
      5.29524726    -48.59709927  301     -2.07589138      1.00000000
    -48.597  0.0000E+00  0.0000E+00  0.0000E+00  0.0000E+00
    -48.417  0.0000E+00  0.0000E+00  0.0000E+00  0.0000E+00
    -48.238  0.0000E+00  0.0000E+00  0.0000E+00  0.0000E+00
    -48.058  0.0000E+00  0.0000E+00  0.0000E+00  0.0000E+00
    -47.879  0.0000E+00  0.0000E+00  0.0000E+00  0.0000E+00
    -47.699  0.0000E+00  0.0000E+00  0.0000E+00  0.0000E+00
    -47.519  0.0000E+00  0.0000E+00  0.0000E+00  0.0000E+00
    -47.340  0.0000E+00  0.0000E+00  0.0000E+00  0.0000E+00
    -47.160  0.0000E+00  0.0000E+00  0.0000E+00  0.0000E+00
    -46.980  0.0000E+00  0.0000E+00  0.0000E+00  0.0000E+00
    -46.801  0.0000E+00  0.0000E+00  0.0000E+00  0.0000E+00
    -46.621  0.0000E+00  0.1473E-12  0.0000E+00  0.2646E-13
    -46.441  0.0000E+00  0.2242E-06  0.0000E+00  0.4027E-07
    -46.262  0.0000E+00  0.7370E-03  0.0000E+00  0.1324E-03
    -46.082  0.0000E+00  0.1080E-01  0.0000E+00  0.2073E-02
    -45.902  0.0000E+00  0.1190E-01  0.0000E+00  0.4211E-02
    -45.723  0.0000E+00  0.1734E-01  0.0000E+00  0.7326E-02
    -45.543  0.0000E+00  0.9708E-03  0.0000E+00  0.7500E-02
    -45.364  0.0000E+00  0.3562E-06  0.0000E+00  0.7500E-02
    -45.184  0.0000E+00  0.3026E-12  0.0000E+00  0.7500E-02
    -45.004  0.0000E+00  0.0000E+00  0.0000E+00  0.7500E-02
    -44.825  0.0000E+00  0.0000E+00  0.0000E+00  0.7500E-02
    -44.645  0.0000E+00  0.0000E+00  0.0000E+00  0.7500E-02
    -44.465  0.2529E-12  0.0000E+00  0.4543E-13  0.7500E-02
    -44.286  0.3164E-06  0.0000E+00  0.5684E-07  0.7500E-02
    -44.106  0.8642E-03  0.0000E+00  0.1553E-03  0.7500E-02
    -43.926  0.1102E-01  0.0000E+00  0.2134E-02  0.7500E-02
    -43.747  0.1103E-01  0.0000E+00  0.4115E-02  0.7500E-02
    -43.567  0.1588E-01  0.0000E+00  0.6968E-02  0.7500E-02
    -43.388  0.2956E-02  0.0000E+00  0.7499E-02  0.7500E-02
    -43.208  0.5711E-05  0.0000E+00  0.7500E-02  0.7500E-02
    -43.028  0.2749E-10  0.0000E+00  0.7500E-02  0.7500E-02
    -42.849  0.0000E+00  0.0000E+00  0.7500E-02  0.7500E-02
    -42.669  0.0000E+00  0.0000E+00  0.7500E-02  0.7500E-02
    -42.489  0.0000E+00  0.0000E+00  0.7500E-02  0.7500E-02
    -42.310  0.0000E+00  0.0000E+00  0.7500E-02  0.7500E-02
    -42.130  0.0000E+00  0.0000E+00  0.7500E-02  0.7500E-02
    -41.950  0.0000E+00  0.0000E+00  0.7500E-02  0.7500E-02
    -41.771  0.0000E+00  0.0000E+00  0.7500E-02  0.7500E-02
    -41.591  0.0000E+00  0.0000E+00  0.7500E-02  0.7500E-02
    -41.411  0.0000E+00  0.0000E+00  0.7500E-02  0.7500E-02
    -41.232  0.0000E+00  0.0000E+00  0.7500E-02  0.7500E-02
    -41.052  0.0000E+00  0.0000E+00  0.7500E-02  0.7500E-02
    -40.873  0.0000E+00  0.0000E+00  0.7500E-02  0.7500E-02
    -40.693  0.0000E+00  0.0000E+00  0.7500E-02  0.7500E-02
    -40.513  0.0000E+00  0.0000E+00  0.7500E-02  0.7500E-02
    -40.334  0.0000E+00  0.0000E+00  0.7500E-02  0.7500E-02
    -40.154  0.0000E+00  0.0000E+00  0.7500E-02  0.7500E-02
    -39.974  0.0000E+00  0.0000E+00  0.7500E-02  0.7500E-02
    -39.795  0.0000E+00  0.0000E+00  0.7500E-02  0.7500E-02
    -39.615  0.0000E+00  0.0000E+00  0.7500E-02  0.7500E-02
    -39.435  0.0000E+00  0.0000E+00  0.7500E-02  0.7500E-02
    -39.256  0.0000E+00  0.0000E+00  0.7500E-02  0.7500E-02
    -39.076  0.0000E+00  0.0000E+00  0.7500E-02  0.7500E-02
    -38.896  0.0000E+00  0.0000E+00  0.7500E-02  0.7500E-02
    -38.717  0.0000E+00  0.0000E+00  0.7500E-02  0.7500E-02
    -38.537  0.0000E+00  0.0000E+00  0.7500E-02  0.7500E-02
    -38.358  0.0000E+00  0.0000E+00  0.7500E-02  0.7500E-02
    -38.178  0.0000E+00  0.0000E+00  0.7500E-02  0.7500E-02
    -37.998  0.0000E+00  0.0000E+00  0.7500E-02  0.7500E-02
    -37.819  0.0000E+00  0.0000E+00  0.7500E-02  0.7500E-02
    -37.639  0.0000E+00  0.0000E+00  0.7500E-02  0.7500E-02
    -37.459  0.0000E+00  0.0000E+00  0.7500E-02  0.7500E-02
    -37.280  0.0000E+00  0.0000E+00  0.7500E-02  0.7500E-02
    -37.100  0.0000E+00  0.0000E+00  0.7500E-02  0.7500E-02
    -36.920  0.0000E+00  0.0000E+00  0.7500E-02  0.7500E-02
    -36.741  0.0000E+00  0.0000E+00  0.7500E-02  0.7500E-02
    -36.561  0.0000E+00  0.0000E+00  0.7500E-02  0.7500E-02
    -36.382  0.0000E+00  0.0000E+00  0.7500E-02  0.7500E-02
    -36.202  0.0000E+00  0.0000E+00  0.7500E-02  0.7500E-02
    -36.022  0.0000E+00  0.0000E+00  0.7500E-02  0.7500E-02
    -35.843  0.0000E+00  0.0000E+00  0.7500E-02  0.7500E-02
    -35.663  0.0000E+00  0.0000E+00  0.7500E-02  0.7500E-02
    -35.483  0.0000E+00  0.0000E+00  0.7500E-02  0.7500E-02
    -35.304  0.0000E+00  0.0000E+00  0.7500E-02  0.7500E-02
    -35.124  0.0000E+00  0.0000E+00  0.7500E-02  0.7500E-02
    -34.944  0.0000E+00  0.0000E+00  0.7500E-02  0.7500E-02
    -34.765  0.0000E+00  0.0000E+00  0.7500E-02  0.7500E-02
    -34.585  0.0000E+00  0.0000E+00  0.7500E-02  0.7500E-02
    -34.405  0.0000E+00  0.0000E+00  0.7500E-02  0.7500E-02
    -34.226  0.0000E+00  0.0000E+00  0.7500E-02  0.7500E-02
    -34.046  0.0000E+00  0.0000E+00  0.7500E-02  0.7500E-02
    -33.867  0.0000E+00  0.0000E+00  0.7500E-02  0.7500E-02
    -33.687  0.0000E+00  0.0000E+00  0.7500E-02  0.7500E-02
    -33.507  0.0000E+00  0.0000E+00  0.7500E-02  0.7500E-02
    -33.328  0.0000E+00  0.0000E+00  0.7500E-02  0.7500E-02
    -33.148  0.0000E+00  0.0000E+00  0.7500E-02  0.7500E-02
    -32.968  0.0000E+00  0.0000E+00  0.7500E-02  0.7500E-02
    -32.789  0.0000E+00  0.0000E+00  0.7500E-02  0.7500E-02
    -32.609  0.0000E+00  0.0000E+00  0.7500E-02  0.7500E-02
    -32.429  0.0000E+00  0.0000E+00  0.7500E-02  0.7500E-02
    -32.250  0.0000E+00  0.0000E+00  0.7500E-02  0.7500E-02
    -32.070  0.0000E+00  0.0000E+00  0.7500E-02  0.7500E-02
    -31.890  0.0000E+00  0.0000E+00  0.7500E-02  0.7500E-02
    -31.711  0.0000E+00  0.0000E+00  0.7500E-02  0.7500E-02
    -31.531  0.0000E+00  0.0000E+00  0.7500E-02  0.7500E-02
    -31.352  0.0000E+00  0.0000E+00  0.7500E-02  0.7500E-02
    -31.172  0.0000E+00  0.0000E+00  0.7500E-02  0.7500E-02
    -30.992  0.0000E+00  0.0000E+00  0.7500E-02  0.7500E-02
    -30.813  0.0000E+00  0.0000E+00  0.7500E-02  0.7500E-02
    -30.633  0.0000E+00  0.0000E+00  0.7500E-02  0.7500E-02
    -30.453  0.0000E+00  0.0000E+00  0.7500E-02  0.7500E-02
    -30.274  0.0000E+00  0.0000E+00  0.7500E-02  0.7500E-02
    -30.094  0.0000E+00  0.0000E+00  0.7500E-02  0.7500E-02
    -29.914  0.0000E+00  0.0000E+00  0.7500E-02  0.7500E-02
    -29.735  0.0000E+00  0.0000E+00  0.7500E-02  0.7500E-02
    -29.555  0.0000E+00  0.0000E+00  0.7500E-02  0.7500E-02
    -29.375  0.0000E+00  0.0000E+00  0.7500E-02  0.7500E-02
    -29.196  0.0000E+00  0.0000E+00  0.7500E-02  0.7500E-02
    -29.016  0.0000E+00  0.0000E+00  0.7500E-02  0.7500E-02
    -28.837  0.0000E+00  0.0000E+00  0.7500E-02  0.7500E-02
    -28.657  0.0000E+00  0.0000E+00  0.7500E-02  0.7500E-02
    -28.477  0.0000E+00  0.0000E+00  0.7500E-02  0.7500E-02
    -28.298  0.0000E+00  0.0000E+00  0.7500E-02  0.7500E-02
    -28.118  0.0000E+00  0.0000E+00  0.7500E-02  0.7500E-02
    -27.938  0.0000E+00  0.0000E+00  0.7500E-02  0.7500E-02
    -27.759  0.0000E+00  0.0000E+00  0.7500E-02  0.7500E-02
    -27.579  0.0000E+00  0.0000E+00  0.7500E-02  0.7500E-02
    -27.399  0.0000E+00  0.0000E+00  0.7500E-02  0.7500E-02
    -27.220  0.0000E+00  0.0000E+00  0.7500E-02  0.7500E-02
    -27.040  0.0000E+00  0.0000E+00  0.7500E-02  0.7500E-02
    -26.861  0.0000E+00  0.0000E+00  0.7500E-02  0.7500E-02
    -26.681  0.0000E+00  0.0000E+00  0.7500E-02  0.7500E-02
    -26.501  0.0000E+00  0.0000E+00  0.7500E-02  0.7500E-02
    -26.322  0.0000E+00  0.0000E+00  0.7500E-02  0.7500E-02
    -26.142  0.0000E+00  0.0000E+00  0.7500E-02  0.7500E-02
    -25.962  0.0000E+00  0.0000E+00  0.7500E-02  0.7500E-02
    -25.783  0.0000E+00  0.0000E+00  0.7500E-02  0.7500E-02
    -25.603  0.0000E+00  0.0000E+00  0.7500E-02  0.7500E-02
    -25.423  0.0000E+00  0.0000E+00  0.7500E-02  0.7500E-02
    -25.244  0.0000E+00  0.0000E+00  0.7500E-02  0.7500E-02
    -25.064  0.0000E+00  0.0000E+00  0.7500E-02  0.7500E-02
    -24.884  0.0000E+00  0.0000E+00  0.7500E-02  0.7500E-02
    -24.705  0.6180E-17  0.2318E-17  0.7500E-02  0.7500E-02
    -24.525  0.2621E-09  0.1414E-09  0.7500E-02  0.7500E-02
    -24.346  0.2134E-04  0.1496E-04  0.7504E-02  0.7503E-02
    -24.166  0.4670E-02  0.4141E-02  0.8343E-02  0.8247E-02
    -23.986  0.8989E-02  0.9453E-02  0.9957E-02  0.9945E-02
    -23.807  0.2366E-03  0.3075E-03  0.1000E-01  0.1000E-01
    -23.627  0.2194E-07  0.3684E-07  0.1000E-01  0.1000E-01
    -23.447  0.4157E-14  0.9113E-14  0.1000E-01  0.1000E-01
    -23.268  0.0000E+00  0.0000E+00  0.1000E-01  0.1000E-01
    -23.088  0.0000E+00  0.0000E+00  0.1000E-01  0.1000E-01
    -22.908  0.0000E+00  0.0000E+00  0.1000E-01  0.1000E-01
    -22.729  0.0000E+00  0.0000E+00  0.1000E-01  0.1000E-01
    -22.549  0.0000E+00  0.0000E+00  0.1000E-01  0.1000E-01
    -22.369  0.0000E+00  0.0000E+00  0.1000E-01  0.1000E-01
    -22.190  0.0000E+00  0.0000E+00  0.1000E-01  0.1000E-01
    -22.010  0.1985E-14  0.1573E-14  0.1000E-01  0.1000E-01
    -21.831  0.1103E-07  0.9426E-08  0.1000E-01  0.1000E-01
    -21.651  0.1341E-03  0.1233E-03  0.1002E-01  0.1002E-01
    -21.471  0.7038E-02  0.6865E-02  0.1129E-01  0.1126E-01
    -21.292  0.1357E-01  0.1357E-01  0.1373E-01  0.1369E-01
    -21.112  0.1307E-01  0.1292E-01  0.1607E-01  0.1602E-01
    -20.932  0.1472E-01  0.1477E-01  0.1872E-01  0.1867E-01
    -20.753  0.8381E-02  0.8379E-02  0.2022E-01  0.2017E-01
    -20.573  0.1605E-01  0.1575E-01  0.2311E-01  0.2300E-01
    -20.393  0.1809E-01  0.1823E-01  0.2636E-01  0.2628E-01
    -20.214  0.8793E-02  0.9041E-02  0.2794E-01  0.2790E-01
    -20.034  0.1180E-01  0.1137E-01  0.3006E-01  0.2994E-01
    -19.855  0.1404E-01  0.1421E-01  0.3258E-01  0.3250E-01
    -19.675  0.1641E-01  0.1640E-01  0.3553E-01  0.3544E-01
    -19.495  0.1465E-01  0.1470E-01  0.3816E-01  0.3808E-01
    -19.316  0.9720E-02  0.9592E-02  0.3990E-01  0.3981E-01
    -19.136  0.1577E-01  0.1579E-01  0.4274E-01  0.4264E-01
    -18.956  0.1184E-01  0.1168E-01  0.4486E-01  0.4474E-01
    -18.777  0.1385E-01  0.1389E-01  0.4735E-01  0.4724E-01
    -18.597  0.1721E-01  0.1728E-01  0.5044E-01  0.5034E-01
    -18.417  0.1228E-01  0.1257E-01  0.5265E-01  0.5260E-01
    -18.238  0.1775E-01  0.1696E-01  0.5584E-01  0.5565E-01
    -18.058  0.1295E-01  0.1328E-01  0.5816E-01  0.5803E-01
    -17.878  0.1396E-01  0.1418E-01  0.6067E-01  0.6058E-01
    -17.699  0.7163E-02  0.7197E-02  0.6196E-01  0.6187E-01
    -17.519  0.1987E-01  0.1958E-01  0.6553E-01  0.6539E-01
    -17.340  0.1810E-01  0.1819E-01  0.6878E-01  0.6866E-01
    -17.160  0.1619E-01  0.1608E-01  0.7169E-01  0.7155E-01
    -16.980  0.1615E-01  0.1635E-01  0.7459E-01  0.7448E-01
    -16.801  0.1761E-01  0.1759E-01  0.7775E-01  0.7764E-01
    -16.621  0.1195E-01  0.1201E-01  0.7990E-01  0.7980E-01
    -16.441  0.1144E-01  0.1112E-01  0.8196E-01  0.8180E-01
    -16.262  0.1311E-01  0.1333E-01  0.8431E-01  0.8419E-01
    -16.082  0.1794E-01  0.1756E-01  0.8753E-01  0.8735E-01
    -15.902  0.1569E-01  0.1606E-01  0.9035E-01  0.9023E-01
    -15.723  0.1046E-01  0.1034E-01  0.9223E-01  0.9209E-01
    -15.543  0.7060E-02  0.7474E-02  0.9350E-01  0.9343E-01
    -15.363  0.8407E-02  0.7894E-02  0.9501E-01  0.9485E-01
    -15.184  0.1230E-01  0.1230E-01  0.9722E-01  0.9706E-01
    -15.004  0.1835E-01  0.1861E-01  0.1005E+00  0.1004E+00
    -14.825  0.1852E-01  0.1845E-01  0.1038E+00  0.1037E+00
    -14.645  0.1125E-01  0.1149E-01  0.1059E+00  0.1058E+00
    -14.465  0.1567E-01  0.1533E-01  0.1087E+00  0.1085E+00
    -14.286  0.1541E-01  0.1526E-01  0.1114E+00  0.1113E+00
    -14.106  0.1846E-01  0.1887E-01  0.1148E+00  0.1147E+00
    -13.926  0.1316E-01  0.1271E-01  0.1171E+00  0.1170E+00
    -13.747  0.1962E-01  0.2000E-01  0.1207E+00  0.1205E+00
    -13.567  0.1057E-01  0.1055E-01  0.1226E+00  0.1224E+00
    -13.387  0.1896E-01  0.1868E-01  0.1260E+00  0.1258E+00
    -13.208  0.9844E-02  0.1011E-01  0.1277E+00  0.1276E+00
    -13.028  0.9686E-02  0.9823E-02  0.1295E+00  0.1294E+00
    -12.849  0.1302E-01  0.1267E-01  0.1318E+00  0.1317E+00
    -12.669  0.2317E-01  0.2312E-01  0.1360E+00  0.1358E+00
    -12.489  0.1554E-01  0.1583E-01  0.1388E+00  0.1387E+00
    -12.310  0.1008E-01  0.1043E-01  0.1406E+00  0.1405E+00
    -12.130  0.9378E-02  0.9198E-02  0.1423E+00  0.1422E+00
    -11.950  0.1500E-01  0.1483E-01  0.1449E+00  0.1448E+00
    -11.771  0.1998E-01  0.1971E-01  0.1485E+00  0.1484E+00
    -11.591  0.2766E-01  0.2729E-01  0.1535E+00  0.1533E+00
    -11.411  0.1885E-01  0.1969E-01  0.1569E+00  0.1568E+00
    -11.232  0.5532E-02  0.5720E-02  0.1579E+00  0.1578E+00
    -11.052  0.1407E-01  0.1362E-01  0.1604E+00  0.1603E+00
    -10.872  0.2004E-01  0.2011E-01  0.1640E+00  0.1639E+00
    -10.693  0.1747E-01  0.1747E-01  0.1672E+00  0.1670E+00
    -10.513  0.1444E-01  0.1415E-01  0.1697E+00  0.1696E+00
    -10.334  0.3571E-01  0.3522E-01  0.1762E+00  0.1759E+00
    -10.154  0.2076E-01  0.2177E-01  0.1799E+00  0.1798E+00
     -9.974  0.2105E-01  0.2045E-01  0.1837E+00  0.1835E+00
     -9.795  0.2149E-01  0.2187E-01  0.1875E+00  0.1874E+00
     -9.615  0.2237E-01  0.2225E-01  0.1915E+00  0.1914E+00
     -9.435  0.3417E-01  0.3422E-01  0.1977E+00  0.1976E+00
     -9.256  0.3048E-01  0.3056E-01  0.2032E+00  0.2031E+00
     -9.076  0.2921E-01  0.2883E-01  0.2084E+00  0.2082E+00
     -8.896  0.3526E-01  0.3556E-01  0.2147E+00  0.2146E+00
     -8.717  0.3387E-01  0.3375E-01  0.2208E+00  0.2207E+00
     -8.537  0.4604E-01  0.4493E-01  0.2291E+00  0.2288E+00
     -8.357  0.5491E-01  0.5593E-01  0.2390E+00  0.2388E+00
     -8.178  0.3130E-01  0.3146E-01  0.2446E+00  0.2445E+00
     -7.998  0.3030E-01  0.2981E-01  0.2500E+00  0.2498E+00
     -7.819  0.3030E-01  0.3085E-01  0.2555E+00  0.2554E+00
     -7.639  0.2282E-01  0.2283E-01  0.2596E+00  0.2595E+00
     -7.459  0.3714E-01  0.3687E-01  0.2662E+00  0.2661E+00
     -7.280  0.3359E-01  0.3388E-01  0.2723E+00  0.2722E+00
     -7.100  0.3008E-01  0.3072E-01  0.2777E+00  0.2777E+00
     -6.920  0.3741E-01  0.3682E-01  0.2844E+00  0.2843E+00
     -6.741  0.1976E-01  0.1993E-01  0.2880E+00  0.2879E+00
     -6.561  0.1429E-01  0.1473E-01  0.2905E+00  0.2905E+00
     -6.381  0.1982E-01  0.2092E-01  0.2941E+00  0.2943E+00
     -6.202  0.4066E-01  0.4052E-01  0.3014E+00  0.3016E+00
     -6.022  0.2953E-01  0.2843E-01  0.3067E+00  0.3067E+00
     -5.843  0.2702E-01  0.2702E-01  0.3115E+00  0.3115E+00
     -5.663  0.2463E-01  0.2684E-01  0.3160E+00  0.3163E+00
     -5.483  0.1682E-01  0.1502E-01  0.3190E+00  0.3190E+00
     -5.304  0.1462E-01  0.1622E-01  0.3216E+00  0.3220E+00
     -5.124  0.1963E-01  0.2119E-01  0.3251E+00  0.3258E+00
     -4.944  0.2544E-01  0.3278E-01  0.3297E+00  0.3317E+00
     -4.765  0.3192E-01  0.2679E-01  0.3354E+00  0.3365E+00
     -4.585  0.3544E-01  0.3427E-01  0.3418E+00  0.3426E+00
     -4.405  0.1437E-01  0.1004E-01  0.3444E+00  0.3444E+00
     -4.226  0.4521E-02  0.6226E-02  0.3452E+00  0.3455E+00
     -4.046  0.1043E-01  0.1562E-01  0.3471E+00  0.3484E+00
     -3.866  0.1573E-01  0.2598E-01  0.3499E+00  0.3530E+00
     -3.687  0.1723E-01  0.1368E-01  0.3530E+00  0.3555E+00
     -3.507  0.1833E-01  0.8236E-02  0.3563E+00  0.3570E+00
     -3.328  0.1306E-01  0.1596E-01  0.3586E+00  0.3598E+00
     -3.148  0.8642E-02  0.1717E-01  0.3602E+00  0.3629E+00
     -2.968  0.6145E-02  0.5213E-02  0.3613E+00  0.3638E+00
     -2.789  0.3006E-02  0.1049E-01  0.3618E+00  0.3657E+00
     -2.609  0.2331E-03  0.4270E-02  0.3619E+00  0.3665E+00
     -2.429  0.3596E-03  0.2321E-02  0.3619E+00  0.3669E+00
     -2.250  0.3430E-02  0.3034E-02  0.3626E+00  0.3675E+00
     -2.070  0.8786E-02  0.5579E-02  0.3641E+00  0.3685E+00
     -1.890  0.7239E-02  0.2169E-02  0.3654E+00  0.3688E+00
     -1.711  0.1060E-02  0.9731E-02  0.3656E+00  0.3706E+00
     -1.531  0.1123E-02  0.1389E-01  0.3658E+00  0.3731E+00
     -1.351  0.9365E-02  0.1319E-01  0.3675E+00  0.3755E+00
     -1.172  0.3436E-02  0.9718E-02  0.3681E+00  0.3772E+00
     -0.992  0.5878E-02  0.6983E-02  0.3692E+00  0.3785E+00
     -0.813  0.3088E-01  0.1657E-01  0.3747E+00  0.3814E+00
     -0.633  0.2802E-01  0.1781E-01  0.3798E+00  0.3846E+00
     -0.453  0.2442E-01  0.1307E-01  0.3841E+00  0.3870E+00
     -0.274  0.2366E-01  0.1944E-01  0.3884E+00  0.3905E+00
     -0.094  0.1830E-01  0.1207E-01  0.3917E+00  0.3926E+00
      0.086  0.9709E-02  0.1035E-01  0.3934E+00  0.3945E+00
      0.265  0.2211E-01  0.2315E-01  0.3974E+00  0.3987E+00
      0.445  0.2314E-01  0.1661E-01  0.4016E+00  0.4016E+00
      0.625  0.1474E-01  0.1385E-01  0.4042E+00  0.4041E+00
      0.804  0.6882E-02  0.1380E-01  0.4054E+00  0.4066E+00
      0.984  0.1369E-01  0.1709E-01  0.4079E+00  0.4097E+00
      1.164  0.2058E-01  0.1316E-01  0.4116E+00  0.4120E+00
      1.343  0.1520E-01  0.1814E-01  0.4143E+00  0.4153E+00
      1.523  0.1961E-01  0.1815E-01  0.4179E+00  0.4186E+00
      1.702  0.2070E-01  0.2159E-01  0.4216E+00  0.4224E+00
      1.882  0.2643E-01  0.2702E-01  0.4263E+00  0.4273E+00
      2.062  0.3287E-01  0.3524E-01  0.4322E+00  0.4336E+00
      2.241  0.2599E-01  0.2763E-01  0.4369E+00  0.4386E+00
      2.421  0.1819E-01  0.2138E-01  0.4402E+00  0.4424E+00
      2.601  0.4205E-01  0.4042E-01  0.4477E+00  0.4497E+00
      2.780  0.5058E-01  0.4679E-01  0.4568E+00  0.4581E+00
      2.960  0.1746E-01  0.1045E-01  0.4599E+00  0.4600E+00
      3.140  0.3591E-03  0.1310E-03  0.4600E+00  0.4600E+00
      3.319  0.6699E-07  0.9639E-08  0.4600E+00  0.4600E+00
      3.499  0.3843E-13  0.1801E-14  0.4600E+00  0.4600E+00
      3.678  0.0000E+00  0.0000E+00  0.4600E+00  0.4600E+00
      3.858  0.0000E+00  0.0000E+00  0.4600E+00  0.4600E+00
      4.038  0.0000E+00  0.0000E+00  0.4600E+00  0.4600E+00
      4.217  0.0000E+00  0.0000E+00  0.4600E+00  0.4600E+00
      4.397  0.0000E+00  0.0000E+00  0.4600E+00  0.4600E+00
      4.577  0.0000E+00  0.0000E+00  0.4600E+00  0.4600E+00
      4.756  0.0000E+00  0.0000E+00  0.4600E+00  0.4600E+00
      4.936  0.0000E+00  0.0000E+00  0.4600E+00  0.4600E+00
      5.116  0.0000E+00  0.0000E+00  0.4600E+00  0.4600E+00
      5.295  0.0000E+00  0.0000E+00  0.4600E+00  0.4600E+00
