 vasp.5.4.4.18Apr17-6-g9f103f2a35 (build Sep 02 2021 13:24:58) complex          
  
 executed on             LinuxIFC date 2023.01.15  13:02:12
 running on   48 total cores
 distrk:  each k-point on   48 cores,    1 groups
 distr:  one band on NCORES_PER_BAND=  12 cores,    4 groups


--------------------------------------------------------------------------------------------------------


 INCAR:
 POTCAR:    PAW_PBE C 08Apr2002                   
 POTCAR:    PAW_PBE N 08Apr2002                   
 POTCAR:    PAW_PBE C 08Apr2002                   
 POTCAR:    PAW_PBE Cr_pv 02Aug2007               
 POTCAR:    PAW_PBE C 08Apr2002                   
   SHA256 =  253f7b50bb8d59471dbedb8285d89021f4a42ed1a2c5d38a03a736e69125dd95 C/
   COPYR  = (c) Copyright 08Apr2002 Georg Kresse                                
   COPYR  = This file is part of the software VASP. Any use, copying, and all ot
   COPYR  = If you do not have a valid VASP license, you may not use, copy or di
   VRHFIN =C: s2p2                                                              
   LEXCH  = PE                                                                  
   EATOM  =   147.1560 eV,   10.8157 Ry                                         
                                                                                
   TITEL  = PAW_PBE C 08Apr2002                                                 
   LULTRA =        F    use ultrasoft PP ?                                      
   IUNSCR =        1    unscreen: 0-lin 1-nonlin 2-no                           
   RPACOR =    1.200    partial core radius                                     
   POMASS =   12.011; ZVAL   =    4.000    mass and valenz                      
   RCORE  =    1.500    outmost cutoff radius                                   
   RWIGS  =    1.630; RWIGS  =    0.863    wigner-seitz radius (au A)           
   ENMAX  =  400.000; ENMIN  =  300.000 eV                                      
   ICORE  =        2    local potential                                         
   LCOR   =        T    correct aug charges                                     
   LPAW   =        T    paw PP                                                  
   EAUG   =  644.873                                                            
   DEXC   =    0.000                                                            
   RMAX   =    1.529    core radius for proj-oper                               
   RAUG   =    1.300    factor for augmentation sphere                          
   RDEP   =    1.501    radius for radial grids                                 
   RDEPT  =    1.300    core radius for aug-charge                              
                                                                                
   Atomic configuration                                                         
    4 entries                                                                   
     n  l   j            E        occ.                                          
     1  0  0.50      -273.3789   2.0000                                         
     2  0  0.50       -13.7508   2.0000                                         
     2  1  0.50        -5.2854   2.0000                                         
     3  2  1.50        -5.4423   0.0000                                         
   Description                                                                  
     l       E           TYP  RCUT    TYP  RCUT                                 
     0    -13.7508458     23  1.200                                             
     0     -8.2022199     23  1.200                                             
     1     -5.2854383     23  1.500                                             
     1     34.0145650     23  1.500                                             
     2     -5.4423304      7  1.500                                             
  local pseudopotential read in
  partial core-charges read in
  partial kinetic energy density read in
  atomic valenz-charges read in
  non local Contribution for L=           0  read in
    real space projection operators read in
  non local Contribution for L=           0  read in
    real space projection operators read in
  non local Contribution for L=           1  read in
    real space projection operators read in
  non local Contribution for L=           1  read in
    real space projection operators read in
    PAW grid and wavefunctions read in
 
   number of l-projection  operators is LMAX  =           4
   number of lm-projection operators is LMMAX =           8
 
 POTCAR:    PAW_PBE N 08Apr2002                   
   SHA256 =  e053789ff3a61a86a1b75d8a110fcc91f86041011e7b0817c7c99e4e8a6349d7 N/
   COPYR  = (c) Copyright 08Apr2002 Georg Kresse                                
   COPYR  = This file is part of the software VASP. Any use, copying, and all ot
   COPYR  = If you do not have a valid VASP license, you may not use, copy or di
   VRHFIN =N: s2p3                                                              
   LEXCH  = PE                                                                  
   EATOM  =   264.5486 eV,   19.4438 Ry                                         
                                                                                
   TITEL  = PAW_PBE N 08Apr2002                                                 
   LULTRA =        F    use ultrasoft PP ?                                      
   IUNSCR =        1    unscreen: 0-lin 1-nonlin 2-no                           
   RPACOR =    1.200    partial core radius                                     
   POMASS =   14.001; ZVAL   =    5.000    mass and valenz                      
   RCORE  =    1.500    outmost cutoff radius                                   
   RWIGS  =    1.400; RWIGS  =    0.741    wigner-seitz radius (au A)           
   ENMAX  =  400.000; ENMIN  =  300.000 eV                                      
   ICORE  =        2    local potential                                         
   LCOR   =        T    correct aug charges                                     
   LPAW   =        T    paw PP                                                  
   EAUG   =  627.112                                                            
   DEXC   =    0.000                                                            
   RMAX   =    1.529    core radius for proj-oper                               
   RAUG   =    1.300    factor for augmentation sphere                          
   RDEP   =    1.514    radius for radial grids                                 
   RDEPT  =    1.338    core radius for aug-charge                              
                                                                                
   Atomic configuration                                                         
    4 entries                                                                   
     n  l   j            E        occ.                                          
     1  0  0.50      -384.7179   2.0000                                         
     2  0  0.50       -18.5828   2.0000                                         
     2  1  0.50        -7.0898   3.0000                                         
     3  2  1.50        -6.8029   0.0000                                         
   Description                                                                  
     l       E           TYP  RCUT    TYP  RCUT                                 
     0    -18.5828119     23  1.200                                             
     0    -13.5018863     23  1.200                                             
     1     -7.0897853     23  1.500                                             
     1      9.5240782     23  1.500                                             
     2     -6.8029130      7  1.500                                             
  local pseudopotential read in
  partial core-charges read in
  partial kinetic energy density read in
  atomic valenz-charges read in
  non local Contribution for L=           0  read in
    real space projection operators read in
  non local Contribution for L=           0  read in
    real space projection operators read in
  non local Contribution for L=           1  read in
    real space projection operators read in
  non local Contribution for L=           1  read in
    real space projection operators read in
    PAW grid and wavefunctions read in
 
   number of l-projection  operators is LMAX  =           4
   number of lm-projection operators is LMMAX =           8
 
 POTCAR:    PAW_PBE C 08Apr2002                   
   SHA256 =  253f7b50bb8d59471dbedb8285d89021f4a42ed1a2c5d38a03a736e69125dd95 C/
   COPYR  = (c) Copyright 08Apr2002 Georg Kresse                                
   COPYR  = This file is part of the software VASP. Any use, copying, and all ot
   COPYR  = If you do not have a valid VASP license, you may not use, copy or di
   VRHFIN =C: s2p2                                                              
   LEXCH  = PE                                                                  
   EATOM  =   147.1560 eV,   10.8157 Ry                                         
                                                                                
   TITEL  = PAW_PBE C 08Apr2002                                                 
   LULTRA =        F    use ultrasoft PP ?                                      
   IUNSCR =        1    unscreen: 0-lin 1-nonlin 2-no                           
   RPACOR =    1.200    partial core radius                                     
   POMASS =   12.011; ZVAL   =    4.000    mass and valenz                      
   RCORE  =    1.500    outmost cutoff radius                                   
   RWIGS  =    1.630; RWIGS  =    0.863    wigner-seitz radius (au A)           
   ENMAX  =  400.000; ENMIN  =  300.000 eV                                      
   ICORE  =        2    local potential                                         
   LCOR   =        T    correct aug charges                                     
   LPAW   =        T    paw PP                                                  
   EAUG   =  644.873                                                            
   DEXC   =    0.000                                                            
   RMAX   =    1.529    core radius for proj-oper                               
   RAUG   =    1.300    factor for augmentation sphere                          
   RDEP   =    1.501    radius for radial grids                                 
   RDEPT  =    1.300    core radius for aug-charge                              
                                                                                
   Atomic configuration                                                         
    4 entries                                                                   
     n  l   j            E        occ.                                          
     1  0  0.50      -273.3789   2.0000                                         
     2  0  0.50       -13.7508   2.0000                                         
     2  1  0.50        -5.2854   2.0000                                         
     3  2  1.50        -5.4423   0.0000                                         
   Description                                                                  
     l       E           TYP  RCUT    TYP  RCUT                                 
     0    -13.7508458     23  1.200                                             
     0     -8.2022199     23  1.200                                             
     1     -5.2854383     23  1.500                                             
     1     34.0145650     23  1.500                                             
     2     -5.4423304      7  1.500                                             
  local pseudopotential read in
  partial core-charges read in
  partial kinetic energy density read in
  atomic valenz-charges read in
  non local Contribution for L=           0  read in
    real space projection operators read in
  non local Contribution for L=           0  read in
    real space projection operators read in
  non local Contribution for L=           1  read in
    real space projection operators read in
  non local Contribution for L=           1  read in
    real space projection operators read in
    PAW grid and wavefunctions read in
 
   number of l-projection  operators is LMAX  =           4
   number of lm-projection operators is LMMAX =           8
 
 POTCAR:    PAW_PBE Cr_pv 02Aug2007               
   SHA256 =  c9a7df34d3cdbacf1090e328ef39c0b420964e11c23f63548d1ac9dd218cdba0 Cr
   COPYR  = (c) Copyright 02Aug2007 Georg Kresse                                
   COPYR  = This file is part of the software VASP. Any use, copying, and all ot
   COPYR  = If you do not have a valid VASP license, you may not use, copy or di
   VRHFIN =Cr : p6d5s1                                                          
   LEXCH  = PE                                                                  
   EATOM  =  1647.9177 eV,  121.1185 Ry                                         
                                                                                
   TITEL  = PAW_PBE Cr_pv 02Aug2007                                             
   LULTRA =        F    use ultrasoft PP ?                                      
   IUNSCR =        1    unscreen: 0-lin 1-nonlin 2-no                           
   RPACOR =    2.080    partial core radius                                     
   POMASS =   51.996; ZVAL   =   12.000    mass and valenz                      
   RCORE  =    2.300    outmost cutoff radius                                   
   RWIGS  =    2.500; RWIGS  =    1.323    wigner-seitz radius (au A)           
   ENMAX  =  265.681; ENMIN  =  199.261 eV                                      
   ICORE  =        3    local potential                                         
   LCOR   =        T    correct aug charges                                     
   LPAW   =        T    paw PP                                                  
   EAUG   =  519.424                                                            
   DEXC   =    0.000                                                            
   RMAX   =    2.356    core radius for proj-oper                               
   RAUG   =    1.300    factor for augmentation sphere                          
   RDEP   =    2.447    radius for radial grids                                 
   RDEPT  =    1.882    core radius for aug-charge                              
                                                                                
   Atomic configuration                                                         
    8 entries                                                                   
     n  l   j            E        occ.                                          
     1  0  0.50     -5880.4963   2.0000                                         
     2  0  0.50      -667.0865   2.0000                                         
     2  1  1.50      -560.6250   6.0000                                         
     3  0  0.50       -73.9860   2.0000                                         
     3  1  1.50       -45.4378   6.0000                                         
     3  2  2.50        -2.9137   5.0000                                         
     4  0  0.50        -4.0071   1.0000                                         
     4  3  2.50        -1.3606   0.0000                                         
   Description                                                                  
     l       E           TYP  RCUT    TYP  RCUT                                 
     1    -45.4377911     23  2.000                                             
     1      1.3605826     23  2.000                                             
     2     -2.9136672     23  2.300                                             
     2     -4.2742498     23  2.300                                             
     0     -4.0071320     23  2.300                                             
     0      9.4498803     23  2.300                                             
     3      2.7211652     23  2.300                                             
  local pseudopotential read in
  partial core-charges read in
  partial kinetic energy density read in
  atomic valenz-charges read in
  non local Contribution for L=           1  read in
    real space projection operators read in
  non local Contribution for L=           1  read in
    real space projection operators read in
  non local Contribution for L=           2  read in
    real space projection operators read in
  non local Contribution for L=           2  read in
    real space projection operators read in
  non local Contribution for L=           0  read in
    real space projection operators read in
  non local Contribution for L=           0  read in
    real space projection operators read in
    PAW grid and wavefunctions read in
 
   number of l-projection  operators is LMAX  =           6
   number of lm-projection operators is LMMAX =          18
 
 Optimization of the real space projectors (new method)

 maximal supplied QI-value         = 25.13
 optimisation between [QCUT,QGAM] = [ 11.81, 23.88] = [ 39.08,159.64] Ry 
 Optimized for a Real-space Cutoff    1.18 Angstroem

   l    n(q)    QCUT    max X(q) W(low)/X(q) W(high)/X(q)  e(spline) 
   0      8    11.813   115.676    0.10E-03    0.16E-03    0.35E-06
   0      8    11.813    87.132    0.10E-03    0.16E-03    0.35E-06
   1      8    11.813     4.429    0.16E-03    0.13E-04    0.22E-06
   1      8    11.813     2.733    0.13E-03    0.10E-04    0.18E-06
 Optimization of the real space projectors (new method)

 maximal supplied QI-value         = 25.13
 optimisation between [QCUT,QGAM] = [ 11.81, 23.88] = [ 39.08,159.64] Ry 
 Optimized for a Real-space Cutoff    1.41 Angstroem

   l    n(q)    QCUT    max X(q) W(low)/X(q) W(high)/X(q)  e(spline) 
   0     10    11.813    79.467    0.48E-04    0.30E-04    0.67E-06
   0     10    11.813    66.151    0.47E-04    0.30E-04    0.67E-06
   1     10    11.813    20.169    0.11E-03    0.17E-03    0.11E-05
   1     10    11.813    14.454    0.11E-03    0.17E-03    0.11E-05
 Optimization of the real space projectors (new method)

 maximal supplied QI-value         = 25.13
 optimisation between [QCUT,QGAM] = [ 11.81, 23.88] = [ 39.08,159.64] Ry 
 Optimized for a Real-space Cutoff    1.18 Angstroem

   l    n(q)    QCUT    max X(q) W(low)/X(q) W(high)/X(q)  e(spline) 
   0      8    11.813   115.676    0.10E-03    0.16E-03    0.35E-06
   0      8    11.813    87.132    0.10E-03    0.16E-03    0.35E-06
   1      8    11.813     4.429    0.16E-03    0.13E-04    0.22E-06
   1      8    11.813     2.733    0.13E-03    0.10E-04    0.18E-06
 Optimization of the real space projectors (new method)

 maximal supplied QI-value         = 16.25
 optimisation between [QCUT,QGAM] = [ 11.86, 23.89] = [ 39.41,159.82] Ry 
 Optimized for a Real-space Cutoff    1.33 Angstroem

   l    n(q)    QCUT    max X(q) W(low)/X(q) W(high)/X(q)  e(spline) 
   1      9    11.864     3.262    0.48E-04    0.16E-03    0.14E-06
   1      9    11.864     5.741    0.74E-04    0.40E-03    0.35E-06
   2      9    11.864    60.438    0.17E-03    0.21E-03    0.26E-06
   2      9    11.864    55.380    0.17E-03    0.21E-03    0.27E-06
   0      9    11.864    80.273    0.40E-04    0.47E-04    0.12E-06
   0      9    11.864    36.654    0.35E-04    0.41E-04    0.11E-06
  PAW_PBE C 08Apr2002                   :
 energy of atom  1       EATOM= -147.1560
 kinetic energy error for atom=    0.0066 (will be added to EATOM!!)
  PAW_PBE N 08Apr2002                   :
 energy of atom  2       EATOM= -264.5486
 kinetic energy error for atom=    0.0116 (will be added to EATOM!!)
  PAW_PBE C 08Apr2002                   :
 energy of atom  3       EATOM= -147.1560
 kinetic energy error for atom=    0.0066 (will be added to EATOM!!)
  PAW_PBE Cr_pv 02Aug2007               :
 energy of atom  4       EATOM=-1647.9177
 kinetic energy error for atom=    0.0054 (will be added to EATOM!!)
 
 
 POSCAR: POSCAR-clean                            
  positions in cartesian coordinates
  No initial velocities read in
 exchange correlation table for  LEXCH =        8
   RHO(1)=    0.500       N(1)  =     2000
   RHO(2)=  100.500       N(2)  =     4000
 


--------------------------------------------------------------------------------------------------------


 ion  position               nearest neighbor table
   1  0.000  1.000  0.498-   2 1.42  60 1.42  70 1.43
   2  0.056  0.111  0.498-   1 1.42  13 1.42  15 1.43
   3  0.168  0.002  0.498-   4 1.42  62 1.43  60 1.43
   4  0.224  0.113  0.498-   3 1.42  15 1.42  17 1.44
   5  0.334  0.002  0.498-   6 1.42  62 1.43  64 1.43
   6  0.390  0.113  0.498-   5 1.42  19 1.42  17 1.44
   7  0.500  1.000  0.498-   8 1.42  64 1.42  66 1.43
   8  0.556  0.111  0.498-   7 1.42  21 1.42  19 1.43
   9  0.666  0.998  0.498-  10 1.42  66 1.42  68 1.44
  10  0.722  0.109  0.498-   9 1.42  23 1.43  21 1.43
  11  0.832  0.998  0.498-  12 1.42  70 1.42  68 1.44
  12  0.888  0.109  0.498-  11 1.42  23 1.43  13 1.43
  13  0.999  0.165  0.498-  14 1.42   2 1.42  12 1.43
  14  0.054  0.277  0.499-  13 1.42  25 1.42  27 1.43
  15  0.167  0.168  0.498-  16 1.42   4 1.42   2 1.43
  16  0.223  0.280  0.500-  15 1.42  27 1.43  29 1.44
  17  0.335  0.170  0.499-  18 1.42   4 1.44   6 1.44
  18  0.391  0.281  0.503-  17 1.42  31 1.44  29 1.44
  19  0.501  0.168  0.498-  20 1.42   6 1.42   8 1.43
  20  0.557  0.280  0.500-  19 1.42  33 1.43  31 1.44
  21  0.667  0.165  0.498-  22 1.42   8 1.42  10 1.43
  22  0.723  0.277  0.498-  21 1.42  35 1.42  33 1.43
  23  0.833  0.165  0.498-  24 1.42  10 1.43  12 1.43
  24  0.888  0.276  0.498-  23 1.42  25 1.42  35 1.43
  25  0.999  0.332  0.498-  14 1.42  26 1.42  24 1.42
  26  0.054  0.444  0.499-  39 1.42  37 1.42  25 1.42
  27  0.165  0.333  0.500-  28 1.42  16 1.43  14 1.43
  28  0.219  0.444  0.502-  41 1.41  27 1.42  39 1.42
  29  0.335  0.338  0.503-  30 1.41  18 1.44  16 1.44
  30  0.387  0.448  0.510-  41 1.41  29 1.41  71 2.00
  31  0.503  0.338  0.504-  32 1.41  18 1.44  20 1.44
  32  0.562  0.448  0.510-  43 1.41  31 1.41  71 2.00
  33  0.668  0.333  0.500-  34 1.42  20 1.43  22 1.43
  34  0.725  0.444  0.501-  43 1.41  33 1.42  45 1.42
  35  0.833  0.332  0.498-  22 1.42  36 1.42  24 1.43
  36  0.890  0.444  0.498-  45 1.42  37 1.42  35 1.42
  37  0.000  0.500  0.498-  36 1.42  26 1.42  38 1.42
  38  0.056  0.611  0.498-  47 1.42  49 1.42  37 1.42
  39  0.165  0.500  0.500-  26 1.42  28 1.42  40 1.42
  40  0.220  0.611  0.500-  49 1.42  51 1.42  39 1.42
  41  0.329  0.499  0.505-  30 1.41  28 1.41  42 1.44
  42  0.385  0.612  0.505-  53 1.41  51 1.41  41 1.44
  43  0.671  0.499  0.505-  32 1.41  34 1.41  44 1.44
  44  0.727  0.612  0.505-  55 1.41  57 1.41  43 1.44
  45  0.836  0.500  0.499-  36 1.42  34 1.42  46 1.42
  46  0.891  0.611  0.499-  47 1.42  57 1.42  45 1.42
  47  0.001  0.667  0.498-  46 1.42  38 1.42  48 1.42
  48  0.057  0.779  0.498-  59 1.42  47 1.42  61 1.43
  49  0.166  0.667  0.499-  40 1.42  38 1.42  50 1.42
  50  0.222  0.779  0.498-  63 1.42  49 1.42  61 1.42
  51  0.331  0.667  0.502-  42 1.41  52 1.42  40 1.42
  52  0.388  0.778  0.500-  51 1.42  65 1.43  63 1.43
  53  0.494  0.663  0.510-  42 1.41  54 1.41  71 2.00
  54  0.553  0.773  0.503-  53 1.41  67 1.44  65 1.44
  55  0.669  0.663  0.510-  44 1.41  56 1.41  71 2.00
  56  0.721  0.773  0.504-  55 1.41  67 1.44  69 1.44
  57  0.837  0.667  0.501-  44 1.41  58 1.42  46 1.42
  58  0.891  0.778  0.500-  57 1.42  69 1.42  59 1.43
  59  0.002  0.835  0.498-  60 1.42  48 1.42  58 1.43
  60  0.057  0.946  0.498-  59 1.42   1 1.42   3 1.43
  61  0.168  0.835  0.498-  62 1.42  50 1.42  48 1.43
  62  0.223  0.946  0.498-  61 1.42   3 1.43   5 1.43
  63  0.333  0.835  0.499-  64 1.42  50 1.42  52 1.43
  64  0.389  0.946  0.498-  63 1.42   7 1.42   5 1.43
  65  0.499  0.832  0.500-  66 1.42  52 1.43  54 1.44
  66  0.555  0.943  0.498-  65 1.42   9 1.42   7 1.43
  67  0.665  0.830  0.503-  68 1.42  56 1.44  54 1.44
  68  0.721  0.941  0.499-  67 1.42   9 1.44  11 1.44
  69  0.833  0.832  0.500-  70 1.42  58 1.42  56 1.44
  70  0.889  0.943  0.498-  69 1.42  11 1.42   1 1.43
  71  0.528  0.556  0.554-  55 2.00  32 2.00  53 2.00  30 2.00
 

IMPORTANT INFORMATION: All symmetrisations will be switched off!
NOSYMM: (Re-)initialisation of all symmetry stuff for point group C_1.

 
 
 KPOINTS: K-Points                                

Automatic generation of k-mesh.
Space group operators:
 irot       det(A)        alpha          n_x          n_y          n_z        tau_x        tau_y        tau_z
    1     1.000000     0.000000     1.000000     0.000000     0.000000     0.000000     0.000000     0.000000
 
 Subroutine IBZKPT returns following result:
 ===========================================
 
 Found      4 irreducible k-points:
 
 Following reciprocal coordinates:
            Coordinates               Weight
  0.000000  0.000000  0.000000      1.000000
  0.500000  0.000000  0.000000      1.000000
 -0.000000  0.500000  0.000000      1.000000
  0.500000  0.500000  0.000000      1.000000
 
 Following cartesian coordinates:
            Coordinates               Weight
  0.000000  0.000000  0.000000      1.000000
  0.033606  0.019589  0.000000      1.000000
 -0.000000  0.039178  0.000000      1.000000
  0.033606  0.058767  0.000000      1.000000
 


--------------------------------------------------------------------------------------------------------




 Dimension of arrays:
   k-points           NKPTS =      4   k-points in BZ     NKDIM =      4   number of bands    NBANDS=    184
   number of dos      NEDOS =    301   number of ions     NIONS =     71
   non local maximal  LDIM  =      6   non local SUM 2l+1 LMDIM =     18
   total plane-waves  NPLWV = ******
   max r-space proj   IRMAX =   7110   max aug-charges    IRDMAX=  21308
   dimension x,y,z NGX =   120 NGY =  120 NGZ =  120
   dimension x,y,z NGXF=   240 NGYF=  240 NGZF=  240
   support grid    NGXF=   240 NGYF=  240 NGZF=  240
   ions per type =              58   1  11   1
   NGX,Y,Z   is equivalent  to a cutoff of  13.41, 13.50, 13.30 a.u.
   NGXF,Y,Z  is equivalent  to a cutoff of  26.82, 27.01, 26.60 a.u.

 SYSTEM =  unknown system                          
 POSCAR =  POSCAR-clean                            

 Startparameter for this run:
   NWRITE =      2    write-flag & timer
   PREC   = accura    normal or accurate (medium, high low for compatibility)
   ISTART =      0    job   : 0-new  1-cont  2-samecut
   ICHARG =      2    charge: 1-file 2-atom 10-const
   ISPIN  =      2    spin polarized calculation?
   LNONCOLLINEAR =      F non collinear calculations
   LSORBIT =      F    spin-orbit coupling
   INIWAV =      1    electr: 0-lowe 1-rand  2-diag
   LASPH  =      F    aspherical Exc in radial PAW
   METAGGA=      F    non-selfconsistent MetaGGA calc.

 Electronic Relaxation 1
   ENCUT  =  550.0 eV  40.42 Ry    6.36 a.u.  28.45 28.25 28.68*2*pi/ulx,y,z
   ENINI  =  550.0     initial cutoff
   ENAUG  =  644.9 eV  augmentation charge cutoff
   NELM   =     50;   NELMIN=  2; NELMDL= -5     # of ELM steps 
   EDIFF  = 0.1E-04   stopping-criterion for ELM
   LREAL  =      T    real-space projection
   NLSPLINE    = F    spline interpolate recip. space projectors
   LCOMPAT=      F    compatible to vasp.4.4
   GGA_COMPAT  = T    GGA compatible to vasp.4.4-vasp.4.6
   LMAXPAW     = -100 max onsite density
   LMAXMIX     =    2 max onsite mixed and CHGCAR
   VOSKOWN=      0    Vosko Wilk Nusair interpolation
   ROPT   =   -0.00025  -0.00025  -0.00025  -0.00025
 Ionic relaxation
   EDIFFG = -.5E-01   stopping-criterion for IOM
   NSW    =    400    number of steps for IOM
   NBLOCK =      1;   KBLOCK =    400    inner block; outer block 
   IBRION =      2    ionic relax: 0-MD 1-quasi-New 2-CG
   NFREE  =      1    steps in history (QN), initial steepest desc. (CG)
   ISIF   =      3    stress and relaxation
   IWAVPR =     11    prediction:  0-non 1-charg 2-wave 3-comb
   ISYM   =      0    0-nonsym 1-usesym 2-fastsym
   LCORR  =      T    Harris-Foulkes like correction to forces

   POTIM  = 0.3000    time-step for ionic-motion
   TEIN   =    0.0    initial temperature
   TEBEG  =    0.0;   TEEND  =   0.0 temperature during run
   SMASS  =  -3.00    Nose mass-parameter (am)
   estimated Nose-frequenzy (Omega)   =  0.10E-29 period in steps =****** mass=  -0.506E-26a.u.
   SCALEE = 1.0000    scale energy and forces
   NPACO  =    256;   APACO  = 16.0  distance and # of slots for P.C.
   PSTRESS=    0.0 pullay stress

  Mass of Ions in am
   POMASS =  12.01 14.00 12.01 52.00
  Ionic Valenz
   ZVAL   =   4.00  5.00  4.00 12.00
  Atomic Wigner-Seitz radii
   RWIGS  =  -1.00 -1.00 -1.00 -1.00
  virtual crystal weights 
   VCA    =   1.00  1.00  1.00  1.00
   NELECT =     293.0000    total number of electrons
   NUPDOWN=      -1.0000    fix difference up-down

 DOS related values:
   EMIN   =  10.00;   EMAX   =-10.00  energy-range for DOS
   EFERMI =   0.00
   ISMEAR =     0;   SIGMA  =   0.10  broadening in eV -4-tet -1-fermi 0-gaus

 Electronic relaxation 2 (details)
   IALGO  =     68    algorithm
   LDIAG  =      T    sub-space diagonalisation (order eigenvalues)
   LSUBROT=      F    optimize rotation matrix (better conditioning)
   TURBO    =      0    0=normal 1=particle mesh
   IRESTART =      0    0=no restart 2=restart with 2 vectors
   NREBOOT  =      0    no. of reboots
   NMIN     =      0    reboot dimension
   EREF     =   0.00    reference energy to select bands
   IMIX   =      4    mixing-type and parameters
     AMIX     =   0.40;   BMIX     =  1.00
     AMIX_MAG =   1.60;   BMIX_MAG =  1.00
     AMIN     =   0.10
     WC   =   100.;   INIMIX=   1;  MIXPRE=   1;  MAXMIX= -45

 Intra band minimization:
   WEIMIN = 0.0010     energy-eigenvalue tresh-hold
   EBREAK =  0.14E-07  absolut break condition
   DEPER  =   0.30     relativ break condition  

   TIME   =   0.40     timestep for ELM

  volume/ion in A,a.u.               =      40.12       270.71
  Fermi-wavevector in a.u.,A,eV,Ry     =   0.767079  1.449569  8.005805  0.588410
  Thomas-Fermi vector in A             =   1.867557
 
 Write flags
   LWAVE        =      F    write WAVECAR
   LDOWNSAMPLE  =      F    k-point downsampling of WAVECAR
   LCHARG       =      F    write CHGCAR
   LVTOT        =      F    write LOCPOT, total local potential
   LVHAR        =      F    write LOCPOT, Hartree potential only
   LELF         =      F    write electronic localiz. function (ELF)
   LORBIT       =      0    0 simple, 1 ext, 2 COOP (PROOUT), +10 PAW based schemes


 Dipole corrections
   LMONO  =      F    monopole corrections only (constant potential shift)
   LDIPOL =      F    correct potential (dipole corrections)
   IDIPOL =      0    1-x, 2-y, 3-z, 4-all directions 
   EPSILON=  1.0000000 bulk dielectric constant

 Exchange correlation treatment:
   GGA     =    --    GGA type
   LEXCH   =     8    internal setting for exchange type
   VOSKOWN=      0    Vosko Wilk Nusair interpolation
   LHFCALC =     F    Hartree Fock is set to
   LHFONE  =     F    Hartree Fock one center treatment
   AEXX    =    0.0000 exact exchange contribution

 Linear response parameters
   LEPSILON=     F    determine dielectric tensor
   LRPA    =     F    only Hartree local field effects (RPA)
   LNABLA  =     F    use nabla operator in PAW spheres
   LVEL    =     F    velocity operator in full k-point grid
   LINTERFAST=   F  fast interpolation
   KINTER  =     0    interpolate to denser k-point grid
   CSHIFT  =0.1000    complex shift for real part using Kramers Kronig
   OMEGAMAX=  -1.0    maximum frequency
   DEG_THRESHOLD= 0.2000000E-02 threshold for treating states as degnerate
   RTIME   =   -0.100 relaxation time in fs
  (WPLASMAI=    0.000 imaginary part of plasma frequency in eV, 0.658/RTIME)
   DFIELD  = 0.0000000 0.0000000 0.0000000 field for delta impulse in time
 
 Orbital magnetization related:
   ORBITALMAG=     F  switch on orbital magnetization
   LCHIMAG   =     F  perturbation theory with respect to B field
   DQ        =  0.001000  dq finite difference perturbation B field
   LLRAUG    =     F  two centre corrections for induced B field



--------------------------------------------------------------------------------------------------------


 conjugate gradient relaxation of ions
 charge density and potential will be updated during run
 spin polarized calculation
 RMM-DIIS sequential band-by-band and
  variant of blocked Davidson during initial phase
 perform sub-space diagonalisation
    before iterative eigenvector-optimisation
 modified Broyden-mixing scheme, WC =      100.0
 initial mixing is a Kerker type mixing with AMIX =  0.4000 and BMIX =      1.0000
 Hartree-type preconditioning will be used
 using additional bands           37
 real space projection scheme for non local part
 use partial core corrections
 calculate Harris-corrections to forces 
   (improved forces if not selfconsistent)
 use gradient corrections 
 use of overlap-Matrix (Vanderbilt PP)
 Gauss-broadening in eV      SIGMA  =   0.10


--------------------------------------------------------------------------------------------------------


  energy-cutoff  :      550.00
  volume of cell :     2848.21
      direct lattice vectors                 reciprocal lattice vectors
    14.878307727  0.000105424  0.000000000     0.067211667  0.039178051  0.000000000
    -7.439153864 12.762195204  0.000000000    -0.000000555  0.078356102  0.000000000
     0.000000000  0.000000000 15.000000000     0.000000000  0.000000000  0.066666667

  length of vectors
    14.878307728 14.772089786 15.000000000     0.077796709  0.078356102  0.066666667


 
 k-points in units of 2pi/SCALE and weight: K-Points                                
   0.00000000  0.00000000  0.00000000       0.250
   0.03360583  0.01958903  0.00000000       0.250
  -0.00000028  0.03917805  0.00000000       0.250
   0.03360556  0.05876708  0.00000000       0.250
 
 k-points in reciprocal lattice and weights: K-Points                                
   0.00000000  0.00000000  0.00000000       0.250
   0.50000000  0.00000000  0.00000000       0.250
  -0.00000000  0.50000000  0.00000000       0.250
   0.50000000  0.50000000  0.00000000       0.250
 
 position of ions in fractional coordinates (direct lattice) 
   0.00014703  0.99993181  0.49766807
   0.05571316  0.11129367  0.49774774
   0.16803225  0.00210520  0.49753985
   0.22355821  0.11343998  0.49825115
   0.33432830  0.00207694  0.49777234
   0.39014706  0.11341551  0.49841838
   0.50002407  0.99989044  0.49775648
   0.55582710  0.11125266  0.49767590
   0.66571506  0.99774295  0.49825147
   0.72152612  0.10907882  0.49753824
   0.83231512  0.99776674  0.49841003
   0.88783929  0.10910686  0.49776801
   0.99908442  0.16549374  0.49784405
   0.05430809  0.27667161  0.49853746
   0.16734775  0.16806595  0.49834347
   0.22284185  0.27957445  0.49997583
   0.33528932  0.17029644  0.49941211
   0.39084341  0.28141813  0.50254970
   0.50097822  0.16802960  0.49842000
   0.55697129  0.27954076  0.49998817
   0.66664919  0.16545038  0.49752014
   0.72257294  0.27663324  0.49802908
   0.83255361  0.16485921  0.49764969
   0.88821716  0.27620991  0.49780056
   0.99906908  0.33222521  0.49838447
   0.05442247  0.44382388  0.49884723
   0.16531768  0.33288444  0.50001215
   0.21898612  0.44382270  0.50165224
   0.33514858  0.33773328  0.50339031
   0.38694525  0.44827387  0.50958670
   0.50284791  0.33770682  0.50360105
   0.56160602  0.44823797  0.50998391
   0.66778145  0.33285443  0.49963749
   0.72504010  0.44380782  0.50114295
   0.83335701  0.33221195  0.49791518
   0.88957865  0.44380677  0.49825237
   0.00003314  0.49990030  0.49835048
   0.05573614  0.61130743  0.49834565
   0.16452790  0.49985599  0.50032235
   0.22027264  0.61134265  0.50031499
   0.32877881  0.49923631  0.50514604
   0.38513300  0.61194665  0.50514739
   0.67071104  0.49923365  0.50517220
   0.72707059  0.61195035  0.50517224
   0.83551700  0.49986026  0.49948453
   0.89125350  0.61133457  0.49948422
   0.00136430  0.66739252  0.49824937
   0.05673614  0.77898562  0.49790902
   0.16620335  0.66738054  0.49883406
   0.22244721  0.77897560  0.49837060
   0.33076298  0.66736579  0.50164604
   0.38803591  0.77830247  0.50000539
   0.49425975  0.66291375  0.50958718
   0.55300964  0.77344715  0.50338828
   0.66896610  0.66295341  0.50998288
   0.72073432  0.77348097  0.50359479
   0.83682433  0.66738081  0.50114212
   0.89051054  0.77833045  0.49963539
   0.00151950  0.83455528  0.49802741
   0.05677874  0.94573836  0.49751926
   0.16759972  0.83498348  0.49779087
   0.22328727  0.94632847  0.49764984
   0.33324173  0.83452222  0.49853136
   0.38919606  0.94569806  0.49784785
   0.49886656  0.83160652  0.49997424
   0.55488261  0.94311446  0.49834783
   0.66501623  0.82976534  0.50254304
   0.72058356  0.94088512  0.49940688
   0.83301728  0.83164625  0.49998031
   0.88852543  0.94315192  0.49840894
   0.52788678  0.55561308  0.55407295
 
 position of ions in cartesian coordinates  (Angst):
  -7.43645893 12.76132490  7.46502101
   0.00098677  1.42035737  7.46621609
   2.48437460  0.02688469  7.46309769
   2.48227038  1.44776676  7.47376727
   4.95878870  0.02654158  7.46658504
   4.96101252  1.44747206  7.47627575
   0.00117320 12.76084966  7.46634727
   7.44214093  1.41988678  7.46513856
   2.48235028 12.73346045  7.47377203
   9.92363354  1.39216125  7.46307356
   4.96090025 12.73378160  7.47615045
  12.39788345  1.39253665  7.46652020
  13.63355202  2.11216869  7.46766080
  -1.25019027  3.53094287  7.47806186
   1.23958287  2.14490807  7.47515208
   1.23571236  3.56800714  7.49963746
   3.72167632  2.17339173  7.49118168
   3.72157576  3.59155433  7.53824552
   6.20371007  2.14447940  7.47630003
   6.20724356  3.56761241  7.49982262
   8.68780104  2.11158030  7.46280215
   8.69274532  3.53052356  7.47043619
  11.16057575  2.10405319  7.46474541
  11.16040021  3.52513843  7.46700843
  12.39298273  4.24002833  7.47576708
  -2.49195986  5.66417272  7.48270852
  -0.01673121  4.24835367  7.50018218
  -0.04352248  5.66417505  7.52478359
   2.47399392  4.31025334  7.55085470
   2.42231217  5.72099937  7.64380057
   4.96927299  4.30993342  7.55401582
   5.02123589  5.72055973  7.64975858
   7.45930259  4.24802358  7.49456242
   7.48581505  5.66403852  7.51714419
   9.92756627  4.23984160  7.46872767
   9.93387816  5.66404236  7.47378561
  -3.71834223  6.37982525  7.47525727
  -3.71835051  7.80163060  7.47518475
  -1.27060894  6.37927707  7.50483528
  -1.27058799  7.80209747  7.50472492
   1.17777658  6.37138591  7.57719062
   1.17776199  7.80982318  7.57721079
   6.26516932  6.37138797  7.57758296
   6.26518706  7.80990654  7.57758361
   8.71254167  6.37940228  7.49226792
   8.71253189  7.80206507  7.49226324
  -4.94453714  8.51739379  7.47374059
  -4.95085604  9.94157246  7.46863529
  -2.49192199  8.51725823  7.48251084
  -2.48528121  9.94146208  7.47555906
  -0.04344336  8.51708741  7.52469062
  -0.01659412  9.93288892  7.50008080
   2.42223119  8.46028680  7.64380763
   2.47405524  9.87094181  7.55082413
   5.02127100  8.46081135  7.64974323
   4.96926315  9.87139105  7.55392179
   7.48578134  8.51733237  7.51713176
   7.45916989  9.93329897  7.49453080
  -6.18577746 10.65075751  7.47041111
  -6.19072161 12.06970350  7.46278894
  -3.71797037 10.65623981  7.46686302
  -3.71774635 12.07725221  7.46474766
  -1.25006613 10.65037063  7.47797042
  -1.24461459 12.06922431  7.46771775
   1.23584141 10.61317732  7.49961357
   1.23974067 12.03626939  7.47521740
   3.72156413 10.58969736  7.53814562
   3.72167477 12.00783549  7.49110317
   6.20714301 10.61371955  7.49970466
   6.20350242 12.03678263  7.47613410
   3.72077071  7.09089829  8.31109430
 


--------------------------------------------------------------------------------------------------------


 k-point  1 :   0.0000 0.0000 0.0000  plane waves:   83445
 k-point  2 :   0.5000 0.0000 0.0000  plane waves:   83448
 k-point  3 :  -0.0000 0.5000 0.0000  plane waves:   83436
 k-point  4 :   0.5000 0.5000 0.0000  plane waves:   83444

 maximum and minimum number of plane-waves per node :      6984     6935

 maximum number of plane-waves:     83448
 maximum index in each direction: 
   IXMAX=   28   IYMAX=   28   IZMAX=   28
   IXMIN=  -28   IYMIN=  -28   IZMIN=  -28


 real space projection operators:
  total allocation   :      18579.17 KBytes
  max/ min on nodes  :       1558.36       1534.91


 parallel 3D FFT for wavefunctions:
    minimum data exchange during FFTs selected (reduces bandwidth)
 parallel 3D FFT for charge:
    minimum data exchange during FFTs selected (reduces bandwidth)


 total amount of memory used by VASP MPI-rank0   135440. kBytes
=======================================================================

   base      :      30000. kBytes
   nonlr-proj:      10451. kBytes
   fftplans  :      14072. kBytes
   grid      :      39398. kBytes
   one-center:        186. kBytes
   wavefun   :      41333. kBytes
 
     INWAV:  cpu time    0.0000: real time    0.0000
 Broyden mixing: mesh for mixing (old mesh)
   NGX = 57   NGY = 57   NGZ = 57
  (NGX  =240   NGY  =240   NGZ  =240)
  gives a total of 185193 points

 initial charge density was supplied:
 charge density of overlapping atoms calculated
 number of electron     293.0000000 magnetization       1.0000000
 keeping initial charge density in first step


--------------------------------------------------------------------------------------------------------


 Maximum index for non-local projection operator          511
 Maximum index for augmentation-charges          410 (set IRDMAX)


--------------------------------------------------------------------------------------------------------


 First call to EWALD:  gamma=   0.125
 Maximum number of real-space cells 3x 3x 3
 Maximum number of reciprocal cells 3x 3x 3

    FEWALD:  cpu time    0.0047: real time    0.0049


--------------------------------------- Iteration      1(   1)  ---------------------------------------


    POTLOK:  cpu time    0.5274: real time    0.5597
    SETDIJ:  cpu time    0.0198: real time    0.0329
     EDDAV:  cpu time   16.7531: real time   16.9358
       DOS:  cpu time    0.0013: real time    0.0013
    --------------------------------------------
      LOOP:  cpu time   17.3016: real time   17.5297

 eigenvalue-minimisations  :  3248
 total energy-change (2. order) : 0.2743656E+04  (-0.1173111E+05)
 number of electron     293.0000000 magnetization       1.0000000
 augmentation part      293.0000000 magnetization       1.0000000

 Free energy of the ion-electron system (eV)
  ---------------------------------------------------
  alpha Z        PSCENC =       156.95040625
  Ewald energy   TEWEN  =     30375.91956908
  -Hartree energ DENC   =    -39541.95043137
  -exchange      EXHF   =         0.00000000
  -V(xc)+E(xc)   XCENC  =       982.54050139
  PAW double counting   =      9000.30529238    -9089.18527416
  entropy T*S    EENTRO =        -0.11610917
  eigenvalues    EBANDS =     -1206.56604223
  atomic energy  EATOM  =     12065.75791449
  Solvation  Ediel_sol  =         0.00000000
  ---------------------------------------------------
  free energy    TOTEN  =      2743.65582666 eV

  energy without entropy =     2743.77193583  energy(sigma->0) =     2743.71388124


--------------------------------------------------------------------------------------------------------




--------------------------------------- Iteration      1(   2)  ---------------------------------------


     EDDAV:  cpu time   21.5426: real time   21.8728
       DOS:  cpu time    0.0010: real time    0.0010
    --------------------------------------------
      LOOP:  cpu time   21.5435: real time   21.8737

 eigenvalue-minimisations  :  4304
 total energy-change (2. order) :-0.2915143E+04  (-0.2785478E+04)
 number of electron     293.0000000 magnetization       1.0000000
 augmentation part      293.0000000 magnetization       1.0000000

 Free energy of the ion-electron system (eV)
  ---------------------------------------------------
  alpha Z        PSCENC =       156.95040625
  Ewald energy   TEWEN  =     30375.91956908
  -Hartree energ DENC   =    -39541.95043137
  -exchange      EXHF   =         0.00000000
  -V(xc)+E(xc)   XCENC  =       982.54050139
  PAW double counting   =      9000.30529238    -9089.18527416
  entropy T*S    EENTRO =        -0.03007303
  eigenvalues    EBANDS =     -4121.79480456
  atomic energy  EATOM  =     12065.75791449
  Solvation  Ediel_sol  =         0.00000000
  ---------------------------------------------------
  free energy    TOTEN  =      -171.48689953 eV

  energy without entropy =     -171.45682651  energy(sigma->0) =     -171.47186302


--------------------------------------------------------------------------------------------------------




--------------------------------------- Iteration      1(   3)  ---------------------------------------


     EDDAV:  cpu time   18.3304: real time   18.5556
       DOS:  cpu time    0.0010: real time    0.0010
    --------------------------------------------
      LOOP:  cpu time   18.3314: real time   18.5565

 eigenvalue-minimisations  :  3560
 total energy-change (2. order) :-0.5127619E+03  (-0.5098236E+03)
 number of electron     293.0000000 magnetization       1.0000000
 augmentation part      293.0000000 magnetization       1.0000000

 Free energy of the ion-electron system (eV)
  ---------------------------------------------------
  alpha Z        PSCENC =       156.95040625
  Ewald energy   TEWEN  =     30375.91956908
  -Hartree energ DENC   =    -39541.95043137
  -exchange      EXHF   =         0.00000000
  -V(xc)+E(xc)   XCENC  =       982.54050139
  PAW double counting   =      9000.30529238    -9089.18527416
  entropy T*S    EENTRO =        -0.03735315
  eigenvalues    EBANDS =     -4634.54941027
  atomic energy  EATOM  =     12065.75791449
  Solvation  Ediel_sol  =         0.00000000
  ---------------------------------------------------
  free energy    TOTEN  =      -684.24878536 eV

  energy without entropy =     -684.21143222  energy(sigma->0) =     -684.23010879


--------------------------------------------------------------------------------------------------------




--------------------------------------- Iteration      1(   4)  ---------------------------------------


     EDDAV:  cpu time   18.6196: real time   18.8276
       DOS:  cpu time    0.0010: real time    0.0010
    --------------------------------------------
      LOOP:  cpu time   18.6206: real time   18.8286

 eigenvalue-minimisations  :  3552
 total energy-change (2. order) :-0.1951497E+02  (-0.1936431E+02)
 number of electron     293.0000000 magnetization       1.0000000
 augmentation part      293.0000000 magnetization       1.0000000

 Free energy of the ion-electron system (eV)
  ---------------------------------------------------
  alpha Z        PSCENC =       156.95040625
  Ewald energy   TEWEN  =     30375.91956908
  -Hartree energ DENC   =    -39541.95043137
  -exchange      EXHF   =         0.00000000
  -V(xc)+E(xc)   XCENC  =       982.54050139
  PAW double counting   =      9000.30529238    -9089.18527416
  entropy T*S    EENTRO =        -0.03773304
  eigenvalues    EBANDS =     -4654.06400440
  atomic energy  EATOM  =     12065.75791449
  Solvation  Ediel_sol  =         0.00000000
  ---------------------------------------------------
  free energy    TOTEN  =      -703.76375938 eV

  energy without entropy =     -703.72602634  energy(sigma->0) =     -703.74489286


--------------------------------------------------------------------------------------------------------




--------------------------------------- Iteration      1(   5)  ---------------------------------------


     EDDAV:  cpu time   20.4854: real time   20.7304
       DOS:  cpu time    0.0010: real time    0.0010
    CHARGE:  cpu time    0.9773: real time    0.9933
    MIXING:  cpu time    0.0105: real time    0.0136
    --------------------------------------------
      LOOP:  cpu time   21.4742: real time   21.7383

 eigenvalue-minimisations  :  4048
 total energy-change (2. order) :-0.6176364E+00  (-0.6157773E+00)
 number of electron     292.9999997 magnetization       0.7768934
 augmentation part       11.6660146 magnetization       0.7541030

 Broyden mixing:
  rms(total) = 0.46548E+01    rms(broyden)= 0.46544E+01
  rms(prec ) = 0.54197E+01
  weight for this iteration     100.00

 Free energy of the ion-electron system (eV)
  ---------------------------------------------------
  alpha Z        PSCENC =       156.95040625
  Ewald energy   TEWEN  =     30375.91956908
  -Hartree energ DENC   =    -39541.95043137
  -exchange      EXHF   =         0.00000000
  -V(xc)+E(xc)   XCENC  =       982.54050139
  PAW double counting   =      9000.30529238    -9089.18527416
  entropy T*S    EENTRO =        -0.03808882
  eigenvalues    EBANDS =     -4654.68128506
  atomic energy  EATOM  =     12065.75791449
  Solvation  Ediel_sol  =         0.00000000
  ---------------------------------------------------
  free energy    TOTEN  =      -704.38139582 eV

  energy without entropy =     -704.34330701  energy(sigma->0) =     -704.36235141


--------------------------------------------------------------------------------------------------------




--------------------------------------- Iteration      1(   6)  ---------------------------------------


    POTLOK:  cpu time    0.5344: real time    0.5444
    SETDIJ:  cpu time    0.0146: real time    0.0156
    EDDIAG:  cpu time    3.2923: real time    3.3315
  RMM-DIIS:  cpu time   17.7705: real time   17.9228
    ORTHCH:  cpu time    0.2946: real time    0.2955
       DOS:  cpu time    0.0011: real time    0.0011
    CHARGE:  cpu time    1.0360: real time    1.0512
    MIXING:  cpu time    0.0090: real time    0.0097
    --------------------------------------------
      LOOP:  cpu time   22.9527: real time   23.1718

 eigenvalue-minimisations  :  4116
 total energy-change (2. order) :-0.2796790E+02  (-0.5320591E+02)
 number of electron     293.0000007 magnetization       0.7344090
 augmentation part       17.3642457 magnetization       0.7380050

 Broyden mixing:
  rms(total) = 0.83891E+01    rms(broyden)= 0.83890E+01
  rms(prec ) = 0.92727E+01
  weight for this iteration     100.00

 eigenvalues of (default mixing * dielectric matrix)
  average eigenvalue GAMMA=   0.2167
  0.2167

 Free energy of the ion-electron system (eV)
  ---------------------------------------------------
  alpha Z        PSCENC =       156.95040625
  Ewald energy   TEWEN  =     30375.91956908
  -Hartree energ DENC   =    -39834.14331000
  -exchange      EXHF   =         0.00000000
  -V(xc)+E(xc)   XCENC  =       996.32016655
  PAW double counting   =     15150.59519771   -15239.30848959
  entropy T*S    EENTRO =        -0.05257692
  eigenvalues    EBANDS =     -4404.38816879
  atomic energy  EATOM  =     12065.75791449
  Solvation  Ediel_sol  =         0.00000000
  ---------------------------------------------------
  free energy    TOTEN  =      -732.34929122 eV

  energy without entropy =     -732.29671431  energy(sigma->0) =     -732.32300277


--------------------------------------------------------------------------------------------------------




--------------------------------------- Iteration      1(   7)  ---------------------------------------


    POTLOK:  cpu time    0.5336: real time    0.5438
    SETDIJ:  cpu time    0.0147: real time    0.0148
    EDDIAG:  cpu time    3.2451: real time    3.2738
  RMM-DIIS:  cpu time   13.2715: real time   13.3961
    ORTHCH:  cpu time    0.3413: real time    0.3556
       DOS:  cpu time    0.0008: real time    0.0008
    CHARGE:  cpu time    0.9883: real time    1.0034
    MIXING:  cpu time    0.0090: real time    0.0102
    --------------------------------------------
      LOOP:  cpu time   18.4043: real time   18.5984

 eigenvalue-minimisations  :  3036
 total energy-change (2. order) : 0.7018598E+02  (-0.5415371E+01)
 number of electron     293.0000005 magnetization       0.6198178
 augmentation part       15.2454875 magnetization       0.6212555

 Broyden mixing:
  rms(total) = 0.31819E+01    rms(broyden)= 0.31819E+01
  rms(prec ) = 0.38247E+01
  weight for this iteration     100.00

 eigenvalues of (default mixing * dielectric matrix)
  average eigenvalue GAMMA=   0.4666
  0.5000  0.4331

 Free energy of the ion-electron system (eV)
  ---------------------------------------------------
  alpha Z        PSCENC =       156.95040625
  Ewald energy   TEWEN  =     30375.91956908
  -Hartree energ DENC   =    -39956.35402800
  -exchange      EXHF   =         0.00000000
  -V(xc)+E(xc)   XCENC  =      1000.87492054
  PAW double counting   =     16741.70537774   -16837.25735337
  entropy T*S    EENTRO =        -0.00005373
  eigenvalues    EBANDS =     -4209.76006114
  atomic energy  EATOM  =     12065.75791449
  Solvation  Ediel_sol  =         0.00000000
  ---------------------------------------------------
  free energy    TOTEN  =      -662.16330814 eV

  energy without entropy =     -662.16325441  energy(sigma->0) =     -662.16328127


--------------------------------------------------------------------------------------------------------




--------------------------------------- Iteration      1(   8)  ---------------------------------------


    POTLOK:  cpu time    0.5161: real time    0.5238
    SETDIJ:  cpu time    0.0147: real time    0.0151
    EDDIAG:  cpu time    3.2045: real time    3.2325
  RMM-DIIS:  cpu time   13.6035: real time   13.7165
    ORTHCH:  cpu time    0.4339: real time    0.4513
       DOS:  cpu time    0.0010: real time    0.0010
    CHARGE:  cpu time    1.0159: real time    1.0324
    MIXING:  cpu time    0.0097: real time    0.0099
    --------------------------------------------
      LOOP:  cpu time   18.7993: real time   18.9825

 eigenvalue-minimisations  :  3122
 total energy-change (2. order) :-0.1453843E+00  (-0.2136103E+01)
 number of electron     292.9999998 magnetization       0.3629396
 augmentation part       11.2310981 magnetization       0.3068344

 Broyden mixing:
  rms(total) = 0.28316E+01    rms(broyden)= 0.28313E+01
  rms(prec ) = 0.34779E+01
  weight for this iteration     100.00

 eigenvalues of (default mixing * dielectric matrix)
  average eigenvalue GAMMA=   0.8507
  1.8718  0.3402  0.3402

 Free energy of the ion-electron system (eV)
  ---------------------------------------------------
  alpha Z        PSCENC =       156.95040625
  Ewald energy   TEWEN  =     30375.91956908
  -Hartree energ DENC   =    -40137.44918965
  -exchange      EXHF   =         0.00000000
  -V(xc)+E(xc)   XCENC  =      1007.61401777
  PAW double counting   =     19664.88133423   -19764.41955646
  entropy T*S    EENTRO =        -0.03782066
  eigenvalues    EBANDS =     -4031.52536753
  atomic energy  EATOM  =     12065.75791449
  Solvation  Ediel_sol  =         0.00000000
  ---------------------------------------------------
  free energy    TOTEN  =      -662.30869248 eV

  energy without entropy =     -662.27087182  energy(sigma->0) =     -662.28978215


--------------------------------------------------------------------------------------------------------




--------------------------------------- Iteration      1(   9)  ---------------------------------------


    POTLOK:  cpu time    0.5570: real time    0.5621
    SETDIJ:  cpu time    0.0163: real time    0.0165
    EDDIAG:  cpu time    3.2574: real time    3.2844
  RMM-DIIS:  cpu time   12.9311: real time   13.0294
    ORTHCH:  cpu time    0.4028: real time    0.4044
       DOS:  cpu time    0.0010: real time    0.0010
    CHARGE:  cpu time    1.0135: real time    1.0231
    MIXING:  cpu time    0.0122: real time    0.0124
    --------------------------------------------
      LOOP:  cpu time   18.1913: real time   18.3331

 eigenvalue-minimisations  :  2962
 total energy-change (2. order) : 0.1512683E+02  (-0.2000910E+01)
 number of electron     293.0000001 magnetization       0.2769603
 augmentation part       12.1896782 magnetization       0.2907966

 Broyden mixing:
  rms(total) = 0.11541E+01    rms(broyden)= 0.11539E+01
  rms(prec ) = 0.13001E+01
  weight for this iteration     100.00

 eigenvalues of (default mixing * dielectric matrix)
  average eigenvalue GAMMA=   0.9146
  2.2193  0.7363  0.3515  0.3515

 Free energy of the ion-electron system (eV)
  ---------------------------------------------------
  alpha Z        PSCENC =       156.95040625
  Ewald energy   TEWEN  =     30375.91956908
  -Hartree energ DENC   =    -40439.80179668
  -exchange      EXHF   =         0.00000000
  -V(xc)+E(xc)   XCENC  =      1020.34520232
  PAW double counting   =     27771.20173276   -27873.46813071
  entropy T*S    EENTRO =        -0.00600747
  eigenvalues    EBANDS =     -3724.08075265
  atomic energy  EATOM  =     12065.75791449
  Solvation  Ediel_sol  =         0.00000000
  ---------------------------------------------------
  free energy    TOTEN  =      -647.18186262 eV

  energy without entropy =     -647.17585515  energy(sigma->0) =     -647.17885889


--------------------------------------------------------------------------------------------------------




--------------------------------------- Iteration      1(  10)  ---------------------------------------


    POTLOK:  cpu time    0.5283: real time    0.5337
    SETDIJ:  cpu time    0.0142: real time    0.0152
    EDDIAG:  cpu time    3.1686: real time    3.1934
  RMM-DIIS:  cpu time   13.0670: real time   13.1837
    ORTHCH:  cpu time    0.3944: real time    0.4019
       DOS:  cpu time    0.0009: real time    0.0009
    CHARGE:  cpu time    0.9941: real time    1.0061
    MIXING:  cpu time    0.0121: real time    0.0122
    --------------------------------------------
      LOOP:  cpu time   18.1797: real time   18.3471

 eigenvalue-minimisations  :  2991
 total energy-change (2. order) :-0.4215252E+00  (-0.3049992E+00)
 number of electron     293.0000004 magnetization       0.2221475
 augmentation part       13.7701298 magnetization       0.2441590

 Broyden mixing:
  rms(total) = 0.14468E+01    rms(broyden)= 0.14464E+01
  rms(prec ) = 0.18054E+01
  weight for this iteration     100.00

 eigenvalues of (default mixing * dielectric matrix)
  average eigenvalue GAMMA=   0.9169
  2.3376  1.0675  0.3480  0.3480  0.4837

 Free energy of the ion-electron system (eV)
  ---------------------------------------------------
  alpha Z        PSCENC =       156.95040625
  Ewald energy   TEWEN  =     30375.91956908
  -Hartree energ DENC   =    -40485.03811525
  -exchange      EXHF   =         0.00000000
  -V(xc)+E(xc)   XCENC  =      1021.36856402
  PAW double counting   =     29326.56385862   -29427.74196888
  entropy T*S    EENTRO =        -0.00237728
  eigenvalues    EBANDS =     -3681.38123888
  atomic energy  EATOM  =     12065.75791449
  Solvation  Ediel_sol  =         0.00000000
  ---------------------------------------------------
  free energy    TOTEN  =      -647.60338782 eV

  energy without entropy =     -647.60101055  energy(sigma->0) =     -647.60219918


--------------------------------------------------------------------------------------------------------




--------------------------------------- Iteration      1(  11)  ---------------------------------------


    POTLOK:  cpu time    0.4574: real time    0.4617
    SETDIJ:  cpu time    0.0150: real time    0.0151
    EDDIAG:  cpu time    3.2869: real time    3.3219
  RMM-DIIS:  cpu time   13.6111: real time   13.7177
    ORTHCH:  cpu time    0.3561: real time    0.3576
       DOS:  cpu time    0.0010: real time    0.0010
    CHARGE:  cpu time    1.0245: real time    1.0343
    MIXING:  cpu time    0.0111: real time    0.0114
    --------------------------------------------
      LOOP:  cpu time   18.7631: real time   18.9207

 eigenvalue-minimisations  :  3124
 total energy-change (2. order) : 0.1030035E+01  (-0.4293072E-01)
 number of electron     293.0000002 magnetization       0.1516958
 augmentation part       12.5046200 magnetization       0.1327098

 Broyden mixing:
  rms(total) = 0.77897E+00    rms(broyden)= 0.77839E+00
  rms(prec ) = 0.83558E+00
  weight for this iteration     100.00

 eigenvalues of (default mixing * dielectric matrix)
  average eigenvalue GAMMA=   0.9774
  2.0752  2.0752  0.6611  0.3457  0.3457  0.3613

 Free energy of the ion-electron system (eV)
  ---------------------------------------------------
  alpha Z        PSCENC =       156.95040625
  Ewald energy   TEWEN  =     30375.91956908
  -Hartree energ DENC   =    -40518.21252236
  -exchange      EXHF   =         0.00000000
  -V(xc)+E(xc)   XCENC  =      1021.80869378
  PAW double counting   =     29980.45034958   -30080.97763613
  entropy T*S    EENTRO =        -0.02675603
  eigenvalues    EBANDS =     -3648.24337101
  atomic energy  EATOM  =     12065.75791449
  Solvation  Ediel_sol  =         0.00000000
  ---------------------------------------------------
  free energy    TOTEN  =      -646.57335235 eV

  energy without entropy =     -646.54659632  energy(sigma->0) =     -646.55997433


--------------------------------------------------------------------------------------------------------




--------------------------------------- Iteration      1(  12)  ---------------------------------------


    POTLOK:  cpu time    0.5506: real time    0.5552
    SETDIJ:  cpu time    0.0149: real time    0.0150
    EDDIAG:  cpu time    3.2415: real time    3.2666
  RMM-DIIS:  cpu time   12.8439: real time   12.9418
    ORTHCH:  cpu time    0.3458: real time    0.3465
       DOS:  cpu time    0.0010: real time    0.0010
    CHARGE:  cpu time    1.0192: real time    1.0286
    MIXING:  cpu time    0.0127: real time    0.0131
    --------------------------------------------
      LOOP:  cpu time   18.0296: real time   18.1677

 eigenvalue-minimisations  :  2944
 total energy-change (2. order) : 0.1642723E+00  (-0.1669584E-01)
 number of electron     293.0000002 magnetization       0.1710680
 augmentation part       12.8511624 magnetization      -0.1666823

 Broyden mixing:
  rms(total) = 0.60280E+00    rms(broyden)= 0.60257E+00
  rms(prec ) = 0.61806E+00
  weight for this iteration     100.00

 eigenvalues of (default mixing * dielectric matrix)
  average eigenvalue GAMMA=   0.8670
  2.1274  2.1274  0.5786  0.3470  0.3470  0.3685  0.1733

 Free energy of the ion-electron system (eV)
  ---------------------------------------------------
  alpha Z        PSCENC =       156.95040625
  Ewald energy   TEWEN  =     30375.91956908
  -Hartree energ DENC   =    -40545.16230622
  -exchange      EXHF   =         0.00000000
  -V(xc)+E(xc)   XCENC  =      1021.38913767
  PAW double counting   =     30444.48283500   -30543.44042831
  entropy T*S    EENTRO =        -0.05705638
  eigenvalues    EBANDS =     -3622.24915158
  atomic energy  EATOM  =     12065.75791449
  Solvation  Ediel_sol  =         0.00000000
  ---------------------------------------------------
  free energy    TOTEN  =      -646.40908001 eV

  energy without entropy =     -646.35202363  energy(sigma->0) =     -646.38055182


--------------------------------------------------------------------------------------------------------




--------------------------------------- Iteration      1(  13)  ---------------------------------------


    POTLOK:  cpu time    0.5198: real time    0.5295
    SETDIJ:  cpu time    0.0158: real time    0.0159
    EDDIAG:  cpu time    3.2745: real time    3.3064
  RMM-DIIS:  cpu time   13.0432: real time   13.1395
    ORTHCH:  cpu time    0.5413: real time    0.5489
       DOS:  cpu time    0.0010: real time    0.0010
    CHARGE:  cpu time    1.0086: real time    1.0220
    MIXING:  cpu time    0.0115: real time    0.0116
    --------------------------------------------
      LOOP:  cpu time   18.4157: real time   18.5749

 eigenvalue-minimisations  :  2996
 total energy-change (2. order) :-0.9857442E-01  (-0.2628773E-02)
 number of electron     293.0000002 magnetization       0.0875063
 augmentation part       12.9309733 magnetization      -0.3880667

 Broyden mixing:
  rms(total) = 0.71568E+00    rms(broyden)= 0.71562E+00
  rms(prec ) = 0.74094E+00
  weight for this iteration     100.00

 eigenvalues of (default mixing * dielectric matrix)
  average eigenvalue GAMMA=   0.8747
  2.1955  2.1955  0.6985  0.3460  0.3460  0.5510  0.3455  0.3194

 Free energy of the ion-electron system (eV)
  ---------------------------------------------------
  alpha Z        PSCENC =       156.95040625
  Ewald energy   TEWEN  =     30375.91956908
  -Hartree energ DENC   =    -40547.77247799
  -exchange      EXHF   =         0.00000000
  -V(xc)+E(xc)   XCENC  =      1021.41247990
  PAW double counting   =     30452.14547800   -30551.00953168
  entropy T*S    EENTRO =        -0.02921247
  eigenvalues    EBANDS =     -3619.88228000
  atomic energy  EATOM  =     12065.75791449
  Solvation  Ediel_sol  =         0.00000000
  ---------------------------------------------------
  free energy    TOTEN  =      -646.50765443 eV

  energy without entropy =     -646.47844196  energy(sigma->0) =     -646.49304819


--------------------------------------------------------------------------------------------------------




--------------------------------------- Iteration      1(  14)  ---------------------------------------


    POTLOK:  cpu time    0.5265: real time    0.5309
    SETDIJ:  cpu time    0.0148: real time    0.0149
    EDDIAG:  cpu time    3.2235: real time    3.2484
  RMM-DIIS:  cpu time   13.0449: real time   13.1653
    ORTHCH:  cpu time    0.5255: real time    0.5278
       DOS:  cpu time    0.0010: real time    0.0010
    CHARGE:  cpu time    0.9860: real time    0.9957
    MIXING:  cpu time    0.0130: real time    0.0130
    --------------------------------------------
      LOOP:  cpu time   18.3351: real time   18.4971

 eigenvalue-minimisations  :  2978
 total energy-change (2. order) : 0.1495077E+00  (-0.2594847E-02)
 number of electron     293.0000003 magnetization       0.0788349
 augmentation part       13.0144167 magnetization      -0.3073236

 Broyden mixing:
  rms(total) = 0.72490E+00    rms(broyden)= 0.72489E+00
  rms(prec ) = 0.77171E+00
  weight for this iteration     100.00

 eigenvalues of (default mixing * dielectric matrix)
  average eigenvalue GAMMA=   0.8294
  2.2283  2.2283  0.7018  0.3458  0.3458  0.5334  0.3480  0.3665  0.3665

 Free energy of the ion-electron system (eV)
  ---------------------------------------------------
  alpha Z        PSCENC =       156.95040625
  Ewald energy   TEWEN  =     30375.91956908
  -Hartree energ DENC   =    -40552.44303904
  -exchange      EXHF   =         0.00000000
  -V(xc)+E(xc)   XCENC  =      1021.45928072
  PAW double counting   =     30529.89859504   -30628.66232308
  entropy T*S    EENTRO =        -0.05162196
  eigenvalues    EBANDS =     -3615.18692819
  atomic energy  EATOM  =     12065.75791449
  Solvation  Ediel_sol  =         0.00000000
  ---------------------------------------------------
  free energy    TOTEN  =      -646.35814669 eV

  energy without entropy =     -646.30652473  energy(sigma->0) =     -646.33233571


--------------------------------------------------------------------------------------------------------




--------------------------------------- Iteration      1(  15)  ---------------------------------------


    POTLOK:  cpu time    0.5301: real time    0.5341
    SETDIJ:  cpu time    0.0155: real time    0.0157
    EDDIAG:  cpu time    3.2358: real time    3.2615
  RMM-DIIS:  cpu time   14.6251: real time   14.7368
    ORTHCH:  cpu time    0.4306: real time    0.4323
       DOS:  cpu time    0.0010: real time    0.0010
    CHARGE:  cpu time    0.9882: real time    0.9969
    MIXING:  cpu time    0.0131: real time    0.0134
    --------------------------------------------
      LOOP:  cpu time   19.8395: real time   19.9916

 eigenvalue-minimisations  :  3313
 total energy-change (2. order) :-0.1037855E-02  (-0.3452377E-03)
 number of electron     293.0000003 magnetization       0.0856928
 augmentation part       13.0144028 magnetization      -0.2117250

 Broyden mixing:
  rms(total) = 0.65247E+00    rms(broyden)= 0.65246E+00
  rms(prec ) = 0.70417E+00
  weight for this iteration     100.00

 eigenvalues of (default mixing * dielectric matrix)
  average eigenvalue GAMMA=   0.7929
  2.2110  2.2110  0.7073  0.5537  0.3463  0.3463  0.3438  0.4349  0.4349  0.3396

 Free energy of the ion-electron system (eV)
  ---------------------------------------------------
  alpha Z        PSCENC =       156.95040625
  Ewald energy   TEWEN  =     30375.91956908
  -Hartree energ DENC   =    -40552.82694395
  -exchange      EXHF   =         0.00000000
  -V(xc)+E(xc)   XCENC  =      1021.46355566
  PAW double counting   =     30529.57766040   -30628.36001775
  entropy T*S    EENTRO =        -0.06392857
  eigenvalues    EBANDS =     -3614.77740014
  atomic energy  EATOM  =     12065.75791449
  Solvation  Ediel_sol  =         0.00000000
  ---------------------------------------------------
  free energy    TOTEN  =      -646.35918455 eV

  energy without entropy =     -646.29525597  energy(sigma->0) =     -646.32722026


--------------------------------------------------------------------------------------------------------




--------------------------------------- Iteration      1(  16)  ---------------------------------------


    POTLOK:  cpu time    0.5506: real time    0.5551
    SETDIJ:  cpu time    0.0143: real time    0.0148
    EDDIAG:  cpu time    3.2279: real time    3.2547
  RMM-DIIS:  cpu time   12.7486: real time   12.8493
    ORTHCH:  cpu time    0.4018: real time    0.4026
       DOS:  cpu time    0.0009: real time    0.0009
    CHARGE:  cpu time    1.0711: real time    1.0835
    MIXING:  cpu time    0.0126: real time    0.0129
    --------------------------------------------
      LOOP:  cpu time   18.0279: real time   18.1739

 eigenvalue-minimisations  :  2945
 total energy-change (2. order) :-0.5339246E-01  (-0.1556103E-02)
 number of electron     293.0000003 magnetization       0.0802146
 augmentation part       12.9911733 magnetization      -0.3084828

 Broyden mixing:
  rms(total) = 0.68757E+00    rms(broyden)= 0.68755E+00
  rms(prec ) = 0.73060E+00
  weight for this iteration     100.00

 eigenvalues of (default mixing * dielectric matrix)
  average eigenvalue GAMMA=   0.7617
  2.2107  2.2107  0.3699  0.5833  0.5833  0.7161  0.3459  0.3459  0.5243  0.3471
  0.1421

 Free energy of the ion-electron system (eV)
  ---------------------------------------------------
  alpha Z        PSCENC =       156.95040625
  Ewald energy   TEWEN  =     30375.91956908
  -Hartree energ DENC   =    -40566.83446590
  -exchange      EXHF   =         0.00000000
  -V(xc)+E(xc)   XCENC  =      1021.69643156
  PAW double counting   =     30488.73950176   -30587.55987957
  entropy T*S    EENTRO =        -0.03787327
  eigenvalues    EBANDS =     -3601.04418141
  atomic energy  EATOM  =     12065.75791449
  Solvation  Ediel_sol  =         0.00000000
  ---------------------------------------------------
  free energy    TOTEN  =      -646.41257700 eV

  energy without entropy =     -646.37470374  energy(sigma->0) =     -646.39364037


--------------------------------------------------------------------------------------------------------




--------------------------------------- Iteration      1(  17)  ---------------------------------------


    POTLOK:  cpu time    0.5242: real time    0.5346
    SETDIJ:  cpu time    0.0152: real time    0.0153
    EDDIAG:  cpu time    3.2001: real time    3.2244
  RMM-DIIS:  cpu time   12.9209: real time   13.0252
    ORTHCH:  cpu time    0.4429: real time    0.4443
       DOS:  cpu time    0.0010: real time    0.0010
    CHARGE:  cpu time    1.0032: real time    1.0131
    MIXING:  cpu time    0.0141: real time    0.0141
    --------------------------------------------
      LOOP:  cpu time   18.1216: real time   18.2720

 eigenvalue-minimisations  :  2959
 total energy-change (2. order) :-0.3262165E-01  (-0.8251741E-02)
 number of electron     293.0000002 magnetization       0.1125304
 augmentation part       12.7799761 magnetization      -0.2313005

 Broyden mixing:
  rms(total) = 0.41618E+00    rms(broyden)= 0.41612E+00
  rms(prec ) = 0.42224E+00
  weight for this iteration     100.00

 eigenvalues of (default mixing * dielectric matrix)
  average eigenvalue GAMMA=   0.8762
  2.2113  2.2113  1.3126  1.3126  0.4018  0.7304  0.5883  0.3450  0.3450  0.3861
  0.3861  0.2844

 Free energy of the ion-electron system (eV)
  ---------------------------------------------------
  alpha Z        PSCENC =       156.95040625
  Ewald energy   TEWEN  =     30375.91956908
  -Hartree energ DENC   =    -40597.51993203
  -exchange      EXHF   =         0.00000000
  -V(xc)+E(xc)   XCENC  =      1022.08398251
  PAW double counting   =     30397.17854648   -30495.89456751
  entropy T*S    EENTRO =        -0.03092563
  eigenvalues    EBANDS =     -3570.89019229
  atomic energy  EATOM  =     12065.75791449
  Solvation  Ediel_sol  =         0.00000000
  ---------------------------------------------------
  free energy    TOTEN  =      -646.44519865 eV

  energy without entropy =     -646.41427303  energy(sigma->0) =     -646.42973584


--------------------------------------------------------------------------------------------------------




--------------------------------------- Iteration      1(  18)  ---------------------------------------


    POTLOK:  cpu time    0.5302: real time    0.5348
    SETDIJ:  cpu time    0.0151: real time    0.0151
    EDDIAG:  cpu time    3.2397: real time    3.2647
  RMM-DIIS:  cpu time   12.9683: real time   13.0701
    ORTHCH:  cpu time    0.5010: real time    0.5030
       DOS:  cpu time    0.0009: real time    0.0009
    CHARGE:  cpu time    0.9898: real time    1.0022
    MIXING:  cpu time    0.0130: real time    0.0132
    --------------------------------------------
      LOOP:  cpu time   18.2580: real time   18.4041

 eigenvalue-minimisations  :  2974
 total energy-change (2. order) :-0.8019649E-01  (-0.7550675E-02)
 number of electron     293.0000002 magnetization       0.0975770
 augmentation part       12.8544827 magnetization      -0.2672824

 Broyden mixing:
  rms(total) = 0.33758E+00    rms(broyden)= 0.33757E+00
  rms(prec ) = 0.35837E+00
  weight for this iteration     100.00

 eigenvalues of (default mixing * dielectric matrix)
  average eigenvalue GAMMA=   0.8717
  2.2635  2.2635  1.3814  1.3814  0.4045  0.7678  0.6015  0.3451  0.3451  0.4778
  0.4778  0.3598  0.2623

 Free energy of the ion-electron system (eV)
  ---------------------------------------------------
  alpha Z        PSCENC =       156.95040625
  Ewald energy   TEWEN  =     30375.91956908
  -Hartree energ DENC   =    -40623.81535167
  -exchange      EXHF   =         0.00000000
  -V(xc)+E(xc)   XCENC  =      1022.39656953
  PAW double counting   =     30333.64411535   -30432.22681470
  entropy T*S    EENTRO =        -0.02306351
  eigenvalues    EBANDS =     -3545.12873997
  atomic energy  EATOM  =     12065.75791449
  Solvation  Ediel_sol  =         0.00000000
  ---------------------------------------------------
  free energy    TOTEN  =      -646.52539514 eV

  energy without entropy =     -646.50233163  energy(sigma->0) =     -646.51386339


--------------------------------------------------------------------------------------------------------




--------------------------------------- Iteration      1(  19)  ---------------------------------------


    POTLOK:  cpu time    0.4325: real time    0.4366
    SETDIJ:  cpu time    0.0153: real time    0.0153
    EDDIAG:  cpu time    3.2484: real time    3.2741
  RMM-DIIS:  cpu time   14.3189: real time   14.4324
    ORTHCH:  cpu time    0.3325: real time    0.3335
       DOS:  cpu time    0.0009: real time    0.0009
    CHARGE:  cpu time    0.9905: real time    1.0049
    MIXING:  cpu time    0.0149: real time    0.0150
    --------------------------------------------
      LOOP:  cpu time   19.3538: real time   19.5126

 eigenvalue-minimisations  :  3295
 total energy-change (2. order) : 0.1564285E-01  (-0.1727834E-02)
 number of electron     293.0000002 magnetization       0.0976945
 augmentation part       12.7954910 magnetization      -0.2644008

 Broyden mixing:
  rms(total) = 0.30214E+00    rms(broyden)= 0.30213E+00
  rms(prec ) = 0.30961E+00
  weight for this iteration     100.00

 eigenvalues of (default mixing * dielectric matrix)
  average eigenvalue GAMMA=   0.8429
  2.2740  2.2740  1.3293  1.3293  0.4707  0.4112  0.7986  0.6523  0.3451  0.3451
  0.4672  0.4672  0.3688  0.2674

 Free energy of the ion-electron system (eV)
  ---------------------------------------------------
  alpha Z        PSCENC =       156.95040625
  Ewald energy   TEWEN  =     30375.91956908
  -Hartree energ DENC   =    -40631.96958385
  -exchange      EXHF   =         0.00000000
  -V(xc)+E(xc)   XCENC  =      1022.44791715
  PAW double counting   =     30340.23586234   -30438.75372318
  entropy T*S    EENTRO =        -0.02751933
  eigenvalues    EBANDS =     -3537.07059523
  atomic energy  EATOM  =     12065.75791449
  Solvation  Ediel_sol  =         0.00000000
  ---------------------------------------------------
  free energy    TOTEN  =      -646.50975229 eV

  energy without entropy =     -646.48223296  energy(sigma->0) =     -646.49599262


--------------------------------------------------------------------------------------------------------




--------------------------------------- Iteration      1(  20)  ---------------------------------------


    POTLOK:  cpu time    0.5252: real time    0.5293
    SETDIJ:  cpu time    0.0150: real time    0.0150
    EDDIAG:  cpu time    3.2243: real time    3.2489
  RMM-DIIS:  cpu time   13.7889: real time   13.9012
    ORTHCH:  cpu time    0.3828: real time    0.3842
       DOS:  cpu time    0.0011: real time    0.0010
    CHARGE:  cpu time    0.9862: real time    0.9949
    MIXING:  cpu time    0.0153: real time    0.0154
    --------------------------------------------
      LOOP:  cpu time   18.9387: real time   19.0899

 eigenvalue-minimisations  :  3140
 total energy-change (2. order) :-0.1686217E-02  (-0.2361416E-03)
 number of electron     293.0000002 magnetization       0.0892893
 augmentation part       12.7948464 magnetization      -0.2725249

 Broyden mixing:
  rms(total) = 0.30311E+00    rms(broyden)= 0.30311E+00
  rms(prec ) = 0.31054E+00
  weight for this iteration     100.00

 eigenvalues of (default mixing * dielectric matrix)
  average eigenvalue GAMMA=   0.8390
  2.4671  2.4671  1.7439  0.4052  0.8081  0.8081  0.7722  0.7722  0.3452  0.3452
  0.4471  0.3886  0.3886  0.2718  0.1546

 Free energy of the ion-electron system (eV)
  ---------------------------------------------------
  alpha Z        PSCENC =       156.95040625
  Ewald energy   TEWEN  =     30375.91956908
  -Hartree energ DENC   =    -40632.10570578
  -exchange      EXHF   =         0.00000000
  -V(xc)+E(xc)   XCENC  =      1022.44759843
  PAW double counting   =     30340.27182066   -30438.78771212
  entropy T*S    EENTRO =        -0.02760040
  eigenvalues    EBANDS =     -3536.93772912
  atomic energy  EATOM  =     12065.75791449
  Solvation  Ediel_sol  =         0.00000000
  ---------------------------------------------------
  free energy    TOTEN  =      -646.51143850 eV

  energy without entropy =     -646.48383811  energy(sigma->0) =     -646.49763831


[...]
  E(xc)   -1110.98697 -1110.65802 -1150.09659     0.01068    -0.00106    -0.00306
  Local  -83738.24523-83715.30051 86065.45798   -10.89410     5.82745     6.41096
  n-local  -289.50696  -286.83015  -269.82210    -0.14532    -0.03292    -0.00400
  augment    66.62791    64.94713    65.48801    -0.04272     0.02749     0.08368
  Kinetic  4383.07312  4370.16953  4985.16869    -0.28050     0.23910     0.29416
  Fock        0.00000     0.00000     0.00000     0.00000     0.00000     0.00000
  vdW        -1.53517    -1.68475    -0.04172     0.00246     0.00024     0.00430
  -------------------------------------------------------------------------------------
  Total      -0.43106    -0.53625    -0.78302     0.07014     0.01172    -0.01438
  in kB      -0.24288    -0.30215    -0.44120     0.03952     0.00660    -0.00810
  external pressure =       -0.33 kB  Pullay stress =        0.00 kB


 VOLUME and BASIS-vectors are now :
 -----------------------------------------------------------------------------
  energy-cutoff  :      550.00
  volume of cell :     2843.50
      direct lattice vectors                 reciprocal lattice vectors
    14.861160630 -0.003892508  0.000000000     0.067299762  0.039197741  0.000000000
    -7.430580315 12.757783281  0.000000000     0.000020534  0.078395483  0.000000000
     0.000000000  0.000000000 15.000000000     0.000000000  0.000000000  0.066666667

  length of vectors
    14.861161140 14.763961463 15.000000000     0.077882738  0.078395485  0.066666667


 FORCES acting on ions
    electron-ion (+dipol)            ewald-force                    non-local-force                 convergence-correction
 -----------------------------------------------------------------------------------------------
   0.619E+01 -.102E+02 0.790E+01   -.730E+01 0.111E+02 -.794E+01   0.112E+01 -.896E+00 0.314E-01   0.390E-03 -.252E-02 -.389E-04
   0.103E+01 -.278E+01 0.769E+01   -.973E+00 0.348E+01 -.772E+01   -.629E-01 -.709E+00 0.278E-01   0.215E-02 -.140E-02 -.616E-04
   -.453E+01 -.954E+01 0.734E+01   0.556E+01 0.106E+02 -.735E+01   -.104E+01 -.107E+01 0.187E-01   -.776E-03 -.886E-03 0.708E-04
   -.457E+01 -.246E+01 0.755E+01   0.465E+01 0.321E+01 -.754E+01   -.686E-01 -.751E+00 -.333E-02   -.147E-02 -.751E-03 0.416E-04
   -.381E+01 -.213E+01 0.661E+01   0.423E+01 0.248E+01 -.663E+01   -.416E+00 -.344E+00 0.201E-01   -.325E-02 -.172E-02 -.256E-03
   0.411E+00 -.319E+00 0.695E+01   -.366E+00 0.580E+00 -.695E+01   -.484E-01 -.279E+00 -.213E-02   -.292E-02 0.131E-04 -.210E-03
   -.248E+01 -.323E+00 0.766E+01   0.265E+01 0.301E+00 -.768E+01   -.177E+00 0.252E-01 0.237E-01   -.693E-03 -.145E-02 -.129E-03
   0.160E+01 -.521E+00 0.782E+01   -.164E+01 0.577E+00 -.784E+01   0.336E-01 -.603E-01 0.224E-01   -.973E-03 0.101E-03 -.138E-03
   -.170E+01 -.840E+00 0.758E+01   0.165E+01 0.755E+00 -.759E+01   0.610E-01 0.805E-01 0.960E-02   0.141E-02 -.218E-02 -.332E-04
   0.505E+00 -.772E+00 0.733E+01   -.540E+00 0.676E+00 -.736E+01   0.338E-01 0.953E-01 0.253E-01   0.774E-03 -.122E-02 -.121E-03
   0.573E+01 -.280E+01 0.698E+01   -.623E+01 0.293E+01 -.698E+01   0.486E+00 -.117E+00 0.171E-02   0.296E-02 -.369E-02 -.264E-03
   0.183E+01 -.113E+01 0.655E+01   -.193E+01 0.117E+01 -.657E+01   0.105E+00 -.596E-01 0.183E-01   0.243E-02 -.201E-02 -.309E-03
   0.143E+01 0.218E+01 0.682E+01   -.159E+01 -.205E+01 -.683E+01   0.165E+00 -.131E+00 0.705E-02   0.193E-02 -.146E-02 -.255E-03
   0.234E+01 0.250E+01 0.644E+01   -.231E+01 -.241E+01 -.646E+01   -.254E-01 -.643E-01 0.178E-01   0.157E-02 -.185E-02 -.262E-03
   0.166E+01 0.661E-01 0.877E+01   -.160E+01 0.379E+00 -.878E+01   -.694E-01 -.475E+00 0.189E-01   0.518E-03 -.129E-02 0.985E-04
   -.183E+01 0.636E+01 0.102E+02   0.232E+01 -.591E+01 -.103E+02   -.504E+00 -.458E+00 0.927E-01   0.913E-03 -.183E-02 0.140E-03
   0.152E+00 0.438E+01 0.730E+01   -.153E-02 -.381E+01 -.732E+01   -.148E+00 -.591E+00 0.196E-01   -.129E-02 -.620E-04 -.140E-03
   -.519E+00 0.639E+01 0.623E+01   0.563E+00 -.562E+01 -.585E+01   -.355E-01 -.779E+00 -.383E+00   -.100E-02 -.122E-02 -.253E-03
   -.315E+01 0.417E+01 0.833E+01   0.314E+01 -.396E+01 -.835E+01   0.264E-03 -.224E+00 0.187E-01   -.198E-02 0.993E-03 -.148E-03
   0.143E+01 0.722E+01 0.976E+01   -.195E+01 -.695E+01 -.985E+01   0.521E+00 -.277E+00 0.892E-01   -.157E-02 0.828E-03 -.148E-03
   -.179E+01 0.369E+01 0.779E+01   0.181E+01 -.374E+01 -.779E+01   -.182E-01 0.506E-01 0.792E-02   -.754E-03 -.141E-04 -.900E-04
   -.154E+01 0.395E+01 0.799E+01   0.148E+01 -.400E+01 -.802E+01   0.527E-01 0.645E-01 0.310E-01   -.938E-03 0.155E-02 -.575E-04
   0.992E+00 0.204E+01 0.598E+01   -.107E+01 -.203E+01 -.597E+01   0.801E-01 -.158E-01 -.150E-01   0.163E-02 -.783E-03 -.280E-03
   0.927E+00 0.249E+01 0.598E+01   -.891E+00 -.250E+01 -.600E+01   -.217E-01 0.261E-01 0.221E-01   0.957E-03 0.394E-03 -.364E-03
   0.851E+00 0.246E+01 0.516E+01   -.816E+00 -.249E+01 -.514E+01   -.281E-01 0.465E-01 -.226E-01   0.309E-03 -.108E-03 -.445E-03
   0.347E+01 0.541E+01 0.553E+01   -.332E+01 -.550E+01 -.556E+01   -.118E+00 0.761E-01 0.288E-01   -.472E-03 0.207E-02 -.410E-03
   0.454E+01 0.910E+01 0.697E+01   -.434E+01 -.908E+01 -.693E+01   -.199E+00 -.267E-01 -.306E-01   0.240E-02 -.157E-02 0.627E-04
   0.121E+02 0.664E+01 0.588E+01   -.119E+02 -.652E+01 -.599E+01   -.293E+00 -.122E+00 0.119E+00   0.207E-02 0.106E-02 0.172E-03
   -.179E+01 0.175E+02 0.124E+02   0.207E+01 -.165E+02 -.126E+02   -.305E+00 -.103E+01 0.230E+00   -.179E-03 -.935E-03 0.328E-04
   -.757E+01 0.346E+02 0.260E+02   0.137E+02 -.311E+02 -.251E+02   -.617E+01 -.356E+01 -.907E+00   0.714E-04 0.553E-04 -.873E-04
   0.154E+01 0.169E+02 0.112E+02   -.179E+01 -.159E+02 -.115E+02   0.253E+00 -.981E+00 0.224E+00   -.504E-03 -.398E-03 -.372E-03
   0.780E+01 0.356E+02 0.237E+02   -.141E+02 -.320E+02 -.227E+02   0.627E+01 -.355E+01 -.906E+00   0.355E-03 0.182E-02 -.319E-03
   -.414E+01 0.106E+02 0.792E+01   0.389E+01 -.107E+02 -.788E+01   0.248E+00 0.140E+00 -.321E-01   -.134E-02 0.195E-02 -.151E-04
   -.111E+02 0.882E+01 0.756E+01   0.108E+02 -.885E+01 -.768E+01   0.390E+00 0.265E-01 0.113E+00   -.707E-03 0.344E-02 -.378E-04
   -.178E+01 0.422E+01 0.658E+01   0.174E+01 -.433E+01 -.656E+01   0.328E-01 0.132E+00 -.184E-01   -.480E-03 0.191E-02 -.194E-03
   -.348E+01 0.616E+01 0.743E+01   0.350E+01 -.633E+01 -.746E+01   -.305E-01 0.181E+00 0.362E-01   -.128E-02 0.280E-02 -.184E-03
   -.150E+01 0.147E+01 0.621E+01   0.158E+01 -.165E+01 -.623E+01   -.862E-01 0.194E+00 0.126E-01   -.577E-03 0.230E-02 -.409E-03
   -.731E+00 0.307E+01 0.628E+01   0.128E+01 -.342E+01 -.629E+01   -.546E+00 0.337E+00 0.109E-01   -.923E-03 0.240E-02 -.350E-03
   0.417E+01 0.136E+01 0.403E+01   -.406E+01 -.140E+01 -.399E+01   -.121E+00 0.643E-01 -.371E-01   -.813E-04 0.233E-02 -.949E-04
   0.427E+01 -.284E+00 0.402E+01   -.402E+01 0.189E+00 -.399E+01   -.236E+00 0.840E-01 -.375E-01   -.989E-03 0.965E-03 -.100E-03
   0.247E+02 0.850E+01 0.139E+02   -.238E+02 -.895E+01 -.144E+02   -.823E+00 0.455E+00 0.575E+00   0.710E-03 0.646E-04 0.137E-03
   0.251E+02 -.880E+01 0.139E+02   -.242E+02 0.924E+01 -.145E+02   -.867E+00 -.440E+00 0.544E+00   0.848E-03 -.323E-03 0.286E-04
   -.232E+02 0.918E+01 0.129E+02   0.221E+02 -.979E+01 -.134E+02   0.101E+01 0.641E+00 0.492E+00   0.110E-02 0.191E-02 -.269E-03
   -.231E+02 -.460E+01 0.127E+02   0.216E+02 0.469E+01 -.131E+02   0.149E+01 -.111E+00 0.419E+00   0.182E-02 0.286E-02 -.886E-04
   -.511E+01 0.477E+01 0.687E+01   0.500E+01 -.525E+01 -.686E+01   0.102E+00 0.486E+00 -.164E-01   -.143E-02 0.366E-02 0.121E-04
   -.485E+01 0.778E+01 0.699E+01   0.478E+01 -.863E+01 -.697E+01   0.738E-01 0.846E+00 -.206E-01   -.131E-02 0.194E-02 0.429E-04
   -.103E+02 0.464E+01 0.752E+01   0.105E+02 -.600E+01 -.756E+01   -.248E+00 0.136E+01 0.400E-01   -.196E-02 0.137E-02 -.836E-04
   -.247E+02 0.988E+01 0.656E+01   0.300E+02 -.130E+02 -.656E+01   -.535E+01 0.308E+01 -.576E-02   -.190E-02 0.138E-03 0.335E-04
   -.638E+00 -.235E+01 0.545E+01   0.932E+00 0.221E+01 -.548E+01   -.307E+00 0.154E+00 0.218E-01   -.117E-02 0.103E-02 -.303E-03
   -.198E+01 -.358E+01 0.517E+01   0.261E+01 0.331E+01 -.515E+01   -.612E+00 0.277E+00 -.290E-01   -.206E-02 -.378E-03 -.293E-03
   0.107E+02 -.632E+01 0.596E+01   -.104E+02 0.622E+01 -.608E+01   -.327E+00 0.112E+00 0.118E+00   -.631E-03 -.368E-03 0.447E-04
   0.364E+01 -.104E+02 0.704E+01   -.329E+01 0.104E+02 -.700E+01   -.330E+00 -.970E-02 -.308E-01   -.792E-03 -.479E-03 0.493E-04
   -.749E+01 -.345E+02 0.263E+02   0.137E+02 0.309E+02 -.254E+02   -.620E+01 0.358E+01 -.824E+00   0.113E-02 -.359E-04 -.269E-03
   -.543E+00 -.185E+02 0.122E+02   0.712E+00 0.175E+02 -.124E+02   -.195E+00 0.100E+01 0.232E+00   0.206E-02 -.914E-03 0.893E-04
   0.119E+02 -.316E+02 0.222E+02   -.185E+02 0.277E+02 -.212E+02   0.660E+01 0.386E+01 -.951E+00   0.313E-02 0.216E-02 -.135E-03
   0.502E+01 -.186E+02 0.111E+02   -.585E+01 0.172E+02 -.112E+02   0.850E+00 0.136E+01 0.166E+00   0.308E-02 0.582E-03 0.451E-05
   -.502E+01 0.240E+01 0.738E+01   0.442E+01 -.394E+01 -.749E+01   0.609E+00 0.153E+01 0.106E+00   -.167E-03 0.129E-02 0.903E-04
   0.191E+02 0.348E+01 0.723E+01   -.246E+02 -.666E+01 -.704E+01   0.552E+01 0.318E+01 -.193E+00   -.155E-03 0.359E-03 0.158E-03
   -.224E+01 -.412E+01 0.966E+01   0.215E+01 0.401E+01 -.980E+01   0.876E-01 0.100E+00 0.152E+00   -.179E-02 -.382E-03 0.335E-03
   -.152E+01 -.307E+02 0.770E+01   0.148E+01 0.370E+02 -.773E+01   0.366E-01 -.625E+01 0.261E-01   -.913E-03 -.170E-02 0.158E-03
   -.107E+02 -.863E+00 0.602E+01   0.120E+02 0.131E+01 -.604E+01   -.134E+01 -.464E+00 0.187E-01   -.129E-02 0.157E-03 -.169E-03
   -.656E+01 -.662E+01 0.605E+01   0.729E+01 0.710E+01 -.604E+01   -.736E+00 -.484E+00 -.126E-01   -.133E-02 -.629E-03 -.132E-03
   -.399E+00 -.203E+01 0.642E+01   0.673E+00 0.210E+01 -.645E+01   -.271E+00 -.717E-01 0.192E-01   -.174E-02 -.534E-03 -.196E-03
   -.443E+00 -.501E+01 0.678E+01   0.606E+00 0.507E+01 -.679E+01   -.174E+00 -.586E-01 0.131E-02   -.238E-02 -.169E-02 -.242E-03
   -.216E+01 -.639E+01 0.101E+02   0.267E+01 0.614E+01 -.102E+02   -.506E+00 0.246E+00 0.964E-01   0.395E-03 -.608E-03 0.164E-03
   0.198E+01 -.497E+01 0.874E+01   -.192E+01 0.480E+01 -.876E+01   -.686E-01 0.178E+00 0.208E-01   0.430E-03 -.179E-02 0.671E-04
   0.142E+01 -.564E+01 0.601E+01   -.163E+01 0.497E+01 -.564E+01   0.213E+00 0.676E+00 -.374E+00   0.271E-02 -.574E-04 -.607E-04
   0.217E+01 -.729E+01 0.741E+01   -.234E+01 0.688E+01 -.744E+01   0.193E+00 0.435E+00 0.250E-01   0.304E-02 -.298E-02 -.114E-03
   0.125E+02 -.554E+01 0.101E+02   -.144E+02 0.564E+01 -.102E+02   0.193E+01 -.982E-01 0.917E-01   0.107E-02 -.379E-03 0.159E-04
   0.530E+01 -.836E+01 0.859E+01   -.609E+01 0.863E+01 -.862E+01   0.805E+00 -.257E+00 0.212E-01   0.107E-02 -.247E-02 -.167E-03
   0.371E+00 0.446E+00 -.629E+03   -.960E-01 -.554E+00 0.611E+03   -.308E+00 0.120E+00 0.181E+02   0.716E-02 0.166E-03 -.318E-02
 -----------------------------------------------------------------------------------------------
   0.603E-01 -.474E+00 -.178E+02   0.106E-13 0.121E-12 0.114E-12   -.657E-01 0.490E+00 0.178E+02   0.640E-02 -.400E-03 -.102E-01
 
 
 POSITION                                       TOTAL-FORCE (eV/Angst)
 -----------------------------------------------------------------------------------
     -7.42503     12.74371      7.46471         0.006104      0.005495     -0.001122
      0.00842      1.41400      7.46579        -0.009777     -0.007037     -0.000546
      2.47686      0.01255      7.46332        -0.007561      0.004965      0.001798
      2.47358      1.43809      7.47379         0.012337     -0.000487      0.001728
      4.95064      0.02200      7.46603         0.005001      0.010483     -0.004153
      4.95280      1.44580      7.47576        -0.005868     -0.017643     -0.003005
      0.00100     12.75237      7.46585        -0.010073      0.002153     -0.001629
      7.43241      1.41745      7.46478        -0.009842     -0.005741     -0.001102
      2.48025     12.72583      7.47368         0.014112     -0.007580      0.000588
      9.91271      1.38928      7.46309         0.000575     -0.003817     -0.000123
      4.95691     12.72469      7.47550        -0.006392      0.003337     -0.004933
     12.38579      1.39078      7.46606         0.009825     -0.022131     -0.003917
     13.62095      2.10374      7.46724         0.004120     -0.002178     -0.004225
     -1.24643      3.52822      7.47732         0.010534      0.023123     -0.002635
      1.23843      2.14126      7.47537        -0.002082     -0.031213      0.002651
      1.23677      3.56741      7.50092        -0.005896     -0.015392      0.002333
      3.71443      2.16594      7.49093         0.000750     -0.018801     -0.002162
      3.71677      3.58693      7.53704         0.007685      0.002011     -0.001975
      6.19344      2.14239      7.47616        -0.012096     -0.018198     -0.000704
      6.19640      3.56722      7.50072        -0.011775     -0.002237      0.000160
      8.67718      2.10839      7.46281        -0.002622      0.007969      0.000284
      8.68181      3.52915      7.47030        -0.007900      0.008061      0.002274
     11.14957      2.10066      7.46424         0.008281     -0.006787     -0.002806
     11.14927      3.52244      7.46639         0.014928      0.012837     -0.004612
     12.37917      4.23457      7.47483         0.007257      0.010819     -0.007233
     -2.48930      5.66513      7.48162         0.025283     -0.010564     -0.006028
     -0.01499      4.24595      7.50018         0.005743     -0.016558      0.002751
     -0.03993      5.66287      7.52602        -0.009601     -0.010859      0.002324
      2.47300      4.30916      7.55090        -0.009809     -0.018969      0.002640
      2.42716      5.72111      7.64203         0.005222     -0.025789      0.014709
      4.96070      4.30920      7.55322        -0.010848      0.027200      0.000739
      5.00865      5.72675      7.64636        -0.020032     -0.003425      0.003991
      7.44896      4.24540      7.49456         0.002470      0.034252      0.003510
      7.47279      5.66284      7.51813         0.020766     -0.007741     -0.001594
      9.91626      4.23723      7.46862        -0.012305      0.021567     -0.001164
      9.92331      5.66009      7.47363        -0.010490      0.013140     -0.000350
     -3.71568      6.38248      7.47425        -0.014946      0.008380     -0.006753
     -3.71627      7.80764      7.47413         0.003649     -0.016526     -0.005964
     -1.26896      6.37729      7.50464        -0.015838      0.019158     -0.000567
     -1.26919      7.79865      7.50460         0.007314     -0.008235     -0.000177
      1.17829      6.36909      7.57883         0.018153      0.001293      0.004120
      1.17892      7.80427      7.57863        -0.008795      0.005610     -0.000027
      6.25724      6.37275      7.57879        -0.007868      0.020411     -0.003589
      6.25962      7.81312      7.57899         0.014683     -0.015725      0.001604
      8.70163      6.37638      7.49258        -0.002857      0.007132      0.003142
      8.70292      7.79352      7.49224         0.000283     -0.000362      0.002120
     -4.94871      8.52386      7.47350         0.000443      0.002332     -0.000871
     -4.95645      9.94358      7.46892        -0.026971      0.011395      0.001083
     -2.49096      8.51412      7.48167        -0.015975      0.011086     -0.004353
     -2.49120      9.93545      7.47479         0.017659      0.000135     -0.005237
     -0.04129      8.51153      7.52560        -0.014600      0.012531      0.000179
     -0.01774      9.92755      7.49988         0.012253     -0.015351      0.003002
      2.42739      8.45066      7.64072         0.020799      0.003568      0.005020
      2.47658      9.86255      7.55123        -0.010744     -0.000129      0.002082
      5.01172      8.45087      7.64778        -0.007447     -0.004373      0.035187
      4.97141      9.86067      7.55381         0.003276      0.009663      0.006202
      7.48387      8.51858      7.51769         0.006233      0.014466     -0.001894
      7.46179      9.93231      7.49489         0.023406      0.008817      0.003098
     -6.17933     10.64585      7.47101        -0.004676     -0.008896      0.006271
     -6.18424     12.05159      7.46357        -0.004802     -0.029045      0.003392
     -3.72590     10.65375      7.46641        -0.006098     -0.013571     -0.003306
     -3.71090     12.07237      7.46424        -0.009009     -0.009011     -0.001726
     -1.25372     10.64384      7.47723         0.001862     -0.001249     -0.002249
     -1.24382     12.06096      7.46734        -0.012528     -0.003771     -0.004181
      1.23616     10.60514      7.50087         0.006974      0.001255      0.003525
      1.23898     12.02828      7.47543        -0.004353      0.004097      0.002821
      3.72278     10.58225      7.53751         0.008424      0.003790     -0.000861
      3.71844     11.99908      7.49081         0.021129      0.020580     -0.003334
      6.21120     10.60804      7.49948         0.014074      0.005685     -0.002755
      6.19409     12.03024      7.47537         0.010939      0.007538     -0.005069
      3.71069      7.08427      8.32458        -0.020069      0.013061     -0.016400
 -----------------------------------------------------------------------------------
    total drift:                                0.000989      0.015864     -0.026688


--------------------------------------------------------------------------------------------------------



  FREE ENERGIE OF THE ION-ELECTRON SYSTEM (eV)
  ---------------------------------------------------
  free  energy   TOTEN  =      -653.43685426 eV

  energy  without entropy=     -653.40461125  energy(sigma->0) =     -653.42073275
 
 d Force = 0.9160414E-03[ 0.182E-03, 0.165E-02]  d Energy = 0.8327889E-03 0.833E-04
 d Force =-0.1208226E+00[-0.126E+00,-0.115E+00]  d Ewald  = 0.1074846E+02-0.109E+02


--------------------------------------------------------------------------------------------------------


    POTLOK:  cpu time    0.5449: real time    0.5505


--------------------------------------------------------------------------------------------------------


 Conjugate gradient step on ions:
 trial-energy change:   -0.000833  1 .order   -0.000885   -0.001717   -0.000053
  (g-gl).g = 0.209E-02      g.g   = 0.220E-02  gl.gl    = 0.453E-02
 g(Force)  = 0.215E-02   g(Stress)= 0.527E-04 ortho     = 0.785E-04
 gamma     =   0.46025
 trial     =   0.76866
 opt step  =   0.79924  (harmonic =   0.79322) maximal distance =0.00162225
 next E    =  -653.436855   (d E  =  -0.00083)


--------------------------------------------------------------------------------------------------------


  
 reached required accuracy - stopping structural energy minimisation
     LOOP+:  cpu time  121.3735: real time  122.3480
    4ORBIT:  cpu time    0.0000: real time    0.0000

 total amount of memory used by VASP MPI-rank0   135440. kBytes
=======================================================================

   base      :      30000. kBytes
   nonlr-proj:      10451. kBytes
   fftplans  :      14072. kBytes
   grid      :      39398. kBytes
   one-center:        186. kBytes
   wavefun   :      41333. kBytes
 
  
  
 General timing and accounting informations for this job:
 ========================================================
  
                  Total CPU time used (sec):     3058.376
                            User time (sec):     3028.011
                          System time (sec):       30.365
                         Elapsed time (sec):     3091.002
  
                   Maximum memory used (kb):      618900.
                   Average memory used (kb):           0.
  
                          Minor page faults:      5825562
                          Major page faults:           39
                 Voluntary context switches:        26373
