 running on   48 total cores
 distrk:  each k-point on   48 cores,    1 groups
 distr:  one band on   12 cores,    4 groups
 using from now: INCAR     
 vasp.5.4.4.18Apr17-6-g9f103f2a35 (build Sep 02 2021 13:24:58) complex          
  
 POSCAR found type information on POSCAR  C  N  C  Cr
 POSCAR found :  4 types and      71 ions
 scaLAPACK will be used
 LDA part: xc-table for Pade appr. of Perdew
 POSCAR, INCAR and KPOINTS ok, starting setup
 FFT: planning ...
 WAVECAR not read
 entering main loop
       N       E                     dE             d eps       ncg     rms          rms(c)
DAV:   1     0.274365582666E+04    0.27437E+04   -0.11731E+05  3248   0.127E+03
DAV:   2    -0.171486899532E+03   -0.29151E+04   -0.27855E+04  4304   0.296E+02
DAV:   3    -0.684248785364E+03   -0.51276E+03   -0.50982E+03  3560   0.129E+02
DAV:   4    -0.703763759380E+03   -0.19515E+02   -0.19364E+02  3552   0.312E+01
DAV:   5    -0.704381395821E+03   -0.61764E+00   -0.61578E+00  4048   0.477E+00    0.465E+01
RMM:   6    -0.732349291225E+03   -0.27968E+02   -0.53206E+02  4116   0.396E+01    0.839E+01
RMM:   7    -0.662163308136E+03    0.70186E+02   -0.54154E+01  3036   0.136E+01    0.318E+01
RMM:   8    -0.662308692479E+03   -0.14538E+00   -0.21361E+01  3122   0.702E+00    0.283E+01
RMM:   9    -0.647181862621E+03    0.15127E+02   -0.20009E+01  2962   0.839E+00    0.115E+01
RMM:  10    -0.647603387823E+03   -0.42153E+00   -0.30500E+00  2991   0.311E+00    0.145E+01
RMM:  11    -0.646573352347E+03    0.10300E+01   -0.42931E-01  3124   0.105E+00    0.779E+00
RMM:  12    -0.646409080011E+03    0.16427E+00   -0.16696E-01  2944   0.956E-01    0.603E+00
RMM:  13    -0.646507654430E+03   -0.98574E-01   -0.26288E-02  2996   0.315E-01    0.716E+00
RMM:  14    -0.646358146690E+03    0.14951E+00   -0.25948E-02  2978   0.370E-01    0.725E+00
RMM:  15    -0.646359184545E+03   -0.10379E-02   -0.34524E-03  3313   0.793E-02    0.652E+00
RMM:  16    -0.646412577005E+03   -0.53392E-01   -0.15561E-02  2945   0.234E-01    0.688E+00
RMM:  17    -0.646445198654E+03   -0.32622E-01   -0.82517E-02  2959   0.440E-01    0.416E+00
RMM:  18    -0.646525395141E+03   -0.80196E-01   -0.75507E-02  2974   0.375E-01    0.338E+00
RMM:  19    -0.646509752288E+03    0.15643E-01   -0.17278E-02  3295   0.144E-01    0.302E+00
RMM:  20    -0.646511438504E+03   -0.16862E-02   -0.23614E-03  3140   0.563E-02    0.303E+00
RMM:  21    -0.646498687838E+03    0.12751E-01   -0.66632E-03  2974   0.123E-01    0.274E+00
RMM:  22    -0.646457390358E+03    0.41297E-01   -0.16974E-02  2972   0.212E-01    0.272E+00
RMM:  23    -0.646415509984E+03    0.41880E-01   -0.14624E-02  3039   0.166E-01    0.275E+00
RMM:  24    -0.646440434169E+03   -0.24924E-01   -0.38355E-03  2991   0.138E-01    0.263E+00
RMM:  25    -0.646403955833E+03    0.36478E-01   -0.53976E-03  2997   0.127E-01    0.280E+00
RMM:  26    -0.646369820114E+03    0.34136E-01   -0.13714E-02  3012   0.174E-01    0.283E+00
RMM:  27    -0.646363396320E+03    0.64238E-02   -0.22822E-02  3075   0.192E-01    0.160E+00
RMM:  28    -0.646399461674E+03   -0.36065E-01   -0.11462E-02  3034   0.169E-01    0.281E+00
RMM:  29    -0.646424098196E+03   -0.24637E-01   -0.55510E-03  2990   0.172E-01    0.420E+00
RMM:  30    -0.646427307910E+03   -0.32097E-02   -0.19889E-03  2947   0.112E-01    0.487E+00
RMM:  31    -0.646462983430E+03   -0.35676E-01   -0.55777E-03  3005   0.984E-02    0.563E+00
RMM:  32    -0.646458534451E+03    0.44490E-02   -0.15729E-03  2832   0.537E-02    0.577E+00
RMM:  33    -0.646432568304E+03    0.25966E-01   -0.22883E-03  2932   0.832E-02    0.558E+00
RMM:  34    -0.646450444973E+03   -0.17877E-01   -0.26242E-03  2929   0.754E-02    0.585E+00
RMM:  35    -0.646447526312E+03    0.29187E-02   -0.29467E-02  2986   0.239E-01    0.602E+00
RMM:  36    -0.646414662053E+03    0.32864E-01   -0.10019E-02  3150   0.972E-02    0.575E+00
RMM:  37    -0.646388537464E+03    0.26125E-01   -0.22323E-03  3059   0.568E-02    0.535E+00
RMM:  38    -0.646360582140E+03    0.27955E-01   -0.39750E-03  3019   0.815E-02    0.489E+00
RMM:  39    -0.646384645874E+03   -0.24064E-01   -0.73566E-04  2852   0.626E-02    0.502E+00
RMM:  40    -0.646382353202E+03    0.22927E-02   -0.15014E-04  2143   0.139E-02    0.504E+00
RMM:  41    -0.646466682087E+03   -0.84329E-01   -0.90019E-03  2959   0.154E-01    0.606E+00
RMM:  42    -0.646444935638E+03    0.21746E-01   -0.22073E-03  2958   0.876E-02    0.575E+00
RMM:  43    -0.646510703638E+03   -0.65768E-01   -0.63271E-03  2954   0.137E-01    0.588E+00
RMM:  44    -0.646560738488E+03   -0.50035E-01   -0.59209E-03  2983   0.110E-01    0.576E+00
RMM:  45    -0.646587648953E+03   -0.26910E-01   -0.22605E-03  3018   0.638E-02    0.566E+00
RMM:  46    -0.646630334860E+03   -0.42686E-01   -0.24057E-03  2993   0.737E-02    0.549E+00
RMM:  47    -0.646645448917E+03   -0.15114E-01   -0.89845E-04  2802   0.366E-02    0.542E+00
RMM:  48    -0.646639208277E+03    0.62406E-02   -0.83519E-05  2099   0.146E-02    0.546E+00
RMM:  49    -0.646655484050E+03   -0.16276E-01   -0.35615E-04  2530   0.296E-02    0.536E+00
RMM:  50    -0.646659135566E+03   -0.36515E-02   -0.18071E-04  2152   0.178E-02
   1 F= -.65305511E+03 E0= -.65304321E+03  d E =-.653055E+03  mag=    -0.6617
 Constraining cell:  1  0  0  |  1  1  0  |  0  0  0
 curvature:   0.00 expect dE= 0.000E+00 dE for cont linesearch  0.000E+00
 trial: gam= 0.00000 g(F)=  0.171E+00 g(S)=  0.959E-02 ort = 0.000E+00 (trialstep = 0.100E+01)
 search vector abs. value=  0.181E+00
 bond charge predicted
       N       E                     dE             d eps       ncg     rms          rms(c)
DAV:   1    -0.646712038860E+03   -0.56555E-01   -0.13465E+01  3280   0.113E+01    0.543E+00
RMM:   2    -0.647758415480E+03   -0.10464E+01   -0.18512E+00  3011   0.263E+00    0.137E+01
RMM:   3    -0.646964598335E+03    0.79382E+00   -0.14172E+00  3138   0.183E+00    0.387E+00
RMM:   4    -0.646808527704E+03    0.15607E+00   -0.84595E-02  3243   0.562E-01    0.210E+00
RMM:   5    -0.646783424351E+03    0.25103E-01   -0.22173E-02  3248   0.185E-01    0.169E+00
RMM:   6    -0.646773544283E+03    0.98801E-02   -0.26409E-02  3028   0.219E-01    0.993E-01
RMM:   7    -0.646809277986E+03   -0.35734E-01   -0.17145E-02  3088   0.169E-01    0.471E-01
RMM:   8    -0.646864572348E+03   -0.55294E-01   -0.14859E-02  3012   0.148E-01    0.171E-01
RMM:   9    -0.646914841383E+03   -0.50269E-01   -0.10778E-02  3029   0.964E-02    0.155E-01
RMM:  10    -0.646934832935E+03   -0.19992E-01   -0.49138E-03  2795   0.539E-02    0.123E-01
RMM:  11    -0.646941454883E+03   -0.66219E-02   -0.97462E-04  2346   0.249E-02    0.130E-01
RMM:  12    -0.646935885916E+03    0.55690E-02   -0.25129E-04  2182   0.181E-02    0.246E-01
RMM:  13    -0.646952561274E+03   -0.16675E-01   -0.89896E-04  2323   0.343E-02    0.891E-02
RMM:  14    -0.646959254597E+03   -0.66933E-02   -0.79684E-04  2310   0.263E-02    0.337E-02
RMM:  15    -0.646959446614E+03   -0.19202E-03   -0.69971E-05  2048   0.821E-03    0.116E-02
RMM:  16    -0.646959763755E+03   -0.31714E-03   -0.25678E-05  1949   0.543E-03    0.640E-03
RMM:  17    -0.646959881999E+03   -0.11824E-03   -0.19746E-05  1483   0.442E-03    0.370E-03
RMM:  18    -0.646959926975E+03   -0.44976E-04   -0.66954E-06  1119   0.293E-03    0.296E-03
RMM:  19    -0.646959999002E+03   -0.72026E-04   -0.52984E-06  1154   0.264E-03    0.245E-03
RMM:  20    -0.646960054377E+03   -0.55376E-04   -0.39916E-06  1089   0.230E-03    0.270E-03
RMM:  21    -0.646960080251E+03   -0.25873E-04   -0.31129E-06  1043   0.208E-03    0.718E-04
RMM:  22    -0.646960089851E+03   -0.96006E-05   -0.13853E-06   846   0.174E-03
   2 F= -.65335303E+03 E0= -.65333592E+03  d E =-.297922E+00  mag=    -1.5541
 Constraining cell:  1  0  0  |  1  1  0  |  0  0  0
 trial-energy change:   -0.297922  1 .order   -0.004259   -0.180919    0.172402
 step:   0.9121(harm=  0.5121)  dis= 0.01689  next Energy=  -653.360411 (dE=-0.305E+00)
 bond charge predicted
       N       E                     dE             d eps       ncg     rms          rms(c)
DAV:   1    -0.646973734233E+03   -0.13654E-01   -0.10426E-01  3416   0.991E-01    0.134E-01
RMM:   2    -0.646974639088E+03   -0.90485E-03   -0.74184E-03  3004   0.181E-01    0.300E-01
RMM:   3    -0.646973721358E+03    0.91773E-03   -0.11265E-03  3211   0.600E-02    0.553E-02
RMM:   4    -0.646973573969E+03    0.14739E-03   -0.15663E-04  2882   0.226E-02    0.330E-02
RMM:   5    -0.646973509680E+03    0.64290E-04   -0.44016E-05  2066   0.134E-02    0.149E-02
RMM:   6    -0.646973618400E+03   -0.10872E-03   -0.90580E-06  1792   0.745E-03    0.591E-03
RMM:   7    -0.646973760707E+03   -0.14231E-03   -0.49657E-06  1761   0.427E-03    0.303E-03
RMM:   8    -0.646973848844E+03   -0.88137E-04   -0.28594E-06  1351   0.270E-03    0.194E-03
RMM:   9    -0.646973920558E+03   -0.71715E-04   -0.29383E-06  1188   0.229E-03    0.126E-03
RMM:  10    -0.646973938178E+03   -0.17620E-04   -0.79691E-07   887   0.179E-03    0.525E-04
RMM:  11    -0.646973943226E+03   -0.50480E-05   -0.42338E-07   737   0.163E-03
   3 F= -.65336721E+03 E0= -.65335004E+03  d E =-.312106E+00  mag=    -1.5818
 Constraining cell:  1  0  0  |  1  1  0  |  0  0  0
 curvature:  -0.08 expect dE=-0.247E-01 dE for cont linesearch -0.104E-01
 ZBRENT: interpolating
 opt :   0.4988  next Energy=  -653.398191 (dE=-0.343E+00)
 bond charge predicted
       N       E                     dE             d eps       ncg     rms          rms(c)
DAV:   1    -0.647008468093E+03   -0.34530E-01   -0.23079E+00  3240   0.466E+00    0.631E-01
RMM:   2    -0.647031720169E+03   -0.23252E-01   -0.17134E-01  3002   0.862E-01    0.145E+00
RMM:   3    -0.647010897266E+03    0.20823E-01   -0.24088E-02  3249   0.281E-01    0.263E-01
RMM:   4    -0.647008731726E+03    0.21655E-02   -0.32014E-03  3215   0.104E-01    0.155E-01
RMM:   5    -0.647007988643E+03    0.74308E-03   -0.96546E-04  2984   0.603E-02    0.698E-02
RMM:   6    -0.647009255351E+03   -0.12667E-02   -0.18981E-04  2932   0.279E-02    0.277E-02
RMM:   7    -0.647010706610E+03   -0.14513E-02   -0.78814E-05  2126   0.121E-02    0.156E-02
RMM:   8    -0.647011706686E+03   -0.10001E-02   -0.47204E-05  2014   0.852E-03    0.841E-03
RMM:   9    -0.647012282610E+03   -0.57592E-03   -0.32923E-05  1932   0.582E-03    0.544E-03
RMM:  10    -0.647012481107E+03   -0.19850E-03   -0.11909E-05  1387   0.376E-03    0.265E-03
RMM:  11    -0.647012523197E+03   -0.42090E-04   -0.46381E-06  1290   0.285E-03    0.104E-03
RMM:  12    -0.647012538272E+03   -0.15075E-04   -0.13203E-06  1085   0.209E-03    0.618E-04
RMM:  13    -0.647012546533E+03   -0.82607E-05   -0.48294E-07   812   0.171E-03
   4 F= -.65340721E+03 E0= -.65339065E+03  d E =-.352103E+00  mag=    -1.7108
 Constraining cell:  1  0  0  |  1  1  0  |  0  0  0
 curvature:  -0.25 expect dE=-0.229E-01 dE for cont linesearch -0.258E-02
 ZBRENT: interpolating
 opt :   0.3635  next Energy=  -653.410702 (dE=-0.356E+00)
 bond charge predicted
       N       E                     dE             d eps       ncg     rms          rms(c)
DAV:   1    -0.647015165865E+03   -0.26276E-02   -0.24773E-01  3304   0.153E+00    0.203E-01
RMM:   2    -0.647017373444E+03   -0.22076E-02   -0.17496E-02  3004   0.279E-01    0.455E-01
RMM:   3    -0.647015336640E+03    0.20368E-02   -0.23919E-03  3248   0.891E-02    0.867E-02
RMM:   4    -0.647015054086E+03    0.28255E-03   -0.33444E-04  3073   0.338E-02    0.510E-02
RMM:   5    -0.647014939287E+03    0.11480E-03   -0.10592E-04  2813   0.203E-02    0.225E-02
RMM:   6    -0.647015124174E+03   -0.18489E-03   -0.18298E-05  1853   0.976E-03    0.877E-03
RMM:   7    -0.647015339227E+03   -0.21505E-03   -0.83021E-06  1777   0.542E-03    0.459E-03
RMM:   8    -0.647015473794E+03   -0.13457E-03   -0.49934E-06  1602   0.348E-03    0.308E-03
RMM:   9    -0.647015586929E+03   -0.11313E-03   -0.45937E-06  1327   0.273E-03    0.178E-03
RMM:  10    -0.647015618504E+03   -0.31575E-04   -0.16297E-06  1115   0.202E-03    0.856E-04
RMM:  11    -0.647015629620E+03   -0.11117E-04   -0.69111E-07   872   0.166E-03    0.420E-04
RMM:  12    -0.647015632569E+03   -0.29493E-05   -0.27705E-07   672   0.147E-03
   5 F= -.65341069E+03 E0= -.65339461E+03  d E =-.355585E+00  mag=    -1.7490
 Constraining cell:  1  0  0  |  1  1  0  |  0  0  0
 curvature:  -0.34 expect dE=-0.221E-01 dE for cont linesearch -0.111E-03
 trial: gam= 0.40402 g(F)=  0.295E-01 g(S)=  0.359E-01 ort =-0.770E-02 (trialstep = 0.873E+00)
 search vector abs. value=  0.887E-01
 bond charge predicted
       N       E                     dE             d eps       ncg     rms          rms(c)
DAV:   1    -0.647018494591E+03   -0.28650E-02   -0.37530E+00  3264   0.610E+00    0.100E+00
RMM:   2    -0.647053333047E+03   -0.34838E-01   -0.23706E-01  3069   0.103E+00    0.172E+00
RMM:   3    -0.647023623963E+03    0.29709E-01   -0.50516E-02  3103   0.396E-01    0.534E-01
RMM:   4    -0.647020460444E+03    0.31635E-02   -0.49719E-03  3167   0.144E-01    0.236E-01
RMM:   5    -0.647019814317E+03    0.64613E-03   -0.17408E-03  2953   0.921E-02    0.760E-02
RMM:   6    -0.647020240134E+03   -0.42582E-03   -0.18848E-04  3018   0.288E-02    0.354E-02
RMM:   7    -0.647020587990E+03   -0.34786E-03   -0.56236E-05  2197   0.130E-02    0.224E-02
RMM:   8    -0.647020778282E+03   -0.19029E-03   -0.11293E-05  1808   0.717E-03    0.132E-02
RMM:   9    -0.647020969134E+03   -0.19085E-03   -0.11432E-05  1809   0.608E-03    0.431E-03
RMM:  10    -0.647020996603E+03   -0.27469E-04   -0.22783E-06  1583   0.326E-03    0.232E-03
RMM:  11    -0.647021028579E+03   -0.31976E-04   -0.13865E-06  1277   0.227E-03    0.150E-03
RMM:  12    -0.647021057938E+03   -0.29359E-04   -0.25837E-06  1385   0.241E-03    0.105E-03
RMM:  13    -0.647021065721E+03   -0.77829E-05   -0.38439E-07   753   0.161E-03
   6 F= -.65342280E+03 E0= -.65340632E+03  d E =-.121084E-01  mag=    -1.7009
 Constraining cell:  1  0  0  |  1  1  0  |  0  0  0
 trial-energy change:   -0.012108  1 .order   -0.011857   -0.054357    0.030643
 step:   0.5616(harm=  0.5581)  dis= 0.00623  next Energy=  -653.428250 (dE=-0.176E-01)
 bond charge predicted
       N       E                     dE             d eps       ncg     rms          rms(c)
DAV:   1    -0.647028463050E+03   -0.74051E-02   -0.47800E-01  3304   0.218E+00    0.357E-01
RMM:   2    -0.647032881846E+03   -0.44188E-02   -0.29896E-02  3058   0.364E-01    0.609E-01
RMM:   3    -0.647028990142E+03    0.38917E-02   -0.63548E-03  3096   0.142E-01    0.178E-01
RMM:   4    -0.647028598455E+03    0.39169E-03   -0.63739E-04  3165   0.499E-02    0.876E-02
RMM:   5    -0.647028434589E+03    0.16387E-03   -0.23566E-04  2945   0.339E-02    0.257E-02
RMM:   6    -0.647028497730E+03   -0.63141E-04   -0.19771E-05  1861   0.104E-02    0.121E-02
RMM:   7    -0.647028579696E+03   -0.81966E-04   -0.85810E-06  1788   0.616E-03    0.699E-03
RMM:   8    -0.647028641944E+03   -0.62248E-04   -0.31148E-06  1769   0.391E-03    0.423E-03
RMM:   9    -0.647028717212E+03   -0.75268E-04   -0.37285E-06  1571   0.302E-03    0.121E-03
RMM:  10    -0.647028733171E+03   -0.15959E-04   -0.84057E-07  1051   0.185E-03    0.758E-04
RMM:  11    -0.647028745993E+03   -0.12822E-04   -0.58060E-07   854   0.164E-03    0.503E-04
RMM:  12    -0.647028754073E+03   -0.80800E-05   -0.88465E-07   906   0.171E-03
   7 F= -.65342826E+03 E0= -.65341191E+03  d E =-.175670E-01  mag=    -1.7197
 Constraining cell:  1  0  0  |  1  1  0  |  0  0  0
 curvature:  -0.40 expect dE=-0.982E-02 dE for cont linesearch -0.125E-10
 trial: gam= 0.16624 g(F)=  0.235E-01 g(S)=  0.118E-02 ort = 0.167E-05 (trialstep = 0.810E+00)
 search vector abs. value=  0.272E-01
 bond charge predicted
       N       E                     dE             d eps       ncg     rms          rms(c)
DAV:   1    -0.647028484244E+03    0.26175E-03   -0.12159E+00  3216   0.332E+00    0.431E-01
RMM:   2    -0.647036659660E+03   -0.81754E-02   -0.62531E-02  3004   0.556E-01    0.824E-01
RMM:   3    -0.647029922214E+03    0.67374E-02   -0.10450E-02  3282   0.184E-01    0.194E-01
RMM:   4    -0.647029382160E+03    0.54005E-03   -0.13361E-03  3232   0.721E-02    0.105E-01
RMM:   5    -0.647029252399E+03    0.12976E-03   -0.43346E-04  2948   0.437E-02    0.395E-02
RMM:   6    -0.647029315032E+03   -0.62633E-04   -0.43547E-05  2028   0.149E-02    0.143E-02
RMM:   7    -0.647029378954E+03   -0.63922E-04   -0.13326E-05  1786   0.803E-03    0.623E-03
RMM:   8    -0.647029414410E+03   -0.35455E-04   -0.42487E-06  1776   0.498E-03    0.370E-03
RMM:   9    -0.647029440548E+03   -0.26139E-04   -0.22253E-06  1767   0.313E-03    0.191E-03
RMM:  10    -0.647029447135E+03   -0.65866E-05   -0.63530E-07  1055   0.192E-03
   8 F= -.65343086E+03 E0= -.65341471E+03  d E =-.260076E-02  mag=    -1.7352
 Constraining cell:  1  0  0  |  1  1  0  |  0  0  0
 trial-energy change:   -0.002601  1 .order   -0.002558   -0.020020    0.014905
 step:   0.4661(harm=  0.4646)  dis= 0.00216  next Energy=  -653.434024 (dE=-0.576E-02)
 bond charge predicted
       N       E                     dE             d eps       ncg     rms          rms(c)
DAV:   1    -0.647033234839E+03   -0.37943E-02   -0.21958E-01  3296   0.141E+00    0.183E-01
RMM:   2    -0.647034672160E+03   -0.14373E-02   -0.11210E-02  3004   0.235E-01    0.347E-01
RMM:   3    -0.647033455305E+03    0.12169E-02   -0.18590E-03  3276   0.777E-02    0.809E-02
RMM:   4    -0.647033353358E+03    0.10195E-03   -0.24072E-04  3121   0.305E-02    0.450E-02
RMM:   5    -0.647033324742E+03    0.28616E-04   -0.80715E-05  2854   0.190E-02    0.165E-02
RMM:   6    -0.647033353198E+03   -0.28456E-04   -0.79326E-06  1799   0.683E-03    0.607E-03
RMM:   7    -0.647033377029E+03   -0.23832E-04   -0.29500E-06  1762   0.408E-03    0.244E-03
RMM:   8    -0.647033386996E+03   -0.99669E-05   -0.77376E-07  1308   0.242E-03
   9 F= -.65343402E+03 E0= -.65341778E+03  d E =-.576010E-02  mag=    -1.7292
 Constraining cell:  1  0  0  |  1  1  0  |  0  0  0
 curvature:  -0.26 expect dE=-0.116E-02 dE for cont linesearch -0.608E-10
 trial: gam= 0.18497 g(F)=  0.406E-02 g(S)=  0.474E-03 ort = 0.254E-05 (trialstep = 0.742E+00)
 search vector abs. value=  0.546E-02
 bond charge predicted
       N       E                     dE             d eps       ncg     rms          rms(c)
DAV:   1    -0.647035170565E+03   -0.17935E-02   -0.20746E-01  3280   0.142E+00    0.132E-01
RMM:   2    -0.647035856619E+03   -0.68605E-03   -0.80082E-03  3007   0.205E-01    0.115E-01
RMM:   3    -0.647035757930E+03    0.98689E-04   -0.85406E-04  3193   0.593E-02    0.110E-01
RMM:   4    -0.647035634188E+03    0.12374E-03   -0.15855E-04  2802   0.247E-02    0.432E-02
RMM:   5    -0.647035606835E+03    0.27354E-04   -0.62361E-05  2474   0.165E-02    0.169E-02
RMM:   6    -0.647035632704E+03   -0.25869E-04   -0.73845E-06  1782   0.770E-03    0.531E-03
RMM:   7    -0.647035655641E+03   -0.22938E-04   -0.22542E-06  1749   0.396E-03    0.262E-03
RMM:   8    -0.647035670738E+03   -0.15097E-04   -0.74241E-07  1112   0.231E-03    0.135E-03
RMM:   9    -0.647035680804E+03   -0.10066E-04   -0.49001E-07   929   0.186E-03    0.752E-04
RMM:  10    -0.647035686207E+03   -0.54031E-05   -0.32403E-07   786   0.166E-03
  10 F= -.65343597E+03 E0= -.65341978E+03  d E =-.195099E-02  mag=    -1.7362
 Constraining cell:  1  0  0  |  1  1  0  |  0  0  0
 trial-energy change:   -0.001951  1 .order   -0.001940   -0.003361   -0.000519
 step:   0.8769(harm=  0.8769)  dis= 0.00272  next Energy=  -653.436006 (dE=-0.199E-02)
 bond charge predicted
       N       E                     dE             d eps       ncg     rms          rms(c)
DAV:   1    -0.647035787990E+03   -0.10719E-03   -0.69344E-03  3344   0.259E-01    0.242E-02
RMM:   2    -0.647035807062E+03   -0.19072E-04   -0.26701E-04  2990   0.374E-02    0.213E-02
RMM:   3    -0.647035803551E+03    0.35108E-05   -0.26276E-05  1854   0.110E-02
  11 F= -.65343602E+03 E0= -.65341983E+03  d E =-.200211E-02  mag=    -1.7368
 Constraining cell:  1  0  0  |  1  1  0  |  0  0  0
 curvature:  -0.53 expect dE=-0.116E-02 dE for cont linesearch -0.596E-06
 trial: gam= 0.46025 g(F)=  0.215E-02 g(S)=  0.527E-04 ort = 0.785E-04 (trialstep = 0.769E+00)
 search vector abs. value=  0.343E-02
 bond charge predicted
       N       E                     dE             d eps       ncg     rms          rms(c)
DAV:   1    -0.647036888931E+03   -0.10819E-02   -0.13406E-01  3312   0.111E+00    0.111E-01
RMM:   2    -0.647037369444E+03   -0.48051E-03   -0.47367E-03  3006   0.158E-01    0.147E-01
RMM:   3    -0.647037150816E+03    0.21863E-03   -0.58802E-04  3209   0.476E-02    0.701E-02
RMM:   4    -0.647037090248E+03    0.60567E-04   -0.81585E-05  2638   0.192E-02    0.317E-02
RMM:   5    -0.647037073448E+03    0.16800E-04   -0.37315E-05  2026   0.133E-02    0.111E-02
RMM:   6    -0.647037082823E+03   -0.93746E-05   -0.41243E-06  1738   0.576E-03
  12 F= -.65343685E+03 E0= -.65342073E+03  d E =-.832789E-03  mag=    -1.7405
 Constraining cell:  1  0  0  |  1  1  0  |  0  0  0
 trial-energy change:   -0.000833  1 .order   -0.000885   -0.001717   -0.000053
 step:   0.7992(harm=  0.7932)  dis= 0.00162  next Energy=  -653.436855 (dE=-0.834E-03)
 reached required accuracy - stopping structural energy minimisation
