       N       E                     dE             d eps       ncg     rms          rms(c)
DAV:   1     0.253261009961E+04    0.25326E+04   -0.11169E+05  4360   0.106E+03
DAV:   2    -0.238603970483E+03   -0.27712E+04   -0.26437E+04  5480   0.279E+02
DAV:   3    -0.702415962836E+03   -0.46381E+03   -0.46031E+03  4560   0.120E+02
DAV:   4    -0.719186825179E+03   -0.16771E+02   -0.16630E+02  4624   0.282E+01
DAV:   5    -0.719737965420E+03   -0.55114E+00   -0.54952E+00  5304   0.431E+00    0.477E+01
DAV:   6    -0.719957728250E+03   -0.21976E+00   -0.92878E+01  4920   0.274E+01    0.747E+01
DAV:   7    -0.673547475141E+03    0.46410E+02   -0.64052E+01  5048   0.531E+01    0.269E+01
DAV:   8    -0.670488526821E+03    0.30589E+01   -0.37905E+01  4912   0.136E+01    0.269E+01
DAV:   9    -0.664554467269E+03    0.59341E+01   -0.24767E+01  4608   0.144E+01    0.209E+01
DAV:  10    -0.662084460754E+03    0.24700E+01   -0.21565E+01  5184   0.136E+01    0.114E+01
DAV:  11    -0.661468108004E+03    0.61635E+00   -0.17042E+00  5272   0.360E+00    0.741E+00
DAV:  12    -0.661784145717E+03   -0.31604E+00   -0.72196E-01  4656   0.184E+00    0.688E+00
DAV:  13    -0.661873655751E+03   -0.89510E-01   -0.44524E-01  4824   0.151E+00    0.438E+00
DAV:  14    -0.661922650982E+03   -0.48995E-01   -0.99493E-02  4608   0.695E-01    0.397E+00
DAV:  15    -0.661932809229E+03   -0.10158E-01   -0.12546E-01  4864   0.639E-01    0.299E+00
DAV:  16    -0.661922693719E+03    0.10116E-01   -0.20140E-02  4696   0.308E-01    0.235E+00
DAV:  17    -0.661908034385E+03    0.14659E-01   -0.14797E-02  5168   0.257E-01    0.183E+00
DAV:  18    -0.661896805451E+03    0.11229E-01   -0.67141E-03  5064   0.228E-01    0.136E+00
DAV:  19    -0.661887362292E+03    0.94432E-02   -0.11454E-02  5056   0.281E-01    0.797E-01
DAV:  20    -0.661883857158E+03    0.35051E-02   -0.44204E-03  4968   0.191E-01    0.373E-01
DAV:  21    -0.661884091198E+03   -0.23404E-03   -0.72156E-04  3648   0.648E-02    0.341E-01
DAV:  22    -0.661884066251E+03    0.24947E-04   -0.76788E-04  3576   0.786E-02
   1 F= -.66830883E+03 E0= -.66830883E+03  d E =0.000000E+00  mag=    -1.0736
