       N       E                     dE             d eps       ncg     rms          rms(c)
DAV:   1     0.282272112260E+04    0.28227E+04   -0.11162E+05  3944   0.122E+03
DAV:   2    -0.275283554559E+02   -0.28502E+04   -0.27411E+04  4568   0.335E+02
DAV:   3    -0.477746692800E+03   -0.45022E+03   -0.44571E+03  4024   0.152E+02
DAV:   4    -0.493358023443E+03   -0.15611E+02   -0.15229E+02  4104   0.403E+01
DAV:   5    -0.493935076714E+03   -0.57705E+00   -0.57111E+00  4536   0.600E+00    0.541E+01
DAV:   6    -0.447751667942E+03    0.46183E+02   -0.54737E+01  4584   0.365E+01    0.362E+01
DAV:   7    -0.430431318732E+03    0.17320E+02   -0.84114E+01  4112   0.284E+01    0.199E+01
DAV:   8    -0.428603131071E+03    0.18282E+01   -0.14300E+01  4080   0.146E+01    0.145E+01
DAV:   9    -0.428882909928E+03   -0.27978E+00   -0.97652E+00  5208   0.192E+01    0.700E+00
DAV:  10    -0.428136680218E+03    0.74623E+00   -0.68323E+00  5024   0.124E+01    0.338E+00
DAV:  11    -0.428048782319E+03    0.87898E-01   -0.10371E+00  4944   0.433E+00    0.173E+00
DAV:  12    -0.428015233841E+03    0.33548E-01   -0.38830E-01  4376   0.236E+00    0.110E+00
DAV:  13    -0.427997888142E+03    0.17346E-01   -0.20880E-01  4072   0.150E+00    0.475E-01
DAV:  14    -0.427997473762E+03    0.41438E-03   -0.47780E-02  4024   0.865E-01    0.316E-01
DAV:  15    -0.427997014624E+03    0.45914E-03   -0.69568E-03  4896   0.405E-01    0.206E-01
DAV:  16    -0.427997002502E+03    0.12123E-04   -0.13247E-03  4056   0.119E-01    0.114E-01
DAV:  17    -0.427997037760E+03   -0.35258E-04   -0.29658E-04  2496   0.738E-02
   1 F= -.43229901E+03 E0= -.43229901E+03  d E =0.000000E+00  mag=    -0.0000
