       N       E                     dE             d eps       ncg     rms          ort
DAV:   1     0.265414806300E+04    0.26541E+04   -0.96460E+04   860   0.108E+03
DAV:   2     0.242152419331E+03   -0.24120E+04   -0.22895E+04   860   0.253E+02
DAV:   3    -0.479412612748E+03   -0.72157E+03   -0.71447E+03   860   0.148E+02
DAV:   4    -0.520524347169E+03   -0.41112E+02   -0.40110E+02   860   0.486E+01
DAV:   5    -0.522100642121E+03   -0.15763E+01   -0.15536E+01   860   0.897E+00
SDA:   6    -0.409247069595E+03    0.11285E+03   -0.15536E+01   860   0.292E+03 0.000E+00
CGA:   7    -0.421510248438E+03   -0.12263E+02   -0.29682E+02   860   0.183E+03 0.152E+02
CGA:   8    -0.455124205211E+03   -0.33614E+02   -0.20726E+02   860   0.335E+03-0.240E+03
CGA:   9    -0.439828454671E+03    0.15296E+02   -0.25527E+02   860   0.108E+03-0.631E+02
CGA:  10    -0.454967300637E+03   -0.15139E+02   -0.82870E+01   860   0.789E+02-0.720E+02
CGA:  11    -0.472232615090E+03   -0.17265E+02   -0.37329E+01   860   0.346E+02-0.253E+02
CGA:  12    -0.477111186701E+03   -0.48786E+01   -0.42075E+00   860   0.383E+03 0.241E+03
CGA:  13    -0.469348234113E+03    0.77630E+01   -0.26999E+02   860   0.422E+02 0.431E+01
CGA:  14    -0.468638077573E+03    0.71016E+00   -0.17278E+01   860   0.144E+04 0.178E+03
CGA:  15    -0.448145444759E+03    0.20493E+02   -0.10545E+03   860   0.858E+02-0.521E+02
CGA:  16    -0.456234317024E+03   -0.80889E+01   -0.56775E+01   860   0.578E+02-0.616E+02
CGA:  17    -0.475144338299E+03   -0.18910E+02   -0.21672E+01   860   0.476E+02-0.493E+02
CGA:  18    -0.470759244118E+03    0.43851E+01   -0.22522E+01   860   0.104E+03-0.304E+02
CGA:  19    -0.477306068271E+03   -0.65468E+01   -0.64423E+01   860   0.949E+02-0.989E+02
CGA:  20    -0.460680406313E+03    0.16626E+02   -0.48359E+01   860   0.378E+03-0.441E+02
CGA:  21    -0.467618799411E+03   -0.69384E+01   -0.57042E+01   860   0.355E+02-0.122E+03
CGA:  22    -0.475111616737E+03   -0.74928E+01    0.57615E+01   860   0.212E+02-0.131E+02
CGA:  23    -0.475369590524E+03   -0.25797E+00   -0.13821E+00   860   0.221E+02 0.112E+02
CGA:  24    -0.479102419269E+03   -0.37328E+01   -0.65319E+00   860   0.120E+03-0.191E+03
CGA:  25    -0.474898316854E+03    0.42041E+01   -0.35605E+01   860   0.518E+03-0.354E+03
CGA:  26    -0.466001402659E+03    0.88969E+01   -0.24716E+02   860   0.110E+04-0.264E+03
CGA:  27    -0.454495891852E+03    0.11506E+02   -0.54303E+02   860   0.191E+03-0.162E+03
CGA:  28    -0.459578559173E+03   -0.50827E+01   -0.88113E+01   860   0.543E+02-0.500E+02
CGA:  29    -0.479350952502E+03   -0.19772E+02   -0.92064E+00   860   0.636E+02-0.252E+03
CGA:  30    -0.478754364294E+03    0.59659E+00   -0.18124E+01   860   0.520E+03 0.351E+02
CGA:  31    -0.470131249696E+03    0.86231E+01   -0.18992E+02   860   0.148E+04-0.895E+03
CGA:  32    -0.459994330321E+03    0.10137E+02   -0.64351E+02   860   0.513E+02-0.373E+02
CGA:  33    -0.480898188073E+03   -0.20904E+02   -0.94511E+00   860   0.747E+02 0.727E+01
CGA:  34    -0.461656024218E+03    0.19242E+02   -0.95346E+00   860   0.140E+04-0.234E+04
CGA:  35    -0.459783757381E+03    0.18723E+01   -0.55892E+02   860   0.472E+02-0.452E+02
CGA:  36    -0.478044656407E+03   -0.18261E+02   -0.74162E+00   860   0.294E+03 0.611E+03
CGA:  37    -0.482295133634E+03   -0.42505E+01   -0.70946E+01   860   0.252E+02-0.417E+02
CGA:  38    -0.482546924901E+03   -0.25179E+00   -0.40633E+00   860   0.468E+02-0.111E+01
CGA:  39    -0.482833021141E+03   -0.28610E+00   -0.34529E+00   860   0.556E+02-0.989E+02
CGA:  40    -0.483095156291E+03   -0.26214E+00   -0.83541E+00   860   0.417E+02-0.452E+02
CGA:  41    -0.482855841011E+03    0.23932E+00   -0.88502E+00   860   0.657E+02-0.401E+02
CGA:  42    -0.483301982027E+03   -0.44614E+00   -0.96679E+00   860   0.326E+02-0.442E+02
CGA:  43    -0.483419227530E+03   -0.11725E+00   -0.54703E+00   860   0.262E+02-0.233E+02
CGA:  44    -0.483670513398E+03   -0.25129E+00   -0.22208E+00   860   0.227E+01 0.275E+01
CGA:  45    -0.483772881816E+03   -0.10237E+00   -0.74615E-01   860   0.745E+01 0.590E+00
CGA:  46    -0.483886890967E+03   -0.11401E+00   -0.72430E-01   860   0.148E+02 0.435E+01
CGA:  47    -0.483976017459E+03   -0.89126E-01   -0.19445E+00   860   0.980E+01-0.688E+01
CGA:  48    -0.484406637166E+03   -0.43062E+00   -0.44629E+00   860   0.809E+01 0.639E+00
CGA:  49    -0.484725707593E+03   -0.31907E+00   -0.36288E+00   860   0.107E+01 0.143E+01
CGA:  50    -0.484860430113E+03   -0.13472E+00   -0.11687E+00   860   0.579E+00 0.382E+00
CGA:  51    -0.484958502025E+03   -0.98072E-01   -0.10087E+00   860   0.105E+01-0.533E-01
CGA:  52    -0.485052544633E+03   -0.94043E-01   -0.87031E-01   860   0.834E+00 0.159E+00
CGA:  53    -0.485173481027E+03   -0.12094E+00   -0.10005E+00   860   0.269E+00 0.373E+00
CGA:  54    -0.485306369783E+03   -0.13289E+00   -0.11432E+00   860   0.871E-01 0.849E-01
CGA:  55    -0.485379185292E+03   -0.72816E-01    0.60672E+02   860   0.592E-01 0.397E-01
CGA:  56    -0.485441821199E+03   -0.62636E-01    0.60680E+02   860   0.110E+00-0.932E-02
CGA:  57    -0.485470058104E+03   -0.28237E-01   -0.28202E-01   860   0.670E-01 0.508E-03
CGA:  58    -0.485486234359E+03   -0.16176E-01   -0.16179E-01   860   0.385E-01 0.396E-03
CGA:  59    -0.485500006778E+03   -0.13772E-01   -0.13748E-01   860   0.384E-01 0.270E-03
CGA:  60    -0.485512316355E+03   -0.12310E-01   -0.12287E-01   860   0.264E-01 0.304E-03
CGA:  61    -0.485520106231E+03   -0.77899E-02   -0.77916E-02   860   0.197E-01 0.331E-06
CGA:  62    -0.485525854916E+03   -0.57487E-02   -0.57520E-02   860   0.141E-01-0.359E-04
CGA:  63    -0.485529603985E+03   -0.37491E-02   -0.37495E-02   860   0.104E-01-0.270E-05
CGA:  64    -0.485532647284E+03   -0.30433E-02   -0.30434E-02   860   0.918E-02 0.125E-04
CGA:  65    -0.485535123163E+03   -0.24759E-02   -0.24756E-02   860   0.665E-02 0.252E-04
CGA:  66    -0.485536832733E+03   -0.17096E-02   -0.17096E-02   860   0.498E-02 0.850E-05
CGA:  67    -0.485538194190E+03   -0.13615E-02   -0.13614E-02   860   0.391E-02 0.479E-05
CGA:  68    -0.485539160756E+03   -0.96657E-03   -0.96665E-03   860   0.260E-02 0.700E-05
CGA:  69    -0.485539808869E+03   -0.64811E-03   -0.64834E-03   860   0.196E-02 0.127E-04
CGA:  70    -0.485540319621E+03   -0.51075E-03   -0.51075E-03   860   0.151E-02 0.607E-05
CGA:  71    -0.485540693154E+03   -0.37353E-03   -0.37356E-03   860   0.109E-02 0.196E-05
CGA:  72    -0.485540965394E+03   -0.27224E-03   -0.27222E-03   860   0.828E-03-0.778E-06
CGA:  73    -0.485541169241E+03   -0.20385E-03   -0.20383E-03   860   0.614E-03-0.116E-05
CGA:  74    -0.485541317115E+03   -0.14787E-03   -0.14785E-03   860   0.454E-03-0.120E-05
CGA:  75    -0.485541427696E+03   -0.11058E-03   -0.11057E-03   860   0.342E-03-0.814E-06
CGA:  76    -0.485541508504E+03   -0.80808E-04   -0.80798E-04   860   0.244E-03-0.568E-06
   1 F= -.48906098E+03 E0= -.48906098E+03  d E =-.357858E-07  mag=    -0.0000
