 vasp.5.4.4.18Apr17-6-g9f103f2a35 (build Nov  8 2022 18:58:45) complex           
 executed on             LinuxGNU date 2023.04.13  19:48:37
 running on   48 total cores
 distrk:  each k-point on   48 cores,    1 groups
 distr:  one band on NCORES_PER_BAND=  12 cores,    4 groups


--------------------------------------------------------------------------------------------------------


 INCAR:
 POTCAR:    PAW_PBE C 08Apr2002                   
 POTCAR:    PAW_PBE N 08Apr2002                   
 POTCAR:    PAW_PBE Ge_d 03Jul2007                
 POTCAR:    PAW_PBE C 08Apr2002                   
 POTCAR:    PAW_PBE O 08Apr2002                   
 POTCAR:    PAW_PBE C 08Apr2002                   
   SHA256 =  253f7b50bb8d59471dbedb8285d89021f4a42ed1a2c5d38a03a736e69125dd95 C/
   COPYR  = (c) Copyright 08Apr2002 Georg Kresse                                
   COPYR  = This file is part of the software VASP. Any use, copying, and all ot
   COPYR  = If you do not have a valid VASP license, you may not use, copy or di
   VRHFIN =C: s2p2                                                              
   LEXCH  = PE                                                                  
   EATOM  =   147.1560 eV,   10.8157 Ry                                         
                                                                                
   TITEL  = PAW_PBE C 08Apr2002                                                 
   LULTRA =        F    use ultrasoft PP ?                                      
   IUNSCR =        1    unscreen: 0-lin 1-nonlin 2-no                           
   RPACOR =    1.200    partial core radius                                     
   POMASS =   12.011; ZVAL   =    4.000    mass and valenz                      
   RCORE  =    1.500    outmost cutoff radius                                   
   RWIGS  =    1.630; RWIGS  =    0.863    wigner-seitz radius (au A)           
   ENMAX  =  400.000; ENMIN  =  300.000 eV                                      
   ICORE  =        2    local potential                                         
   LCOR   =        T    correct aug charges                                     
   LPAW   =        T    paw PP                                                  
   EAUG   =  644.873                                                            
   DEXC   =    0.000                                                            
   RMAX   =    1.529    core radius for proj-oper                               
   RAUG   =    1.300    factor for augmentation sphere                          
   RDEP   =    1.501    radius for radial grids                                 
   RDEPT  =    1.300    core radius for aug-charge                              
                                                                                
   Atomic configuration                                                         
    4 entries                                                                   
     n  l   j            E        occ.                                          
     1  0  0.50      -273.3789   2.0000                                         
     2  0  0.50       -13.7508   2.0000                                         
     2  1  0.50        -5.2854   2.0000                                         
     3  2  1.50        -5.4423   0.0000                                         
   Description                                                                  
     l       E           TYP  RCUT    TYP  RCUT                                 
     0    -13.7508458     23  1.200                                             
     0     -8.2022199     23  1.200                                             
     1     -5.2854383     23  1.500                                             
     1     34.0145650     23  1.500                                             
     2     -5.4423304      7  1.500                                             
  local pseudopotential read in
  partial core-charges read in
  partial kinetic energy density read in
  atomic valenz-charges read in
  non local Contribution for L=           0  read in
    real space projection operators read in
  non local Contribution for L=           0  read in
    real space projection operators read in
  non local Contribution for L=           1  read in
    real space projection operators read in
  non local Contribution for L=           1  read in
    real space projection operators read in
    PAW grid and wavefunctions read in

   number of l-projection  operators is LMAX  =           4
   number of lm-projection operators is LMMAX =           8

 POTCAR:    PAW_PBE N 08Apr2002                   
   SHA256 =  e053789ff3a61a86a1b75d8a110fcc91f86041011e7b0817c7c99e4e8a6349d7 N/
   COPYR  = (c) Copyright 08Apr2002 Georg Kresse                                
   COPYR  = This file is part of the software VASP. Any use, copying, and all ot
   COPYR  = If you do not have a valid VASP license, you may not use, copy or di
   VRHFIN =N: s2p3                                                              
   LEXCH  = PE                                                                  
   EATOM  =   264.5486 eV,   19.4438 Ry                                         
                                                                                
   TITEL  = PAW_PBE N 08Apr2002                                                 
   LULTRA =        F    use ultrasoft PP ?                                      
   IUNSCR =        1    unscreen: 0-lin 1-nonlin 2-no                           
   RPACOR =    1.200    partial core radius                                     
   POMASS =   14.001; ZVAL   =    5.000    mass and valenz                      
   RCORE  =    1.500    outmost cutoff radius                                   
   RWIGS  =    1.400; RWIGS  =    0.741    wigner-seitz radius (au A)           
   ENMAX  =  400.000; ENMIN  =  300.000 eV                                      
   ICORE  =        2    local potential                                         
   LCOR   =        T    correct aug charges                                     
   LPAW   =        T    paw PP                                                  
   EAUG   =  627.112                                                            
   DEXC   =    0.000                                                            
   RMAX   =    1.529    core radius for proj-oper                               
   RAUG   =    1.300    factor for augmentation sphere                          
   RDEP   =    1.514    radius for radial grids                                 
   RDEPT  =    1.338    core radius for aug-charge                              
                                                                                
   Atomic configuration                                                         
    4 entries                                                                   
     n  l   j            E        occ.                                          
     1  0  0.50      -384.7179   2.0000                                         
     2  0  0.50       -18.5828   2.0000                                         
     2  1  0.50        -7.0898   3.0000                                         
     3  2  1.50        -6.8029   0.0000                                         
   Description                                                                  
     l       E           TYP  RCUT    TYP  RCUT                                 
     0    -18.5828119     23  1.200                                             
     0    -13.5018863     23  1.200                                             
     1     -7.0897853     23  1.500                                             
     1      9.5240782     23  1.500                                             
     2     -6.8029130      7  1.500                                             
  local pseudopotential read in
  partial core-charges read in
  partial kinetic energy density read in
  atomic valenz-charges read in
  non local Contribution for L=           0  read in
    real space projection operators read in
  non local Contribution for L=           0  read in
    real space projection operators read in
  non local Contribution for L=           1  read in
    real space projection operators read in
  non local Contribution for L=           1  read in
    real space projection operators read in
    PAW grid and wavefunctions read in

   number of l-projection  operators is LMAX  =           4
   number of lm-projection operators is LMMAX =           8

 POTCAR:    PAW_PBE Ge_d 03Jul2007                
   SHA256 =  944b26c40d2d7c4f4eb1ff3a2e8dbfdd7129146276cd341854bfd5c0e57780ed Ge
   COPYR  = (c) Copyright 03Jul2007 Georg Kresse                                
   COPYR  = This file is part of the software VASP. Any use, copying, and all ot
   COPYR  = If you do not have a valid VASP license, you may not use, copy or di
   VRHFIN =Ge: 3d4s4p                                                           
   LEXCH  = PE                                                                  
   EATOM  =  2596.2402 eV,  190.8183 Ry                                         
                                                                                
   TITEL  = PAW_PBE Ge_d 03Jul2007                                              
   LULTRA =        F    use ultrasoft PP ?                                      
   IUNSCR =        1    unscreen: 0-lin 1-nonlin 2-no                           
   RPACOR =    2.000    partial core radius                                     
   POMASS =   72.610; ZVAL   =   14.000    mass and valenz                      
   RCORE  =    2.300    outmost cutoff radius                                   
   RWIGS  =    2.300; RWIGS  =    1.217    wigner-seitz radius (au A)           
   ENMAX  =  310.294; ENMIN  =  232.720 eV                                      
   ICORE  =        3    local potential                                         
   LCOR   =        T    correct aug charges                                     
   LPAW   =        T    paw PP                                                  
   EAUG   =  531.356                                                            
   DEXC   =    0.000                                                            
   RMAX   =    2.342    core radius for proj-oper                               
   RAUG   =    1.300    factor for augmentation sphere                          
   RDEP   =    2.318    radius for radial grids                                 
   RDEPT  =    1.783    core radius for aug-charge                              
                                                                                
   Atomic configuration                                                         
    9 entries                                                                   
     n  l   j            E        occ.                                          
     1  0  0.50    -10959.8463   2.0000                                         
     2  0  0.50     -1371.6056   2.0000                                         
     2  1  1.50     -1198.4791   6.0000                                         
     3  0  0.50      -168.4733   2.0000                                         
     3  1  1.50      -115.6019   6.0000                                         
     3  2  2.50       -29.3106  10.0000                                         
     4  0  0.50       -11.7309   2.0000                                         
     4  1  0.50        -3.8952   2.0000                                         
     4  3  2.50        -4.0817   0.0000                                         
   Description                                                                  
     l       E           TYP  RCUT    TYP  RCUT                                 
     2    -29.3105938     23  2.200                                             
     2    -13.6058260     23  2.200                                             
     0    -11.7309493     23  2.300                                             
     0     -7.4578696     23  2.300                                             
     1     -3.8952261     23  2.300                                             
     1      6.1178114     23  2.300                                             
     3     -1.3605826     23  2.300                                             
  local pseudopotential read in
  partial core-charges read in
  partial kinetic energy density read in
  atomic valenz-charges read in
  non local Contribution for L=           2  read in
    real space projection operators read in
  non local Contribution for L=           2  read in
    real space projection operators read in
  non local Contribution for L=           0  read in
    real space projection operators read in
  non local Contribution for L=           0  read in
    real space projection operators read in
  non local Contribution for L=           1  read in
    real space projection operators read in
  non local Contribution for L=           1  read in
    real space projection operators read in
    PAW grid and wavefunctions read in

   number of l-projection  operators is LMAX  =           6
   number of lm-projection operators is LMMAX =          18

 POTCAR:    PAW_PBE C 08Apr2002                   
   SHA256 =  253f7b50bb8d59471dbedb8285d89021f4a42ed1a2c5d38a03a736e69125dd95 C/
   COPYR  = (c) Copyright 08Apr2002 Georg Kresse                                
   COPYR  = This file is part of the software VASP. Any use, copying, and all ot
   COPYR  = If you do not have a valid VASP license, you may not use, copy or di
   VRHFIN =C: s2p2                                                              
   LEXCH  = PE                                                                  
   EATOM  =   147.1560 eV,   10.8157 Ry                                         
                                                                                
   TITEL  = PAW_PBE C 08Apr2002                                                 
   LULTRA =        F    use ultrasoft PP ?                                      
   IUNSCR =        1    unscreen: 0-lin 1-nonlin 2-no                           
   RPACOR =    1.200    partial core radius                                     
   POMASS =   12.011; ZVAL   =    4.000    mass and valenz                      
   RCORE  =    1.500    outmost cutoff radius                                   
   RWIGS  =    1.630; RWIGS  =    0.863    wigner-seitz radius (au A)           
   ENMAX  =  400.000; ENMIN  =  300.000 eV                                      
   ICORE  =        2    local potential                                         
   LCOR   =        T    correct aug charges                                     
   LPAW   =        T    paw PP                                                  
   EAUG   =  644.873                                                            
   DEXC   =    0.000                                                            
   RMAX   =    1.529    core radius for proj-oper                               
   RAUG   =    1.300    factor for augmentation sphere                          
   RDEP   =    1.501    radius for radial grids                                 
   RDEPT  =    1.300    core radius for aug-charge                              
                                                                                
   Atomic configuration                                                         
    4 entries                                                                   
     n  l   j            E        occ.                                          
     1  0  0.50      -273.3789   2.0000                                         
     2  0  0.50       -13.7508   2.0000                                         
     2  1  0.50        -5.2854   2.0000                                         
     3  2  1.50        -5.4423   0.0000                                         
   Description                                                                  
     l       E           TYP  RCUT    TYP  RCUT                                 
     0    -13.7508458     23  1.200                                             
     0     -8.2022199     23  1.200                                             
     1     -5.2854383     23  1.500                                             
     1     34.0145650     23  1.500                                             
     2     -5.4423304      7  1.500                                             
  local pseudopotential read in
  partial core-charges read in
  partial kinetic energy density read in
  atomic valenz-charges read in
  non local Contribution for L=           0  read in
    real space projection operators read in
  non local Contribution for L=           0  read in
    real space projection operators read in
  non local Contribution for L=           1  read in
    real space projection operators read in
  non local Contribution for L=           1  read in
    real space projection operators read in
    PAW grid and wavefunctions read in

   number of l-projection  operators is LMAX  =           4
   number of lm-projection operators is LMMAX =           8

 POTCAR:    PAW_PBE O 08Apr2002                   
   SHA256 =  818f92134a0a090dccd8ba1447fa70422a3b330e708bb4f08108d8ae51209ddf O/
   COPYR  = (c) Copyright 08Apr2002 Georg Kresse                                
   COPYR  = This file is part of the software VASP. Any use, copying, and all ot
   COPYR  = If you do not have a valid VASP license, you may not use, copy or di
   VRHFIN =O: s2p4                                                              
   LEXCH  = PE                                                                  
   EATOM  =   432.3788 eV,   31.7789 Ry                                         
                                                                                
   TITEL  = PAW_PBE O 08Apr2002                                                 
   LULTRA =        F    use ultrasoft PP ?                                      
   IUNSCR =        1    unscreen: 0-lin 1-nonlin 2-no                           
   RPACOR =    1.200    partial core radius                                     
   POMASS =   16.000; ZVAL   =    6.000    mass and valenz                      
   RCORE  =    1.520    outmost cutoff radius                                   
   RWIGS  =    1.550; RWIGS  =    0.820    wigner-seitz radius (au A)           
   ENMAX  =  400.000; ENMIN  =  300.000 eV                                      
   ICORE  =        2    local potential                                         
   LCOR   =        T    correct aug charges                                     
   LPAW   =        T    paw PP                                                  
   EAUG   =  605.392                                                            
   DEXC   =    0.000                                                            
   RMAX   =    1.553    core radius for proj-oper                               
   RAUG   =    1.300    factor for augmentation sphere                          
   RDEP   =    1.550    radius for radial grids                                 
   RDEPT  =    1.329    core radius for aug-charge                              
                                                                                
   Atomic configuration                                                         
    4 entries                                                                   
     n  l   j            E        occ.                                          
     1  0  0.50      -514.6923   2.0000                                         
     2  0  0.50       -23.9615   2.0000                                         
     2  1  0.50        -9.0305   4.0000                                         
     3  2  1.50        -9.5241   0.0000                                         
   Description                                                                  
     l       E           TYP  RCUT    TYP  RCUT                                 
     0    -23.9615318     23  1.200                                             
     0     -9.5240782     23  1.200                                             
     1     -9.0304911     23  1.520                                             
     1      8.1634956     23  1.520                                             
     2     -9.5240782      7  1.500                                             
  local pseudopotential read in
  partial core-charges read in
  partial kinetic energy density read in
  kinetic energy density of atom read in
  atomic valenz-charges read in
  non local Contribution for L=           0  read in
    real space projection operators read in
  non local Contribution for L=           0  read in
    real space projection operators read in
  non local Contribution for L=           1  read in
    real space projection operators read in
  non local Contribution for L=           1  read in
    real space projection operators read in
    PAW grid and wavefunctions read in

   number of l-projection  operators is LMAX  =           4
   number of lm-projection operators is LMMAX =           8


 ----------------------------------------------------------------------------- 
|                                                                             |
|  ADVICE TO THIS USER RUNNING 'VASP/VAMP'   (HEAR YOUR MASTER'S VOICE ...):  |
|                                                                             |
|      You have a (more or less) 'large supercell' and for larger cells       |
|      it might be more efficient to use real space projection opertators     |
|      So try LREAL= Auto  in the INCAR   file.                               |
|      Mind:          For very  accurate calculation you might also keep the  |
|      reciprocal projection scheme          (i.e. LREAL=.FALSE.)             |
|                                                                             |
 ----------------------------------------------------------------------------- 

  PAW_PBE C 08Apr2002                   :
 energy of atom  1       EATOM= -147.1560
 kinetic energy error for atom=    0.0132 (will be added to EATOM!!)
  PAW_PBE N 08Apr2002                   :
 energy of atom  2       EATOM= -264.5486
 kinetic energy error for atom=    0.0298 (will be added to EATOM!!)
  PAW_PBE Ge_d 03Jul2007                :
 energy of atom  3       EATOM=-2596.2402
 kinetic energy error for atom=    0.0090 (will be added to EATOM!!)
  PAW_PBE C 08Apr2002                   :
 energy of atom  4       EATOM= -147.1560
 kinetic energy error for atom=    0.0132 (will be added to EATOM!!)
  PAW_PBE O 08Apr2002                   :
 energy of atom  5       EATOM= -432.3788
 kinetic energy error for atom=    0.0458 (will be added to EATOM!!)


 POSCAR: POSCAR-c3n4                             
  positions in direct lattice
  velocities in cartesian coordinates
 exchange correlation table for  LEXCH =        8
   RHO(1)=    0.500       N(1)  =     2000
   RHO(2)=  100.500       N(2)  =     4000



--------------------------------------------------------------------------------------------------------


 ion  position               nearest neighbor table
   1  0.048  0.118  0.474-  26 1.35  46 1.36  25 1.36
   2  0.274  0.513  0.487-  29 1.31  35 1.38   3 1.50
   3  0.182  0.507  0.488-  44 1.31  39 1.37   2 1.50
   4  0.557  0.077  0.479-  30 1.30  27 1.38  48 1.41
   5  0.371  0.458  0.455-  28 1.33  29 1.35  56 1.41
   6  0.043  0.978  0.500-  31 1.31  26 1.35  32 1.41
   7  0.047  0.694  0.518-  33 1.32  54 1.36  34 1.42
   8  0.409  0.950  0.464-  27 1.28  37 1.33
   9  0.023  0.829  0.521-  33 1.34  52 1.37  31 1.37
  10  0.436  0.616  0.513-  38 1.31  35 1.36  56 1.39
  11  0.519  0.911  0.477-  36 1.32  37 1.36  48 1.39
  12  0.116  0.603  0.510-  34 1.29  39 1.38  40 1.38
  13  0.713  0.197  0.498-  41 1.31  42 1.38  30 1.39
  14  0.859  0.364  0.484-  41 1.31  51 1.37  45 1.41
  15  0.477  0.418  0.428-  55 1.30  28 1.32
  16  0.902  0.984  0.475-  46 1.32  43 1.34  32 1.41
  17  0.020  0.432  0.477-  45 1.30  44 1.39  40 1.41
  18  0.673  0.040  0.521-  42 1.31  47 1.36  48 1.43
  19  0.594  0.719  0.512-  50 1.34  38 1.37  49 1.38
  20  0.763  0.852  0.504-  53 1.32  43 1.33  49 1.45
  21  0.634  0.885  0.512-  47 1.32  36 1.35  49 1.44
  22  0.949  0.531  0.496-  51 1.32  54 1.33  40 1.43
  23  0.889  0.836  0.522-  52 1.32  53 1.36  32 1.41
  24  0.543  0.569  0.469-  50 1.32  55 1.35  56 1.42
  25  0.103  0.216  0.471-   1 1.36
  26  0.096  0.074  0.490-   1 1.35   6 1.35
  27  0.463  0.041  0.466-   8 1.28   4 1.38
  28  0.387  0.392  0.429-  15 1.32   5 1.33
  29  0.283  0.443  0.461-   2 1.31   5 1.35
  30  0.621  0.168  0.481-   4 1.30  13 1.39
  31  0.082  0.927  0.511-   6 1.31   9 1.37
  32  0.944  0.933  0.499-  16 1.41   6 1.41  23 1.41
  33  0.072  0.785  0.523-   7 1.32   9 1.34
  34  0.127  0.685  0.527-  12 1.29   7 1.42
  35  0.347  0.599  0.514-  10 1.36   2 1.38  57 2.12
  36  0.551  0.852  0.477-  11 1.32  21 1.35
  37  0.427  0.879  0.466-   8 1.33  11 1.36
  38  0.508  0.695  0.539-  10 1.31  19 1.37
  39  0.194  0.594  0.509-   3 1.37  12 1.38  57 2.00
  40  0.030  0.522  0.494-  12 1.38  17 1.41  22 1.43
  41  0.773  0.289  0.490-  13 1.31  14 1.31
  42  0.736  0.133  0.527-  18 1.31  13 1.38
  43  0.807  0.936  0.469-  20 1.33  16 1.34
  44  0.102  0.429  0.471-   3 1.31  17 1.39
  45  0.937  0.355  0.468-  17 1.30  14 1.41
  46  0.954  0.078  0.461-  16 1.32   1 1.36
  47  0.691  0.971  0.541-  21 1.32  18 1.36
  48  0.582  0.008  0.491-  11 1.39   4 1.41  18 1.43
  49  0.663  0.816  0.515-  19 1.38  21 1.44  20 1.45
  50  0.614  0.658  0.481-  24 1.32  19 1.34
  51  0.865  0.451  0.491-  22 1.32  14 1.37
  52  0.928  0.785  0.532-  23 1.32   9 1.37
  53  0.795  0.800  0.533-  20 1.32  23 1.36
  54  0.960  0.617  0.503-  22 1.33   7 1.36
  55  0.554  0.497  0.445-  15 1.30  24 1.35
  56  0.449  0.547  0.478-  10 1.39   5 1.41  24 1.42
  57  0.316  0.705  0.546-  39 2.00  35 2.12
  58  0.260  0.584  0.679-  59 1.14
  59  0.251  0.557  0.738-  58 1.14


IMPORTANT INFORMATION: All symmetrisations will be switched off!
NOSYMM: (Re-)initialisation of all symmetry stuff for point group C_1.



 KPOINTS: K-Points                                

Automatic generation of k-mesh.
Space group operators:
 irot       det(A)        alpha          n_x          n_y          n_z        tau_x        tau_y        tau_z
    1     1.000000     0.000000     1.000000     0.000000     0.000000     0.000000     0.000000     0.000000
 
 Subroutine IBZKPT returns following result:
 ===========================================
 
 Found      5 irreducible k-points:
 
 Following reciprocal coordinates:
            Coordinates               Weight
  0.000000  0.000000  0.000000      1.000000
  0.333333  0.000000  0.000000      2.000000
  0.000000  0.333333  0.000000      2.000000
  0.333333  0.333333  0.000000      2.000000
 -0.333333  0.333333  0.000000      2.000000
 
 Following cartesian coordinates:
            Coordinates               Weight
  0.000000  0.000000  0.000000      1.000000
  0.024277  0.014368  0.000000      2.000000
  0.000396  0.028736  0.000000      2.000000
  0.024673  0.043104  0.000000      2.000000
 -0.023881  0.014368  0.000000      2.000000
 


--------------------------------------------------------------------------------------------------------




 Dimension of arrays:
   k-points           NKPTS =      5   k-points in BZ     NKDIM =      5   number of bands    NBANDS=    172
   number of dos      NEDOS =   4000   number of ions     NIONS =     59
   non local maximal  LDIM  =      6   non local SUM 2l+1 LMDIM =     18
   total plane-waves  NPLWV = 725760
   max r-space proj   IRMAX =      1   max aug-charges    IRDMAX=   6063
   dimension x,y,z NGX =    90 NGY =   84 NGZ =   96
   dimension x,y,z NGXF=   180 NGYF=  168 NGZF=  192
   support grid    NGXF=   180 NGYF=  168 NGZF=  192
   ions per type =              24  32   1   1   1
   NGX,Y,Z   is equivalent  to a cutoff of   9.01,  8.56,  8.87 a.u.
   NGXF,Y,Z  is equivalent  to a cutoff of  18.01, 17.13, 17.73 a.u.

 SYSTEM =  unknown system                          
 POSCAR =  POSCAR-c3n4                             

 Startparameter for this run:
   NWRITE =      2    write-flag & timer
   PREC   = normal    normal or accurate (medium, high low for compatibility)
   ISTART =      0    job   : 0-new  1-cont  2-samecut
   ICHARG =      2    charge: 1-file 2-atom 10-const
   ISPIN  =      2    spin polarized calculation?
   LNONCOLLINEAR =      F non collinear calculations
   LSORBIT =      F    spin-orbit coupling
   INIWAV =      1    electr: 0-lowe 1-rand  2-diag
   LASPH  =      F    aspherical Exc in radial PAW
   METAGGA=      F    non-selfconsistent MetaGGA calc.

 Electronic Relaxation 1
   ENCUT  =  440.0 eV  32.34 Ry    5.69 a.u.  28.42 27.89 30.79*2*pi/ulx,y,z
   ENINI  =  440.0     initial cutoff
   ENAUG  =  644.9 eV  augmentation charge cutoff
   NELM   =    200;   NELMIN=  2; NELMDL= -5     # of ELM steps 
   EDIFF  = 0.1E-03   stopping-criterion for ELM
   LREAL  =      F    real-space projection
   NLSPLINE    = F    spline interpolate recip. space projectors
   LCOMPAT=      F    compatible to vasp.4.4
   GGA_COMPAT  = T    GGA compatible to vasp.4.4-vasp.4.6
   LMAXPAW     = -100 max onsite density
   LMAXMIX     =    2 max onsite mixed and CHGCAR
   VOSKOWN=      0    Vosko Wilk Nusair interpolation
   ROPT   =    0.00000   0.00000   0.00000   0.00000
   ROPT   =    0.00000
 Ionic relaxation
   EDIFFG = -.1E-01   stopping-criterion for IOM
   NSW    =      0    number of steps for IOM
   NBLOCK =      1;   KBLOCK =      1    inner block; outer block 
   IBRION =     -1    ionic relax: 0-MD 1-quasi-New 2-CG
   NFREE  =      0    steps in history (QN), initial steepest desc. (CG)
   ISIF   =      2    stress and relaxation
   IWAVPR =     10    prediction:  0-non 1-charg 2-wave 3-comb
   ISYM   =      0    0-nonsym 1-usesym 2-fastsym
   LCORR  =      T    Harris-Foulkes like correction to forces

   POTIM  = 0.5000    time-step for ionic-motion
   TEIN   =    0.0    initial temperature
   TEBEG  =    0.0;   TEEND  =   0.0 temperature during run
   SMASS  =  -3.00    Nose mass-parameter (am)
   estimated Nose-frequenzy (Omega)   =  0.10E-29 period in steps =****** mass=  -0.631E-26a.u.
   SCALEE = 1.0000    scale energy and forces
   NPACO  =    256;   APACO  = 16.0  distance and # of slots for P.C.
   PSTRESS=    0.0 pullay stress

  Mass of Ions in am
   POMASS =  12.01 14.00 72.61 12.01 16.00
  Ionic Valenz
   ZVAL   =   4.00  5.00 14.00  4.00  6.00
  Atomic Wigner-Seitz radii
   RWIGS  =  -1.00 -1.00 -1.00 -1.00 -1.00
  virtual crystal weights 
   VCA    =   1.00  1.00  1.00  1.00  1.00
   NELECT =     280.0000    total number of electrons
   NUPDOWN=      -1.0000    fix difference up-down

 DOS related values:
   EMIN   = -14.00;   EMAX   =  6.00  energy-range for DOS
   EFERMI =   0.00
   ISMEAR =     0;   SIGMA  =   0.04  broadening in eV -4-tet -1-fermi 0-gaus

 Electronic relaxation 2 (details)
   IALGO  =     58    algorithm
   LDIAG  =      T    sub-space diagonalisation (order eigenvalues)
   LSUBROT=      F    optimize rotation matrix (better conditioning)
   TURBO    =      0    0=normal 1=particle mesh
   IRESTART =      0    0=no restart 2=restart with 2 vectors
   NREBOOT  =      0    no. of reboots
   NMIN     =      0    reboot dimension
   EREF     =   0.00    reference energy to select bands
   IMIX   =      4    mixing-type and parameters
     AMIX     =   0.25;   BMIX     =  0.00
     AMIX_MAG =   1.00;   BMIX_MAG =  0.00
     AMIN     =   0.10
     WC   =   100.;   INIMIX=   1;  MIXPRE=   1;  MAXMIX= -45

 Intra band minimization:
   WEIMIN = 0.0000     energy-eigenvalue tresh-hold
   EBREAK =  0.15E-06  absolut break condition
   DEPER  =   0.30     relativ break condition  

   TIME   =   0.40     timestep for ELM

  volume/ion in A,a.u.               =      70.55       476.07
  Fermi-wavevector in a.u.,A,eV,Ry     =   0.665811  1.258200  6.031519  0.443304
  Thomas-Fermi vector in A             =   1.739920

 Write flags
   LWAVE        =      F    write WAVECAR
   LDOWNSAMPLE  =      F    k-point downsampling of WAVECAR
   LCHARG       =      F    write CHGCAR
   LVTOT        =      F    write LOCPOT, total local potential
   LVHAR        =      F    write LOCPOT, Hartree potential only
   LELF         =      F    write electronic localiz. function (ELF)
   LORBIT       =     11    0 simple, 1 ext, 2 COOP (PROOUT), +10 PAW based schemes


 Dipole corrections
   LMONO  =      F    monopole corrections only (constant potential shift)
   LDIPOL =      F    correct potential (dipole corrections)
   IDIPOL =      0    1-x, 2-y, 3-z, 4-all directions 
   EPSILON=  1.0000000 bulk dielectric constant

 Exchange correlation treatment:
   GGA     =    --    GGA type
   LEXCH   =     8    internal setting for exchange type
   VOSKOWN=      0    Vosko Wilk Nusair interpolation
   LHFCALC =     F    Hartree Fock is set to
   LHFONE  =     F    Hartree Fock one center treatment
   AEXX    =    0.0000 exact exchange contribution

 Linear response parameters
   LEPSILON=     F    determine dielectric tensor
   LRPA    =     F    only Hartree local field effects (RPA)
   LNABLA  =     F    use nabla operator in PAW spheres
   LVEL    =     F    velocity operator in full k-point grid
   LINTERFAST=   F  fast interpolation
   KINTER  =     0    interpolate to denser k-point grid
   CSHIFT  =0.1000    complex shift for real part using Kramers Kronig
   OMEGAMAX=  -1.0    maximum frequency
   DEG_THRESHOLD= 0.2000000E-02 threshold for treating states as degnerate
   RTIME   =   -0.100 relaxation time in fs
  (WPLASMAI=    0.000 imaginary part of plasma frequency in eV, 0.658/RTIME)
   DFIELD  = 0.0000000 0.0000000 0.0000000 field for delta impulse in time

 Orbital magnetization related:
   ORBITALMAG=     F  switch on orbital magnetization
   LCHIMAG   =     F  perturbation theory with respect to B field
   DQ        =  0.001000  dq finite difference perturbation B field
   LLRAUG    =     F  two centre corrections for induced B field



--------------------------------------------------------------------------------------------------------


 Static calculation
 charge density and potential will be updated during run
 spin polarized calculation
 Conjugate gradient for all bands (Freysoldt, et al. PRB 79, 241103 (2009))
 preconditioned conjugated gradient                                        
 perform sub-space diagonalisation
    before iterative eigenvector-optimisation
 modified Broyden-mixing scheme, WC =      100.0
 initial mixing is a Kerker type mixing with AMIX =  0.2500 and BMIX =      0.0001
 Hartree-type preconditioning will be used
 using additional bands           32
 reciprocal scheme for non local part
 use partial core corrections
 no Harris-corrections to forces 
 use gradient corrections 
 use of overlap-Matrix (Vanderbilt PP)
 Gauss-broadening in eV      SIGMA  =   0.04


--------------------------------------------------------------------------------------------------------


  energy-cutoff  :      440.00
  volume of cell :     4162.27
      direct lattice vectors                 reciprocal lattice vectors
    16.612109082 -0.228888569  0.000000000     0.060691974  0.035920095 -0.000000000
    -8.306054541 14.034229193  0.000000000     0.000989844  0.071840191 -0.000000000
     0.000000000  0.000000000 18.000000000    -0.000000000 -0.000000000  0.055555556

  length of vectors
    16.613685868 16.307977528 18.000000000     0.070524953  0.071847009  0.055555556



 k-points in units of 2pi/SCALE and weight: K-Points                                
   0.00000000  0.00000000  0.00000000       0.111
   0.02427679  0.01436804  0.00000000       0.222
   0.00039594  0.02873608  0.00000000       0.222
   0.02467273  0.04310411  0.00000000       0.222
  -0.02388085  0.01436804  0.00000000       0.222

 k-points in reciprocal lattice and weights: K-Points                                
   0.00000000  0.00000000  0.00000000       0.111
   0.33333333  0.00000000  0.00000000       0.222
   0.00000000  0.33333333  0.00000000       0.222
   0.33333333  0.33333333  0.00000000       0.222
  -0.33333333  0.33333333  0.00000000       0.222

 position of ions in fractional coordinates (direct lattice) 
   0.04821405  0.11795830  0.47376312
   0.27442718  0.51303838  0.48695559
   0.18161732  0.50743249  0.48793917
   0.55697462  0.07749225  0.47892751
   0.37074719  0.45804718  0.45543763
   0.04273413  0.97785696  0.49994057
   0.04734092  0.69439758  0.51799071
   0.40891420  0.94952066  0.46393072
   0.02328699  0.82920868  0.52085687
   0.43612865  0.61603193  0.51298040
   0.51917642  0.91107592  0.47745392
   0.11581280  0.60296052  0.51049325
   0.71323105  0.19676069  0.49823941
   0.85857927  0.36394875  0.48399992
   0.47674216  0.41759069  0.42842523
   0.90159057  0.98431918  0.47466845
   0.02014792  0.43238658  0.47667481
   0.67329054  0.04039892  0.52095721
   0.59416379  0.71945288  0.51241273
   0.76263376  0.85214971  0.50440470
   0.63425678  0.88510759  0.51202056
   0.94886789  0.53054709  0.49598486
   0.88876191  0.83636423  0.52158836
   0.54290572  0.56926690  0.46882376
   0.10253642  0.21573422  0.47103473
   0.09560398  0.07396235  0.49036547
   0.46251751  0.04120425  0.46631552
   0.38710262  0.39222071  0.42853252
   0.28292474  0.44282523  0.46067435
   0.62058509  0.16834409  0.48058597
   0.08152658  0.92653083  0.51106551
   0.94369390  0.93309269  0.49859952
   0.07242932  0.78541819  0.52260327
   0.12683808  0.68510077  0.52726946
   0.34656277  0.59898920  0.51431920
   0.55119444  0.85199793  0.47721086
   0.42661216  0.87887645  0.46571723
   0.50751990  0.69534404  0.53949967
   0.19391127  0.59420370  0.50859352
   0.03031963  0.52182410  0.49363100
   0.77255528  0.28903450  0.48987537
   0.73605617  0.13266364  0.52679649
   0.80728407  0.93585895  0.46859144
   0.10194275  0.42936950  0.47126494
   0.93693230  0.35547904  0.46822991
   0.95417648  0.07756331  0.46062415
   0.69082826  0.97064284  0.54104297
   0.58187297  0.00800903  0.49131634
   0.66306665  0.81591632  0.51512110
   0.61382473  0.65773578  0.48090622
   0.86506844  0.45060224  0.49132113
   0.92809979  0.78488653  0.53238251
   0.79531450  0.80048972  0.53292360
   0.96043761  0.61741782  0.50335488
   0.55411346  0.49746516  0.44477574
   0.44878027  0.54717616  0.47823799
   0.31584308  0.70489593  0.54571484
   0.26005295  0.58448147  0.67863635
   0.25144729  0.55665179  0.73799679

 position of ions in cartesian coordinates  (Angst):
  -0.17883101  1.64441820  8.52773624
   0.29748956  7.13728492  8.76520062
  -1.19771515  7.07985367  8.78290514
   8.60886824  0.96005891  8.62069520
   2.35432793  6.34347932  8.19787729
  -7.41222926 13.71368738  8.99893026
  -4.98127155  9.73449896  9.32383270
  -1.09384311 13.23219476  8.35075295
  -6.50060645 11.63197447  9.37542365
   2.12822194  8.54570846  9.23364716
   1.05716905 12.66741479  8.59417051
  -3.08432809  8.43557797  9.18887856
  10.21396706  2.59813412  8.96830945
  11.23983430  4.91122116  8.71199848
   4.45116163  5.75144265  7.71165412
   6.80151200 13.60779723  8.54403207
  -3.25672701  6.06360072  8.58014659
  10.84922022  0.41285913  9.37722977
   3.89449887  9.96096935  9.22342916
   5.59095333 11.78470613  9.07928460
   3.18459084 12.27662863  9.21637017
  11.35594379  7.22863439  8.92772742
   7.81732289 11.53429982  9.38859040
   4.29044704  7.86495725  8.43882764
  -0.08855403  3.00419405  8.47862514
   0.97384838  1.01612191  8.82657839
   7.34114663  0.47240494  8.39367941
   3.17278428  5.41591199  7.71358545
   1.02184614  6.14995251  8.29213823
   8.91095206  2.22053477  8.65054741
  -6.34148721 12.98448551  9.19917913
   7.92642728 12.87923586  8.97479132
  -5.32052247 11.00616061  9.40685883
  -3.58343634  9.58582946  9.49085032
   0.78190158  8.32702742  9.25774554
   2.07976077 11.83097218  8.58979544
  -0.21306796 12.23670686  8.38291007
   2.65541040  9.64245212  9.71099406
  -1.71421315  8.29480688  9.15468331
  -3.83062645  7.31645914  8.88535796
  10.43303630  3.87954733  8.81775667
  11.12553395  1.69335702  9.48233686
   5.63739559 12.94928091  8.43464600
  -1.87288250  6.00253649  8.48276898
  12.61179328  4.77442118  8.42813832
  15.20663867  0.87014119  8.29123461
   3.41390198 13.46410145  9.73877348
   9.59961390 -0.02078356  8.84369415
   4.23789012 11.29898823  9.27217984
   4.73373416  9.09031723  8.65631201
  10.62788447  6.12585088  8.84378026
   8.89838459 10.80284599  9.58288523
   6.56293999 11.05221776  9.59262473
  10.82658815  8.44515006  9.06038785
   5.07302056  6.85470981  8.00596340
   2.91031179  7.57647501  8.60828382
  -0.60808434  9.82037816  9.82286716
  -0.53470702  8.14322374 12.21545424
  -0.44651031  7.75462533 13.28394224



--------------------------------------------------------------------------------------------------------


 k-point  1 :   0.0000 0.0000 0.0000  plane waves:   87267
 k-point  2 :   0.3333 0.0000 0.0000  plane waves:   87219
 k-point  3 :   0.0000 0.3333 0.0000  plane waves:   87239
 k-point  4 :   0.3333 0.3333 0.0000  plane waves:   87203
 k-point  5 :  -0.3333 0.3333 0.0000  plane waves:   87233

 maximum and minimum number of plane-waves per node :      7296     7250

 maximum number of plane-waves:     87267
 maximum index in each direction: 
   IXMAX=   28   IYMAX=   27   IZMAX=   30
   IXMIN=  -28   IYMIN=  -28   IZMIN=  -30


 parallel 3D FFT for wavefunctions:
    minimum data exchange during FFTs selected (reduces bandwidth)
 parallel 3D FFT for charge:
    minimum data exchange during FFTs selected (reduces bandwidth)


 total amount of memory used by VASP MPI-rank0   239660. kBytes
=======================================================================

   base      :      30000. kBytes
   nonl-proj :      33098. kBytes
   fftplans  :       6275. kBytes
   grid      :      18719. kBytes
   one-center:        155. kBytes
   wavefun   :     151413. kBytes

     INWAV:  cpu time    0.0001: real time    0.0000
 Broyden mixing: mesh for mixing (old mesh)
   NGX = 57   NGY = 55   NGZ = 61
  (NGX  =180   NGY  =168   NGZ  =192)
  gives a total of 191235 points

 initial charge density was supplied:
 charge density of overlapping atoms calculated
 number of electron     280.0000000 magnetization       2.0000000
 keeping initial charge density in first step


--------------------------------------------------------------------------------------------------------


 Maximum index for augmentation-charges          175 (set IRDMAX)


--------------------------------------------------------------------------------------------------------


 First call to EWALD:  gamma=   0.110
 Maximum number of real-space cells 3x 3x 3
 Maximum number of reciprocal cells 3x 3x 3

    FEWALD:  cpu time    0.0043: real time    0.0043


--------------------------------------- Iteration      1(   1)  ---------------------------------------


    POTLOK:  cpu time    0.2072: real time    0.2072
    SETDIJ:  cpu time    0.0095: real time    0.0096
    TRIAL :  cpu time   24.0877: real time   24.1662
    CORREC:  cpu time    0.0049: real time    0.0049
    --------------------------------------------
      LOOP:  cpu time   24.3974: real time   24.4837

 eigenvalue-minimisations  :  4312
 total energy-change (2. order) : 0.2654148E+04  (-0.9646012E+04)
 number of electron     280.0000000 magnetization       2.0000000
 augmentation part      280.0000000 magnetization       2.0000000

 Free energy of the ion-electron system (eV)
  ---------------------------------------------------
  alpha Z        PSCENC =        89.52339426
  Ewald energy   TEWEN  =     31602.98740218
  -Hartree energ DENC   =    -43224.92403990
  -exchange      EXHF   =         0.00000000
  -V(xc)+E(xc)   XCENC  =      1060.69948103
  PAW double counting   =     11453.83848114   -11942.90478952
  entropy T*S    EENTRO =        -0.02321089
  eigenvalues    EBANDS =     -1556.78480750
  atomic energy  EATOM  =     15171.73615219
  ---------------------------------------------------
  free energy    TOTEN  =      2654.14806300 eV

  energy without entropy =     2654.17127388  energy(sigma->0) =     2654.15966844


--------------------------------------------------------------------------------------------------------




--------------------------------------- Iteration      1(   2)  ---------------------------------------


    TRIAL :  cpu time   28.0335: real time   28.0827
    CORREC:  cpu time    0.0026: real time    0.0026
    --------------------------------------------
      LOOP:  cpu time   28.0441: real time   28.0985

 eigenvalue-minimisations  :  5120
 total energy-change (2. order) :-0.2411996E+04  (-0.2289528E+04)
 number of electron     280.0000000 magnetization       2.0000000
 augmentation part      280.0000000 magnetization       2.0000000

 Free energy of the ion-electron system (eV)
  ---------------------------------------------------
  alpha Z        PSCENC =        89.52339426
  Ewald energy   TEWEN  =     31602.98740218
  -Hartree energ DENC   =    -43224.92403990
  -exchange      EXHF   =         0.00000000
  -V(xc)+E(xc)   XCENC  =      1060.69948103
  PAW double counting   =     11453.83848114   -11942.90478952
  entropy T*S    EENTRO =        -0.00259222
  eigenvalues    EBANDS =     -3968.80106983
  atomic energy  EATOM  =     15171.73615219
  ---------------------------------------------------
  free energy    TOTEN  =       242.15241933 eV

  energy without entropy =      242.15501155  energy(sigma->0) =      242.15371544


--------------------------------------------------------------------------------------------------------




--------------------------------------- Iteration      1(   3)  ---------------------------------------


    TRIAL :  cpu time   23.2107: real time   23.2726
    CORREC:  cpu time    0.0026: real time    0.0026
    --------------------------------------------
      LOOP:  cpu time   23.2225: real time   23.2907

 eigenvalue-minimisations  :  4120
 total energy-change (2. order) :-0.7215650E+03  (-0.7144692E+03)
 number of electron     280.0000000 magnetization       2.0000000
 augmentation part      280.0000000 magnetization       2.0000000

 Free energy of the ion-electron system (eV)
  ---------------------------------------------------
  alpha Z        PSCENC =        89.52339426
  Ewald energy   TEWEN  =     31602.98740218
  -Hartree energ DENC   =    -43224.92403990
  -exchange      EXHF   =         0.00000000
  -V(xc)+E(xc)   XCENC  =      1060.69948103
  PAW double counting   =     11453.83848114   -11942.90478952
  entropy T*S    EENTRO =        -0.00000000
  eigenvalues    EBANDS =     -4690.36869413
  atomic energy  EATOM  =     15171.73615219
  ---------------------------------------------------
  free energy    TOTEN  =      -479.41261275 eV

  energy without entropy =     -479.41261275  energy(sigma->0) =     -479.41261275


--------------------------------------------------------------------------------------------------------




--------------------------------------- Iteration      1(   4)  ---------------------------------------


    TRIAL :  cpu time   24.3402: real time   24.3955
    CORREC:  cpu time    0.0024: real time    0.0024
    --------------------------------------------
      LOOP:  cpu time   24.3526: real time   24.4084

 eigenvalue-minimisations  :  4232
 total energy-change (2. order) :-0.4111173E+02  (-0.4010979E+02)
 number of electron     280.0000000 magnetization       2.0000000
 augmentation part      280.0000000 magnetization       2.0000000

 Free energy of the ion-electron system (eV)
  ---------------------------------------------------
  alpha Z        PSCENC =        89.52339426
  Ewald energy   TEWEN  =     31602.98740218
  -Hartree energ DENC   =    -43224.92403990
  -exchange      EXHF   =         0.00000000
  -V(xc)+E(xc)   XCENC  =      1060.69948103
  PAW double counting   =     11453.83848114   -11942.90478952
  entropy T*S    EENTRO =        -0.00000000
  eigenvalues    EBANDS =     -4731.48042855
  atomic energy  EATOM  =     15171.73615219
  ---------------------------------------------------
  free energy    TOTEN  =      -520.52434717 eV

  energy without entropy =     -520.52434717  energy(sigma->0) =     -520.52434717


--------------------------------------------------------------------------------------------------------




--------------------------------------- Iteration      1(   5)  ---------------------------------------


    TRIAL :  cpu time   25.7874: real time   25.8535
    CORREC:  cpu time    0.0024: real time    0.0024
    CHARGE:  cpu time    0.4022: real time    0.4022
    --------------------------------------------
      LOOP:  cpu time   26.1985: real time   26.2759

 eigenvalue-minimisations  :  4792
 total energy-change (2. order) :-0.1576295E+01  (-0.1553628E+01)
 number of electron     280.0000008 magnetization       0.0000001
 augmentation part       20.1699443 magnetization       0.0311443

 Free energy of the ion-electron system (eV)
  ---------------------------------------------------
  alpha Z        PSCENC =        89.52339426
  Ewald energy   TEWEN  =     31602.98740218
  -Hartree energ DENC   =    -43224.92403990
  -exchange      EXHF   =         0.00000000
  -V(xc)+E(xc)   XCENC  =      1060.69948103
  PAW double counting   =     11453.83848114   -11942.90478952
  entropy T*S    EENTRO =        -0.00000000
  eigenvalues    EBANDS =     -4733.05672350
  atomic energy  EATOM  =     15171.73615219
  ---------------------------------------------------
  free energy    TOTEN  =      -522.10064212 eV

  energy without entropy =     -522.10064212  energy(sigma->0) =     -522.10064212


--------------------------------------------------------------------------------------------------------




--------------------------------------- Iteration      1(   6)  ---------------------------------------


    POTLOK:  cpu time    0.1888: real time    0.1889
    SETDIJ:  cpu time    0.0098: real time    0.0098
    TRIAL :  cpu time   10.1221: real time   10.1516
    CORREC:  cpu time    2.1207: real time    2.1244
    CHARGE:  cpu time    0.4241: real time    0.4250
    --------------------------------------------
      LOOP:  cpu time   12.8722: real time   12.9167

 eigenvalue-minimisations  :     0
 total energy-change (2. order) : 0.1128536E+03  (-0.2968163E+02)
 number of electron     280.0000003 magnetization       0.0000001
 augmentation part       19.1522153 magnetization       0.0238906

 Free energy of the ion-electron system (eV)
  ---------------------------------------------------
  alpha Z        PSCENC =        89.52339426
  Ewald energy   TEWEN  =     31602.98740218
  -Hartree energ DENC   =    -44502.56335824
  -exchange      EXHF   =         0.00000000
  -V(xc)+E(xc)   XCENC  =      1129.00541508
  PAW double counting   =     28923.76629146   -29422.64351639
  entropy T*S    EENTRO =        -0.00000000
  eigenvalues    EBANDS =     -3401.05885014
  atomic energy  EATOM  =     15171.73615219
  ---------------------------------------------------
  free energy    TOTEN  =      -409.24706959 eV

  energy without entropy =     -409.24706959  energy(sigma->0) =     -409.24706959


--------------------------------------------------------------------------------------------------------




--------------------------------------- Iteration      1(   7)  ---------------------------------------


    POTLOK:  cpu time    0.1986: real time    0.1986
    SETDIJ:  cpu time    0.0105: real time    0.0105
    TRIAL :  cpu time   10.4934: real time   10.5213
    CORREC:  cpu time    2.1089: real time    2.1114
    CHARGE:  cpu time    0.4400: real time    0.4411
    --------------------------------------------
      LOOP:  cpu time   13.2584: real time   13.2924

 eigenvalue-minimisations  :     0
 total energy-change (2. order) :-0.1226318E+02  (-0.2072603E+02)
 number of electron     280.0000003 magnetization      -0.0000608
 augmentation part       18.6592804 magnetization       0.0153487

 Free energy of the ion-electron system (eV)
  ---------------------------------------------------
  alpha Z        PSCENC =        89.52339426
  Ewald energy   TEWEN  =     31602.98740218
  -Hartree energ DENC   =    -44087.66680658
  -exchange      EXHF   =         0.00000000
  -V(xc)+E(xc)   XCENC  =      1108.68139783
  PAW double counting   =     29374.95986815   -29877.05765997
  entropy T*S    EENTRO =        -0.00140917
  eigenvalues    EBANDS =     -3804.67399650
  atomic energy  EATOM  =     15171.73615219
  ---------------------------------------------------
  free energy    TOTEN  =      -421.51024844 eV

  energy without entropy =     -421.50883926  energy(sigma->0) =     -421.50954385


--------------------------------------------------------------------------------------------------------




--------------------------------------- Iteration      1(   8)  ---------------------------------------


    POTLOK:  cpu time    0.1993: real time    0.1994
    SETDIJ:  cpu time    0.0100: real time    0.0100
    TRIAL :  cpu time    9.9582: real time    9.9750
    CORREC:  cpu time    2.2486: real time    2.2534
    CHARGE:  cpu time    0.4495: real time    0.4495
    --------------------------------------------
      LOOP:  cpu time   12.8790: real time   12.9013

 eigenvalue-minimisations  :     0
 total energy-change (2. order) :-0.3361396E+02  (-0.2552747E+02)
 number of electron     280.0000001 magnetization       0.0000001
 augmentation part       18.3255209 magnetization       0.0157583

 Free energy of the ion-electron system (eV)
  ---------------------------------------------------
  alpha Z        PSCENC =        89.52339426
  Ewald energy   TEWEN  =     31602.98740218
  -Hartree energ DENC   =    -43810.24710989
  -exchange      EXHF   =         0.00000000
  -V(xc)+E(xc)   XCENC  =      1090.87107177
  PAW double counting   =     29803.17575249   -30306.29218050
  entropy T*S    EENTRO =        -0.00000000
  eigenvalues    EBANDS =     -4096.87727853
  atomic energy  EATOM  =     15171.73615219
  ---------------------------------------------------
  free energy    TOTEN  =      -455.12420521 eV

  energy without entropy =     -455.12420521  energy(sigma->0) =     -455.12420521


--------------------------------------------------------------------------------------------------------




--------------------------------------- Iteration      1(   9)  ---------------------------------------


    POTLOK:  cpu time    0.2131: real time    0.2144
    SETDIJ:  cpu time    0.0108: real time    0.0108
    TRIAL :  cpu time    9.9486: real time    9.9674
    CORREC:  cpu time    2.1519: real time    2.1538
    CHARGE:  cpu time    0.4637: real time    0.4648
    --------------------------------------------
      LOOP:  cpu time   12.7906: real time   12.8234

 eigenvalue-minimisations  :     0
 total energy-change (2. order) : 0.1529575E+02  (-0.8286983E+01)
 number of electron     280.0000003 magnetization       0.0000000
 augmentation part       18.6271644 magnetization       0.0151056

 Free energy of the ion-electron system (eV)
  ---------------------------------------------------
  alpha Z        PSCENC =        89.52339426
  Ewald energy   TEWEN  =     31602.98740218
  -Hartree energ DENC   =    -43825.81433343
  -exchange      EXHF   =         0.00000000
  -V(xc)+E(xc)   XCENC  =      1092.28643600
  PAW double counting   =     29859.69276735   -30360.24568079
  entropy T*S    EENTRO =        -0.00000000
  eigenvalues    EBANDS =     -4069.99459244
  atomic energy  EATOM  =     15171.73615219
  ---------------------------------------------------
  free energy    TOTEN  =      -439.82845467 eV

  energy without entropy =     -439.82845467  energy(sigma->0) =     -439.82845467


--------------------------------------------------------------------------------------------------------




--------------------------------------- Iteration      1(  10)  ---------------------------------------


    POTLOK:  cpu time    0.2134: real time    0.2134
    SETDIJ:  cpu time    0.0103: real time    0.0103
    TRIAL :  cpu time    9.9444: real time    9.9574
    CORREC:  cpu time    2.1977: real time    2.2006
    CHARGE:  cpu time    0.4456: real time    0.4457
    --------------------------------------------
      LOOP:  cpu time   12.8215: real time   12.8379

 eigenvalue-minimisations  :     0
 total energy-change (2. order) :-0.1513885E+02  (-0.3732922E+01)
 number of electron     280.0000005 magnetization      -0.0000026
 augmentation part       18.4385343 magnetization       0.0151755

 Free energy of the ion-electron system (eV)
  ---------------------------------------------------
  alpha Z        PSCENC =        89.52339426
  Ewald energy   TEWEN  =     31602.98740218
  -Hartree energ DENC   =    -43979.01701363
  -exchange      EXHF   =         0.00000000
  -V(xc)+E(xc)   XCENC  =      1096.57414409
  PAW double counting   =     29830.29078195   -30329.14625813
  entropy T*S    EENTRO =        -0.00000492
  eigenvalues    EBANDS =     -3937.91590355
  atomic energy  EATOM  =     15171.73615219
  ---------------------------------------------------
  free energy    TOTEN  =      -454.96730064 eV

  energy without entropy =     -454.96729571  energy(sigma->0) =     -454.96729817


--------------------------------------------------------------------------------------------------------




--------------------------------------- Iteration      1(  11)  ---------------------------------------


    POTLOK:  cpu time    0.1979: real time    0.2033
    SETDIJ:  cpu time    0.0100: real time    0.0100
    TRIAL :  cpu time    9.9557: real time    9.9797
    CORREC:  cpu time    2.2207: real time    2.2267
    CHARGE:  cpu time    0.4581: real time    0.4582
    --------------------------------------------
      LOOP:  cpu time   12.8585: real time   12.8968

 eigenvalue-minimisations  :     0
 total energy-change (2. order) :-0.1726531E+02  (-0.4207494E+00)
 number of electron     280.0000006 magnetization      -0.0102761
 augmentation part       18.4149523 magnetization       0.0122749

 Free energy of the ion-electron system (eV)
  ---------------------------------------------------
  alpha Z        PSCENC =        89.52339426
  Ewald energy   TEWEN  =     31602.98740218
  -Hartree energ DENC   =    -43888.22259847
  -exchange      EXHF   =         0.00000000
  -V(xc)+E(xc)   XCENC  =      1095.06801241
  PAW double counting   =     29818.97519055   -30317.93841218
  entropy T*S    EENTRO =        -0.04521732
  eigenvalues    EBANDS =     -4044.36175112
  atomic energy  EATOM  =     15171.73615219
  ---------------------------------------------------
  free energy    TOTEN  =      -472.23261509 eV

  energy without entropy =     -472.18739777  energy(sigma->0) =     -472.21000643


--------------------------------------------------------------------------------------------------------




--------------------------------------- Iteration      1(  12)  ---------------------------------------


    POTLOK:  cpu time    0.2224: real time    0.2224
    SETDIJ:  cpu time    0.0112: real time    0.0112
    TRIAL :  cpu time   10.0020: real time   10.0306
    CORREC:  cpu time    2.0323: real time    2.0377
    CHARGE:  cpu time    0.3926: real time    0.3927
    --------------------------------------------
      LOOP:  cpu time   12.6716: real time   12.7070

 eigenvalue-minimisations  :     0
 total energy-change (2. order) :-0.4878572E+01  (-0.2699927E+02)
 number of electron     280.0000010 magnetization       0.0001225
 augmentation part       18.4369287 magnetization       0.0146256

 Free energy of the ion-electron system (eV)
  ---------------------------------------------------
  alpha Z        PSCENC =        89.52339426
  Ewald energy   TEWEN  =     31602.98740218
  -Hartree energ DENC   =    -43903.85099411
  -exchange      EXHF   =         0.00000000
  -V(xc)+E(xc)   XCENC  =      1094.70544072
  PAW double counting   =     29814.07843826   -30313.20680279
  entropy T*S    EENTRO =        -0.00022605
  eigenvalues    EBANDS =     -4033.03900010
  atomic energy  EATOM  =     15171.73615219
  ---------------------------------------------------
  free energy    TOTEN  =      -477.11118670 eV

  energy without entropy =     -477.11096065  energy(sigma->0) =     -477.11107367


--------------------------------------------------------------------------------------------------------




--------------------------------------- Iteration      1(  13)  ---------------------------------------


    POTLOK:  cpu time    0.1835: real time    0.1890
    SETDIJ:  cpu time    0.0096: real time    0.0096
    TRIAL :  cpu time    9.9834: real time   10.0069
    CORREC:  cpu time    2.2466: real time    2.2517
    CHARGE:  cpu time    0.4581: real time    0.4582
    --------------------------------------------
      LOOP:  cpu time   12.8896: real time   12.9319

 eigenvalue-minimisations  :     0
 total energy-change (2. order) : 0.7762953E+01  (-0.1727797E+01)
 number of electron     280.0000003 magnetization      -0.0149515
 augmentation part       18.5498369 magnetization       0.0122676

 Free energy of the ion-electron system (eV)
  ---------------------------------------------------
  alpha Z        PSCENC =        89.52339426
  Ewald energy   TEWEN  =     31602.98740218
  -Hartree energ DENC   =    -43985.94978740
  -exchange      EXHF   =         0.00000000
  -V(xc)+E(xc)   XCENC  =      1095.24742130
  PAW double counting   =     29819.05677484   -30318.46832932
  entropy T*S    EENTRO =        -0.02499874
  eigenvalues    EBANDS =     -3943.48103610
  atomic energy  EATOM  =     15171.73615219
  ---------------------------------------------------
  free energy    TOTEN  =      -469.34823411 eV

  energy without entropy =     -469.32323537  energy(sigma->0) =     -469.33573474


--------------------------------------------------------------------------------------------------------




--------------------------------------- Iteration      1(  14)  ---------------------------------------


    POTLOK:  cpu time    0.2179: real time    0.2179
    SETDIJ:  cpu time    0.0119: real time    0.0119
    TRIAL :  cpu time   10.5233: real time   10.5547
    CORREC:  cpu time    2.1738: real time    2.1788
    CHARGE:  cpu time    0.4172: real time    0.4172
    --------------------------------------------
      LOOP:  cpu time   13.3475: real time   13.3929

 eigenvalue-minimisations  :     0
 total energy-change (2. order) : 0.7101565E+00  (-0.1054502E+03)
 number of electron     280.0000002 magnetization       0.0000001
 augmentation part       18.2424491 magnetization       0.0139197

 Free energy of the ion-electron system (eV)
  ---------------------------------------------------
  alpha Z        PSCENC =        89.52339426
  Ewald energy   TEWEN  =     31602.98740218
  -Hartree energ DENC   =    -43955.73661927
  -exchange      EXHF   =         0.00000000
  -V(xc)+E(xc)   XCENC  =      1095.87643705
  PAW double counting   =     29805.76222074   -30305.19680647
  entropy T*S    EENTRO =        -0.00000002
  eigenvalues    EBANDS =     -3973.56525952
  atomic energy  EATOM  =     15171.73615219
  ---------------------------------------------------
  free energy    TOTEN  =      -468.63807757 eV

  energy without entropy =     -468.63807755  energy(sigma->0) =     -468.63807756


--------------------------------------------------------------------------------------------------------




--------------------------------------- Iteration      1(  15)  ---------------------------------------


    POTLOK:  cpu time    0.1954: real time    0.1954
    SETDIJ:  cpu time    0.0101: real time    0.0101
    TRIAL :  cpu time    9.9332: real time    9.9590
    CORREC:  cpu time    1.9011: real time    1.9047
    CHARGE:  cpu time    0.3865: real time    0.3865
    --------------------------------------------
      LOOP:  cpu time   12.4314: real time   12.4689

 eigenvalue-minimisations  :     0
 total energy-change (2. order) : 0.2049263E+02  (-0.5677477E+01)
 number of electron     280.0000003 magnetization       0.0000000
 augmentation part       18.5768565 magnetization       0.0133393

 Free energy of the ion-electron system (eV)
  ---------------------------------------------------
  alpha Z        PSCENC =        89.52339426
  Ewald energy   TEWEN  =     31602.98740218
  -Hartree energ DENC   =    -43913.04158681
  -exchange      EXHF   =         0.00000000
  -V(xc)+E(xc)   XCENC  =      1094.62515261
  PAW double counting   =     29843.58862913   -30342.94233549
  entropy T*S    EENTRO =        -0.00000000
  eigenvalues    EBANDS =     -3994.62225281
  atomic energy  EATOM  =     15171.73615219
  ---------------------------------------------------
  free energy    TOTEN  =      -448.14544476 eV

  energy without entropy =     -448.14544476  energy(sigma->0) =     -448.14544476


--------------------------------------------------------------------------------------------------------




--------------------------------------- Iteration      1(  16)  ---------------------------------------


    POTLOK:  cpu time    0.1902: real time    0.1902
    SETDIJ:  cpu time    0.0096: real time    0.0096
    TRIAL :  cpu time   10.0350: real time   10.0749
    CORREC:  cpu time    2.0975: real time    2.1038
    CHARGE:  cpu time    0.4001: real time    0.4019
    --------------------------------------------
      LOOP:  cpu time   12.7496: real time   12.7985

 eigenvalue-minimisations  :     0
 total energy-change (2. order) :-0.8088872E+01  (-0.2167238E+01)
 number of electron     280.0000005 magnetization       0.0002010
 augmentation part       18.3984704 magnetization       0.0134505

 Free energy of the ion-electron system (eV)
  ---------------------------------------------------
  alpha Z        PSCENC =        89.52339426
  Ewald energy   TEWEN  =     31602.98740218
  -Hartree energ DENC   =    -43997.53986828
  -exchange      EXHF   =         0.00000000
  -V(xc)+E(xc)   XCENC  =      1096.65237992
  PAW double counting   =     29820.27450530   -30319.88817735
  entropy T*S    EENTRO =        -0.00007025
  eigenvalues    EBANDS =     -3919.98010525
  atomic energy  EATOM  =     15171.73615219
  ---------------------------------------------------
  free energy    TOTEN  =      -456.23431702 eV

  energy without entropy =     -456.23424678  energy(sigma->0) =     -456.23428190


--------------------------------------------------------------------------------------------------------




--------------------------------------- Iteration      1(  17)  ---------------------------------------


    POTLOK:  cpu time    0.1956: real time    0.1956
    SETDIJ:  cpu time    0.0099: real time    0.0099
    TRIAL :  cpu time    9.8205: real time    9.8496
    CORREC:  cpu time    1.9342: real time    1.9377
    CHARGE:  cpu time    0.4689: real time    0.4762
    --------------------------------------------
      LOOP:  cpu time   12.4314: real time   12.4826

 eigenvalue-minimisations  :     0
 total energy-change (2. order) :-0.1891002E+02  (-0.2252221E+01)
 number of electron     280.0000009 magnetization      -0.0004098
 augmentation part       18.4051944 magnetization       0.0127528

 Free energy of the ion-electron system (eV)
  ---------------------------------------------------
  alpha Z        PSCENC =        89.52339426
  Ewald energy   TEWEN  =     31602.98740218
  -Hartree energ DENC   =    -43909.30980053
  -exchange      EXHF   =         0.00000000
  -V(xc)+E(xc)   XCENC  =      1095.00972491
  PAW double counting   =     29804.98626306   -30304.45148278
  entropy T*S    EENTRO =        -0.00240361
  eigenvalues    EBANDS =     -4025.62592135
  atomic energy  EATOM  =     15171.73615219
  ---------------------------------------------------
  free energy    TOTEN  =      -475.14433830 eV

  energy without entropy =     -475.14193469  energy(sigma->0) =     -475.14313649


--------------------------------------------------------------------------------------------------------




--------------------------------------- Iteration      1(  18)  ---------------------------------------


    POTLOK:  cpu time    0.2160: real time    0.2166
    SETDIJ:  cpu time    0.0100: real time    0.0100
    TRIAL :  cpu time    9.9285: real time    9.9533
    CORREC:  cpu time    2.0944: real time    2.0982
    CHARGE:  cpu time    0.4252: real time    0.4253
    --------------------------------------------
      LOOP:  cpu time   12.6930: real time   12.7230

 eigenvalue-minimisations  :     0
 total energy-change (2. order) : 0.4385094E+01  (-0.6442283E+01)
 number of electron     280.0000004 magnetization      -0.0318528
 augmentation part       18.4170482 magnetization       0.0089018

 Free energy of the ion-electron system (eV)
  ---------------------------------------------------
  alpha Z        PSCENC =        89.52339426
  Ewald energy   TEWEN  =     31602.98740218
  -Hartree energ DENC   =    -43993.68933171
  -exchange      EXHF   =         0.00000000
  -V(xc)+E(xc)   XCENC  =      1095.11562875
  PAW double counting   =     29811.07757478   -30310.73779185
  entropy T*S    EENTRO =        -0.02105380
  eigenvalues    EBANDS =     -3936.76986911
  atomic energy  EATOM  =     15171.73615219
  ---------------------------------------------------
  free energy    TOTEN  =      -470.75924412 eV

  energy without entropy =     -470.73819032  energy(sigma->0) =     -470.74871722


--------------------------------------------------------------------------------------------------------




--------------------------------------- Iteration      1(  19)  ---------------------------------------


    POTLOK:  cpu time    0.1970: real time    0.1989
    SETDIJ:  cpu time    0.0104: real time    0.0104
    TRIAL :  cpu time   10.5454: real time   10.5740
    CORREC:  cpu time    2.0485: real time    2.0530
    CHARGE:  cpu time    0.4115: real time    0.4115
    --------------------------------------------
      LOOP:  cpu time   13.2169: real time   13.2569

 eigenvalue-minimisations  :     0
 total energy-change (2. order) :-0.6546824E+01  (-0.4835892E+01)
 number of electron     280.0000003 magnetization      -0.0042918
 augmentation part       18.5405152 magnetization       0.0113903

 Free energy of the ion-electron system (eV)
  ---------------------------------------------------
  alpha Z        PSCENC =        89.52339426
  Ewald energy   TEWEN  =     31602.98740218
  -Hartree energ DENC   =    -43903.17034674
  -exchange      EXHF   =         0.00000000
  -V(xc)+E(xc)   XCENC  =      1095.02342810
  PAW double counting   =     29794.76691736   -30294.20452719
  entropy T*S    EENTRO =        -0.00245120
  eigenvalues    EBANDS =     -4033.94743463
  atomic energy  EATOM  =     15171.73615219
  ---------------------------------------------------
  free energy    TOTEN  =      -477.30606827 eV

  energy without entropy =     -477.30361707  energy(sigma->0) =     -477.30484267


--------------------------------------------------------------------------------------------------------




--------------------------------------- Iteration      1(  20)  ---------------------------------------


    POTLOK:  cpu time    0.1948: real time    0.1963
    SETDIJ:  cpu time    0.0105: real time    0.0105
    TRIAL :  cpu time   10.1692: real time   10.1951
    CORREC:  cpu time    2.1595: real time    2.1627
    CHARGE:  cpu time    0.4151: real time    0.4154
    --------------------------------------------
      LOOP:  cpu time   12.9733: real time   13.0057

 eigenvalue-minimisations  :     0
 total energy-change (2. order) : 0.1662566E+02  (-0.5704214E+01)
 number of electron     280.0000009 magnetization       0.0056509
 augmentation part       18.3705904 magnetization       0.0110699

 Free energy of the ion-electron system (eV)
  ---------------------------------------------------
  alpha Z        PSCENC =        89.52339426
  Ewald energy   TEWEN  =     31602.98740218
  -Hartree energ DENC   =    -43987.11430556
  -exchange      EXHF   =         0.00000000
  -V(xc)+E(xc)   XCENC  =      1096.12312100
  PAW double counting   =     29805.99543211   -30305.65445098
  entropy T*S    EENTRO =        -0.00597734
  eigenvalues    EBANDS =     -3934.27470032
  atomic energy  EATOM  =     15171.73615219
  ---------------------------------------------------
  free energy    TOTEN  =      -460.68040631 eV

  energy without entropy =     -460.67442897  energy(sigma->0) =     -460.67741764


--------------------------------------------------------------------------------------------------------




--------------------------------------- Iteration      1(  21)  ---------------------------------------


    POTLOK:  cpu time    0.1921: real time    0.1921
    SETDIJ:  cpu time    0.0099: real time    0.0099
    TRIAL :  cpu time    9.8953: real time    9.9210
    CORREC:  cpu time    1.2298: real time    1.2312
    CHARGE:  cpu time    0.4332: real time    0.4351
    --------------------------------------------
      LOOP:  cpu time   11.7643: real time   11.8045

 eigenvalue-minimisations  :     0
 total energy-change (2. order) :-0.6938393E+01  ( 0.5761480E+01)
 number of electron     280.0000004 magnetization      -0.0501997
 augmentation part       18.3536131 magnetization       0.0048813

 Free energy of the ion-electron system (eV)
  ---------------------------------------------------
  alpha Z        PSCENC =        89.52339426
  Ewald energy   TEWEN  =     31602.98740218
  -Hartree energ DENC   =    -44013.16172817
  -exchange      EXHF   =         0.00000000
  -V(xc)+E(xc)   XCENC  =      1094.91798764
  PAW double counting   =     29814.02528193   -30313.80963921
  entropy T*S    EENTRO =        -0.00668535
  eigenvalues    EBANDS =     -3913.83167290
  atomic energy  EATOM  =     15171.73615219
  ---------------------------------------------------
  free energy    TOTEN  =      -467.61879941 eV

  energy without entropy =     -467.61211406  energy(sigma->0) =     -467.61545674


--------------------------------------------------------------------------------------------------------




--------------------------------------- Iteration      1(  22)  ---------------------------------------


    POTLOK:  cpu time    0.2187: real time    0.2187
    SETDIJ:  cpu time    0.0118: real time    0.0118
    TRIAL :  cpu time   10.2029: real time   10.2273
    CORREC:  cpu time    1.9838: real time    1.9902
    CHARGE:  cpu time    0.4002: real time    0.4004
    --------------------------------------------
      LOOP:  cpu time   12.8199: real time   12.8600

 eigenvalue-minimisations  :     0
 total energy-change (2. order) :-0.7492817E+01  (-0.1382067E+00)
 number of electron     280.0000003 magnetization      -0.0893416
 augmentation part       18.3535274 magnetization       0.0006246

 Free energy of the ion-electron system (eV)
  ---------------------------------------------------
  alpha Z        PSCENC =        89.52339426
  Ewald energy   TEWEN  =     31602.98740218
  -Hartree energ DENC   =    -43885.27354159
  -exchange      EXHF   =         0.00000000
  -V(xc)+E(xc)   XCENC  =      1094.60022116
  PAW double counting   =     29788.06847293   -30287.56486023
  entropy T*S    EENTRO =        -0.01117627
  eigenvalues    EBANDS =     -4049.18217230
  atomic energy  EATOM  =     15171.73615219
  ---------------------------------------------------
  free energy    TOTEN  =      -475.11161674 eV

  energy without entropy =     -475.10044046  energy(sigma->0) =     -475.10602860


--------------------------------------------------------------------------------------------------------




--------------------------------------- Iteration      1(  23)  ---------------------------------------


    POTLOK:  cpu time    0.1937: real time    0.1938
    SETDIJ:  cpu time    0.0098: real time    0.0098
    TRIAL :  cpu time   10.2923: real time   10.3175
    CORREC:  cpu time    2.0333: real time    2.0362
    CHARGE:  cpu time    0.4379: real time    0.4400
    --------------------------------------------
      LOOP:  cpu time   12.9765: real time   13.0073

 eigenvalue-minimisations  :     0
 total energy-change (2. order) :-0.2579738E+00  (-0.6531863E+00)
 number of electron     280.0000004 magnetization      -0.2528622
 augmentation part       18.4184126 magnetization      -0.0189884

 Free energy of the ion-electron system (eV)
  ---------------------------------------------------
  alpha Z        PSCENC =        89.52339426
  Ewald energy   TEWEN  =     31602.98740218
  -Hartree energ DENC   =    -43883.82144135
  -exchange      EXHF   =         0.00000000
  -V(xc)+E(xc)   XCENC  =      1094.57957376
  PAW double counting   =     29785.82979317   -30285.32525613
  entropy T*S    EENTRO =        -0.03533076
  eigenvalues    EBANDS =     -4050.86803234
  atomic energy  EATOM  =     15171.73615219
  ---------------------------------------------------
  free energy    TOTEN  =      -475.36959052 eV

  energy without entropy =     -475.33425976  energy(sigma->0) =     -475.35192514


--------------------------------------------------------------------------------------------------------




--------------------------------------- Iteration      1(  24)  ---------------------------------------


    POTLOK:  cpu time    0.1971: real time    0.1972
    SETDIJ:  cpu time    0.0101: real time    0.0101
    TRIAL :  cpu time   10.0648: real time   10.0858
    CORREC:  cpu time    2.0022: real time    2.0066
    CHARGE:  cpu time    0.4343: real time    0.4343
    --------------------------------------------
      LOOP:  cpu time   12.7220: real time   12.7482

 eigenvalue-minimisations  :     0
 total energy-change (2. order) :-0.3732829E+01  (-0.3560453E+01)
 number of electron     280.0000007 magnetization      -0.0969818
 augmentation part       18.3149819 magnetization      -0.0026650

 Free energy of the ion-electron system (eV)
  ---------------------------------------------------
  alpha Z        PSCENC =        89.52339426
  Ewald energy   TEWEN  =     31602.98740218
  -Hartree energ DENC   =    -43922.96714705
  -exchange      EXHF   =         0.00000000
  -V(xc)+E(xc)   XCENC  =      1094.76210828
  PAW double counting   =     29779.63317890   -30279.26670902
  entropy T*S    EENTRO =        -0.04393668
  eigenvalues    EBANDS =     -4015.47546826
  atomic energy  EATOM  =     15171.73615219
  ---------------------------------------------------
  free energy    TOTEN  =      -479.10241927 eV

  energy without entropy =     -479.05848259  energy(sigma->0) =     -479.08045093


--------------------------------------------------------------------------------------------------------




--------------------------------------- Iteration      1(  25)  ---------------------------------------


    POTLOK:  cpu time    0.2117: real time    0.2117
    SETDIJ:  cpu time    0.0102: real time    0.0122
    TRIAL :  cpu time   10.0487: real time   10.0713
    CORREC:  cpu time    1.9199: real time    1.9262
    CHARGE:  cpu time    0.4307: real time    0.4326
    --------------------------------------------
      LOOP:  cpu time   12.6307: real time   12.6700

 eigenvalue-minimisations  :     0
 total energy-change (2. order) : 0.4204102E+01  (-0.2471592E+02)
 number of electron     280.0000003 magnetization      -0.1457065
 augmentation part       18.4970246 magnetization      -0.0083736

 Free energy of the ion-electron system (eV)
[...]
  augment   152.31786   152.02355   153.35380    -0.04735     0.26712     0.09196
  Kinetic  4781.25245  4702.81695  5194.23420   -18.53899   -36.58582   -17.41599
  Fock        0.00000     0.00000     0.00000     0.00000     0.00000     0.00000
  vdW        -1.11368    -1.28268    -0.24148    -0.10769     0.06121     0.05617
  -------------------------------------------------------------------------------------
  Total      -9.76585   -13.02429    -7.08468    -5.07886     0.29943     0.07658
  in kB      -3.75916    -5.01343    -2.72710    -1.95500     0.11526     0.02948
  external pressure =       -3.83 kB  Pullay stress =        0.00 kB


 VOLUME and BASIS-vectors are now :
 -----------------------------------------------------------------------------
  energy-cutoff  :      440.00
  volume of cell :     4162.27
      direct lattice vectors                 reciprocal lattice vectors
    16.612109082 -0.228888569  0.000000000     0.060691974  0.035920095 -0.000000000
    -8.306054541 14.034229193  0.000000000     0.000989844  0.071840191 -0.000000000
     0.000000000  0.000000000 18.000000000    -0.000000000 -0.000000000  0.055555556

  length of vectors
    16.613685868 16.307977528 18.000000000     0.070524953  0.071847009  0.055555556


 FORCES acting on ions:
    Electron-Ion                     Ewald-Force                    Non-Local-Force
 -----------------------------------------------------------------------------------------------
   -.542E+02 -.114E+03 0.550E+02   0.538E+02 0.115E+03 -.549E+02   0.336E+00 -.257E+00 -.137E+00
   0.304E+02 0.132E+03 0.537E+02   -.338E+02 -.134E+03 -.544E+02   0.345E+01 0.177E+01 0.761E+00
   -.411E+02 0.114E+03 0.704E+02   0.428E+02 -.116E+03 -.711E+02   -.168E+01 0.192E+01 0.711E+00
   0.152E+03 -.110E+03 0.519E+02   -.154E+03 0.113E+03 -.523E+02   0.142E+01 -.316E+01 0.321E+00
   -.328E+02 0.164E+03 0.973E+02   0.317E+02 -.167E+03 -.985E+02   0.112E+01 0.304E+01 0.113E+01
   -.125E+03 -.817E+02 -.132E+01   0.129E+03 0.824E+02 0.150E+01   -.315E+01 -.743E+00 -.194E+00
   0.571E+02 -.568E+02 -.360E+02   -.590E+02 0.566E+02 0.362E+02   0.201E+01 0.230E+00 -.161E+00
   0.300E+03 -.138E+02 0.105E+03   -.307E+03 0.117E+02 -.105E+03   0.711E+01 0.210E+01 0.175E-01
   -.572E+02 -.368E+01 -.396E+02   0.564E+02 0.310E+01 0.382E+02   0.854E+00 0.637E+00 0.137E+01
   -.362E+02 0.532E+02 -.656E+02   0.363E+02 -.507E+02 0.669E+02   -.107E+00 -.260E+01 -.132E+01
   0.737E+02 -.184E+02 0.980E+02   -.741E+02 0.157E+02 -.981E+02   0.382E+00 0.277E+01 0.765E-01
   0.504E+02 -.274E+02 -.703E+01   -.520E+02 0.305E+02 0.782E+01   0.167E+01 -.313E+01 -.792E+00
   0.402E+02 -.804E+02 -.108E+02   -.394E+02 0.782E+02 0.955E+01   -.881E+00 0.217E+01 0.121E+01
   0.722E+02 0.436E+02 0.346E+02   -.707E+02 -.421E+02 -.332E+02   -.150E+01 -.147E+01 -.137E+01
   -.201E+03 0.256E+03 0.166E+03   0.206E+03 -.262E+03 -.168E+03   -.481E+01 0.610E+01 0.188E+01
   0.255E+01 -.707E+02 0.942E+02   -.469E+01 0.728E+02 -.951E+02   0.220E+01 -.213E+01 0.870E+00
   -.106E+02 0.102E+03 0.798E+02   0.105E+02 -.105E+03 -.808E+02   0.159E+00 0.293E+01 0.102E+01
   -.317E+02 -.858E+02 -.970E+02   0.340E+02 0.876E+02 0.981E+02   -.238E+01 -.186E+01 -.119E+01
   -.905E+02 0.348E+02 -.661E+02   0.900E+02 -.365E+02 0.651E+02   0.422E+00 0.170E+01 0.103E+01
   -.272E+02 0.341E+02 -.618E+01   0.314E+02 -.324E+02 0.587E+01   -.424E+01 -.170E+01 0.318E+00
   -.297E+02 -.215E+02 -.481E+02   0.275E+02 0.243E+02 0.477E+02   0.215E+01 -.286E+01 0.342E+00
   0.144E+03 0.795E+01 0.187E+02   -.148E+03 -.763E+01 -.184E+02   0.351E+01 -.306E+00 -.192E+00
   -.316E+02 0.850E+02 -.698E+02   0.322E+02 -.880E+02 0.706E+02   -.622E+00 0.307E+01 -.845E+00
   -.158E+03 0.865E+02 0.634E+02   0.161E+03 -.860E+02 -.632E+02   -.344E+01 -.506E+00 -.145E+00
   -.693E+02 -.170E+03 0.558E+02   0.717E+02 0.202E+03 -.567E+02   -.238E+01 -.320E+02 0.869E+00
   -.293E+03 -.180E+03 -.676E+01   0.324E+03 0.198E+03 0.100E+02   -.309E+02 -.176E+02 -.325E+01
   0.336E+03 -.216E+03 0.102E+03   -.360E+03 0.239E+03 -.106E+03   0.239E+02 -.232E+02 0.367E+01
   -.538E+02 0.355E+03 0.223E+03   0.418E+02 -.387E+03 -.235E+03   0.120E+02 0.320E+02 0.120E+02
   0.330E+02 0.316E+03 0.166E+03   -.481E+02 -.349E+03 -.178E+03   0.151E+02 0.332E+02 0.117E+02
   0.251E+03 -.249E+03 0.775E+02   -.273E+03 0.277E+03 -.834E+02   0.215E+02 -.281E+02 0.584E+01
   -.290E+03 -.152E+03 -.284E+02   0.324E+03 0.163E+03 0.299E+02   -.343E+02 -.119E+02 -.141E+01
   -.658E+02 -.270E+02 0.663E+01   0.657E+02 0.269E+02 -.670E+01   0.507E-01 0.534E-01 0.620E-01
   -.105E+03 -.154E+03 -.606E+02   0.128E+03 0.173E+03 0.633E+02   -.233E+02 -.198E+02 -.268E+01
   0.136E+02 -.247E+03 -.127E+03   -.604E+00 0.277E+03 0.136E+03   -.130E+02 -.295E+02 -.970E+01
   -.195E+02 0.329E+02 -.577E+02   0.577E+01 -.194E+02 0.651E+02   0.137E+02 -.135E+02 -.739E+01
   0.348E+02 0.948E+02 0.218E+03   -.359E+02 -.127E+03 -.232E+03   0.112E+01 0.318E+02 0.137E+02
   0.199E+03 0.741E+02 0.183E+03   -.206E+03 -.104E+03 -.188E+03   0.632E+01 0.295E+02 0.439E+01
   -.340E+01 -.466E+02 -.306E+03   -.126E+02 0.705E+02 0.327E+03   0.161E+02 -.239E+02 -.213E+02
   0.511E+02 -.942E+01 0.308E+02   -.411E+02 0.226E+02 -.279E+02   -.999E+01 -.132E+02 -.283E+01
   0.818E+02 0.388E+02 0.434E+02   -.848E+02 -.407E+02 -.444E+02   0.298E+01 0.196E+01 0.958E+00
   0.160E+03 -.619E+02 0.187E+02   -.179E+03 0.702E+02 -.201E+02   0.184E+02 -.826E+01 0.141E+01
   -.162E+03 -.156E+03 -.189E+03   0.192E+03 0.170E+03 0.202E+03   -.301E+02 -.137E+02 -.130E+02
   0.764E+02 -.121E+03 0.251E+03   -.105E+03 0.136E+03 -.267E+03   0.283E+02 -.152E+02 0.166E+02
   -.688E+02 0.283E+03 0.155E+03   0.830E+02 -.315E+03 -.165E+03   -.141E+02 0.328E+02 0.103E+02
   -.371E+02 0.243E+03 0.150E+03   0.471E+02 -.277E+03 -.160E+03   -.101E+02 0.333E+02 0.918E+01
   0.120E+03 -.202E+03 0.180E+03   -.148E+03 0.224E+03 -.191E+03   0.276E+02 -.211E+02 0.112E+02
   -.142E+03 -.142E+03 -.301E+03   0.171E+03 0.151E+03 0.321E+03   -.290E+02 -.882E+01 -.202E+02
   0.684E+02 -.958E+02 0.264E+02   -.674E+02 0.976E+02 -.266E+02   -.970E+00 -.174E+01 0.225E+00
   -.773E+02 0.760E+01 -.925E+02   0.799E+02 -.455E+01 0.964E+02   -.264E+01 -.303E+01 -.385E+01
   -.305E+03 0.600E+02 0.109E+03   0.339E+03 -.501E+02 -.119E+03   -.341E+02 -.999E+01 0.967E+01
   0.334E+03 0.137E+02 0.118E+02   -.370E+03 -.142E+02 -.108E+02   0.360E+02 0.482E+00 -.866E+00
   -.892E+01 0.239E+03 -.147E+03   0.890E+01 -.273E+03 0.157E+03   0.395E-01 0.347E+02 -.950E+01
   -.625E+02 0.235E+03 -.220E+03   0.584E+02 -.266E+03 0.238E+03   0.418E+01 0.312E+02 -.176E+02
   0.296E+03 -.114E+02 0.257E+02   -.331E+03 0.171E+02 -.275E+02   0.351E+02 -.569E+01 0.191E+01
   -.348E+03 0.128E+03 0.137E+03   0.384E+03 -.123E+03 -.140E+03   -.353E+02 -.473E+01 0.264E+01
   -.913E+02 0.121E+03 0.558E+02   0.926E+02 -.122E+03 -.572E+02   -.129E+01 0.126E+01 0.141E+01
   0.158E+03 -.485E+03 -.474E+03   -.157E+03 0.507E+03 0.490E+03   -.297E+00 -.223E+02 -.155E+02
   0.197E+02 -.219E+02 -.134E+03   -.218E+02 0.308E+02 0.109E+03   0.203E+01 -.884E+01 0.248E+02
   -.192E+02 0.124E+03 -.584E+03   0.239E+02 -.145E+03 0.641E+03   -.469E+01 0.210E+02 -.576E+02
 -----------------------------------------------------------------------------------------------
   0.805E+01 0.454E+02 0.394E+02   -.675E-13 -.455E-12 -.909E-12   -.802E+01 -.453E+02 -.394E+02


 POSITION                                       TOTAL-FORCE (eV/Angst)
 -----------------------------------------------------------------------------------
     -0.17883      1.64442      8.52774        -0.009319     -0.026665     -0.037076
      0.29749      7.13728      8.76520         0.046489     -0.006143     -0.016363
     -1.19772      7.07985      8.78291        -0.007394     -0.001320     -0.005825
      8.60887      0.96006      8.62070        -0.015687     -0.020722     -0.033206
      2.35433      6.34348      8.19788        -0.018984     -0.004988     -0.029202
     -7.41223     13.71369      8.99893        -0.027758      0.015334     -0.010984
     -4.98127      9.73450      9.32383         0.017556      0.046714      0.027223
     -1.09384     13.23219      8.35075        -0.023863      0.006111     -0.038157
     -6.50061     11.63197      9.37542        -0.004044      0.029428      0.028463
      2.12822      8.54571      9.23365         0.008885     -0.031675     -0.018825
      1.05717     12.66741      8.59417        -0.021976      0.008981      0.005741
     -3.08433      8.43558      9.18888         0.008198      0.008305      0.012138
     10.21397      2.59813      8.96831        -0.029119     -0.004975     -0.014172
     11.23983      4.91122      8.71200         0.031438      0.027160      0.022693
      4.45116      5.75144      7.71165         0.012715      0.048793      0.019755
      6.80151     13.60780      8.54403         0.025798     -0.037448     -0.023923
     -3.25673      6.06360      8.58015         0.023703     -0.024075      0.020658
     10.84922      0.41286      9.37723        -0.035509      0.007034     -0.014831
      3.89450      9.96097      9.22343        -0.021544      0.013089      0.009650
      5.59095     11.78471      9.07928         0.011614     -0.024469      0.010472
      3.18459     12.27663      9.21637        -0.028038     -0.017464     -0.006056
     11.35594      7.22863      8.92773         0.028330      0.005134      0.041754
      7.81732     11.53430      9.38859         0.003580      0.012937      0.014577
      4.29045      7.86496      8.43883        -0.004429      0.009890     -0.004080
     -0.08855      3.00419      8.47863        -0.012666     -0.016199     -0.019929
      0.97385      1.01612      8.82658         0.004252      0.014520     -0.002975
      7.34115      0.47240      8.39368        -0.022033      0.072472     -0.044898
      3.17278      5.41591      7.71359         0.028060     -0.015527     -0.012913
      1.02185      6.14995      8.29214        -0.013480      0.035192     -0.038893
      8.91095      2.22053      8.65055        -0.033791      0.051726     -0.048989
     -6.34149     12.98449      9.19918         0.064968      0.013300      0.012291
      7.92643     12.87924      8.97479        -0.011125     -0.001666     -0.005214
     -5.32052     11.00616      9.40686         0.085857     -0.067173      0.027754
     -3.58344      9.58583      9.49085        -0.038657      0.007146     -0.024944
      0.78190      8.32703      9.25775        -0.019010     -0.047994      0.011892
      2.07976     11.83097      8.58980        -0.002876      0.021536      0.037776
     -0.21307     12.23671      8.38291        -0.016487      0.043807     -0.008710
      2.65541      9.64245      9.71099         0.001611      0.029264      0.014939
     -1.71421      8.29481      9.15468         0.028410      0.035214      0.031973
     -3.83063      7.31646      8.88536        -0.040712     -0.011775      0.026952
     10.43304      3.87955      8.81776        -0.061417     -0.005397     -0.001080
     11.12553      1.69336      9.48234         0.018687      0.040197      0.012941
      5.63740     12.94928      8.43465         0.013613     -0.032928     -0.017095
     -1.87288      6.00254      8.48277        -0.007896     -0.037354     -0.019766
     12.61179      4.77442      8.42814        -0.005424     -0.047967      0.016703
     15.20664      0.87014      8.29123         0.009367     -0.044775     -0.075058
      3.41390     13.46410      9.73877         0.004901      0.016704     -0.009139
      9.59961     -0.02078      8.84369        -0.014240      0.040356     -0.008447
      4.23789     11.29899      9.27218        -0.009363      0.007322      0.013689
      4.73373      9.09032      8.65631         0.007267     -0.013614     -0.006607
     10.62788      6.12585      8.84378         0.010078     -0.000959      0.064779
      8.89838     10.80285      9.58289         0.016861     -0.021261      0.042752
      6.56294     11.05222      9.59262         0.048946     -0.035339      0.046674
     10.82659      8.44515      9.06039         0.023824     -0.004129      0.045878
      5.07302      6.85471      8.00596         0.009578     -0.071483     -0.040941
      2.91031      7.57648      8.60828        -0.024197     -0.038319     -0.031295
     -0.60808      9.82038      9.82287        -0.001316      0.003955      0.031214
     -0.53471      8.14322     12.21545         0.000634      0.023003      0.054690
     -0.44651      7.75463     13.28394        -0.012865      0.019178     -0.036432
 -----------------------------------------------------------------------------------
    total drift:                                0.030356      0.032995      0.012696


--------------------------------------------------------------------------------------------------------



  FREE ENERGIE OF THE ION-ELECTRON SYSTEM (eV)
  ---------------------------------------------------
  free  energy   TOTEN  =      -489.06097522 eV

  energy  without entropy=     -489.06097519  energy(sigma->0) =     -489.06097521



--------------------------------------------------------------------------------------------------------


    POTLOK:  cpu time    0.1964: real time    0.1987


--------------------------------------------------------------------------------------------------------


     LOOP+:  cpu time 1073.0117: real time 1075.8912
    4ORBIT:  cpu time    0.0000: real time    0.0000



 total charge     

# of ion       s       p       d       tot
------------------------------------------
    1        0.871   1.750   0.000   2.621
    2        0.868   1.722   0.000   2.590
    3        0.864   1.745   0.000   2.609
    4        0.862   1.727   0.000   2.589
    5        0.861   1.712   0.000   2.573
    6        0.866   1.743   0.000   2.609
    7        0.853   1.706   0.000   2.560
    8        0.875   1.662   0.000   2.537
    9        0.856   1.710   0.000   2.566
   10        0.861   1.749   0.000   2.610
   11        0.862   1.737   0.000   2.599
   12        0.867   1.773   0.000   2.640
   13        0.845   1.697   0.000   2.543
   14        0.846   1.698   0.000   2.544
   15        0.875   1.641   0.000   2.516
   16        0.863   1.731   0.000   2.595
   17        0.856   1.720   0.000   2.576
   18        0.859   1.713   0.000   2.572
   19        0.852   1.714   0.000   2.566
   20        0.855   1.726   0.000   2.581
   21        0.854   1.723   0.000   2.577
   22        0.864   1.720   0.000   2.584
   23        0.860   1.721   0.000   2.581
   24        0.861   1.714   0.000   2.575
   25        1.342   2.189   0.000   3.531
   26        1.277   2.598   0.000   3.875
   27        1.265   2.640   0.000   3.905
   28        1.273   2.629   0.000   3.901
   29        1.279   2.625   0.000   3.904
   30        1.277   2.624   0.000   3.900
   31        1.281   2.621   0.000   3.902
   32        1.227   2.730   0.000   3.957
   33        1.262   2.684   0.000   3.946
   34        1.273   2.626   0.000   3.899
   35        1.241   2.666   0.000   3.907
   36        1.270   2.666   0.000   3.937
   37        1.256   2.629   0.000   3.884
   38        1.270   2.650   0.000   3.920
   39        1.239   2.691   0.000   3.929
   40        1.223   2.746   0.000   3.969
   41        1.237   2.741   0.000   3.978
   42        1.270   2.615   0.000   3.886
   43        1.271   2.652   0.000   3.923
   44        1.275   2.598   0.000   3.873
   45        1.276   2.592   0.000   3.869
   46        1.273   2.620   0.000   3.893
   47        1.271   2.634   0.000   3.905
   48        1.226   2.733   0.000   3.959
   49        1.218   2.719   0.000   3.937
   50        1.272   2.650   0.000   3.922
   51        1.275   2.621   0.000   3.896
   52        1.271   2.624   0.000   3.895
   53        1.269   2.639   0.000   3.908
   54        1.268   2.626   0.000   3.894
   55        1.272   2.631   0.000   3.903
   56        1.227   2.727   0.000   3.954
   57        1.348   0.675  10.049  12.072
   58        1.030   1.462   0.000   2.492
   59        1.643   3.526   0.000   5.169
--------------------------------------------------
tot         65.101 131.356  10.049 206.507



 magnetization (x)

# of ion       s       p       d       tot
------------------------------------------
    1        0.010   0.061   0.000   0.071
    2        0.000   0.004   0.000   0.004
    3        0.000   0.001   0.000   0.001
    4        0.015   0.033   0.000   0.048
    5        0.012   0.027   0.000   0.039
    6       -0.001   0.009   0.000   0.008
    7        0.000   0.001   0.000   0.001
    8        0.092   0.313   0.000   0.405
    9        0.000   0.004   0.000   0.004
   10        0.001   0.003   0.000   0.003
   11        0.009   0.023   0.000   0.032
   12        0.000   0.000   0.000   0.000
   13        0.000   0.002   0.000   0.003
   14        0.000   0.000   0.000   0.000
   15        0.105   0.330   0.000   0.436
   16       -0.001   0.005   0.000   0.003
   17       -0.000   0.000   0.000   0.000
   18        0.000   0.002   0.000   0.003
   19        0.000   0.002   0.000   0.002
   20        0.000   0.001   0.000   0.001
   21        0.000   0.002   0.000   0.002
   22        0.000   0.000   0.000   0.000
   23        0.000   0.002   0.000   0.002
   24        0.014   0.028   0.000   0.042
   25       -0.030  -1.061   0.000  -1.090
   26       -0.017  -0.153   0.000  -0.170
   27        0.035   0.035   0.000   0.070
   28        0.033   0.028   0.000   0.061
   29        0.001  -0.001   0.000   0.000
   30        0.001  -0.003   0.000  -0.003
   31       -0.002  -0.042   0.000  -0.043
   32       -0.001  -0.025   0.000  -0.026
   33       -0.000  -0.009   0.000  -0.010
   34        0.000  -0.001   0.000  -0.001
   35       -0.000  -0.001   0.000  -0.001
   36        0.001   0.000   0.000   0.001
   37        0.021   0.019   0.000   0.039
   38       -0.000  -0.002   0.000  -0.002
   39       -0.000  -0.001   0.000  -0.001
   40       -0.000  -0.001   0.000  -0.001
   41        0.000  -0.001   0.000  -0.001
   42       -0.000  -0.001   0.000  -0.001
   43       -0.000  -0.006   0.000  -0.006
   44       -0.000   0.002   0.000   0.001
   45        0.000   0.001   0.000   0.001
   46       -0.011  -0.061   0.000  -0.073
   47       -0.000  -0.001   0.000  -0.001
   48        0.001  -0.001   0.000  -0.001
   49        0.000  -0.000   0.000  -0.000
   50        0.001  -0.003   0.000  -0.002
   51       -0.000  -0.002   0.000  -0.002
   52       -0.000  -0.008   0.000  -0.008
   53       -0.000  -0.003   0.000  -0.003
   54       -0.000  -0.005   0.000  -0.005
   55        0.035   0.023   0.000   0.058
   56        0.001  -0.004   0.000  -0.003
   57       -0.000   0.010   0.000   0.010
   58        0.000   0.001   0.000   0.001
   59        0.000  -0.000   0.000  -0.000
--------------------------------------------------
tot          0.324  -0.424   0.000  -0.100


 total amount of memory used by VASP MPI-rank0   239660. kBytes
=======================================================================

   base      :      30000. kBytes
   nonl-proj :      33098. kBytes
   fftplans  :       6275. kBytes
   grid      :      18719. kBytes
   one-center:        155. kBytes
   wavefun   :     151413. kBytes

  
  
 General timing and accounting informations for this job:
 ========================================================
  
                  Total CPU time used (sec):     1091.651
                            User time (sec):     1086.913
                          System time (sec):        4.737
                         Elapsed time (sec):     1095.186
  
                   Maximum memory used (kb):      307172.
                   Average memory used (kb):           0.
  
                          Minor page faults:       720849
                          Major page faults:            4
                 Voluntary context switches:         2397
