 vasp.5.4.4.18Apr17-6-g9f103f2a35 (build Jan 14 2022 15:04:31) complex          
  
 executed on             LinuxIFC date 2023.01.27  22:54:35
 running on   48 total cores
 distrk:  each k-point on   48 cores,    1 groups
 distr:  one band on NCORES_PER_BAND=  12 cores,    4 groups


--------------------------------------------------------------------------------------------------------


 INCAR:
 POTCAR:    PAW_PBE C 08Apr2002                   
 POTCAR:    PAW_PBE N 08Apr2002                   
 POTCAR:    PAW_PBE C 08Apr2002                   
 POTCAR:    PAW_PBE Cr_pv 02Aug2007               
 POTCAR:    PAW_PBE C 08Apr2002                   
 POTCAR:    PAW_PBE O 08Apr2002                   
 POTCAR:    PAW_PBE C 08Apr2002                   
   SHA256 =  253f7b50bb8d59471dbedb8285d89021f4a42ed1a2c5d38a03a736e69125dd95 C/
   COPYR  = (c) Copyright 08Apr2002 Georg Kresse                                
   COPYR  = This file is part of the software VASP. Any use, copying, and all ot
   COPYR  = If you do not have a valid VASP license, you may not use, copy or di
   VRHFIN =C: s2p2                                                              
   LEXCH  = PE                                                                  
   EATOM  =   147.1560 eV,   10.8157 Ry                                         
                                                                                
   TITEL  = PAW_PBE C 08Apr2002                                                 
   LULTRA =        F    use ultrasoft PP ?                                      
   IUNSCR =        1    unscreen: 0-lin 1-nonlin 2-no                           
   RPACOR =    1.200    partial core radius                                     
   POMASS =   12.011; ZVAL   =    4.000    mass and valenz                      
   RCORE  =    1.500    outmost cutoff radius                                   
   RWIGS  =    1.630; RWIGS  =    0.863    wigner-seitz radius (au A)           
   ENMAX  =  400.000; ENMIN  =  300.000 eV                                      
   ICORE  =        2    local potential                                         
   LCOR   =        T    correct aug charges                                     
   LPAW   =        T    paw PP                                                  
   EAUG   =  644.873                                                            
   DEXC   =    0.000                                                            
   RMAX   =    1.529    core radius for proj-oper                               
   RAUG   =    1.300    factor for augmentation sphere                          
   RDEP   =    1.501    radius for radial grids                                 
   RDEPT  =    1.300    core radius for aug-charge                              
                                                                                
   Atomic configuration                                                         
    4 entries                                                                   
     n  l   j            E        occ.                                          
     1  0  0.50      -273.3789   2.0000                                         
     2  0  0.50       -13.7508   2.0000                                         
     2  1  0.50        -5.2854   2.0000                                         
     3  2  1.50        -5.4423   0.0000                                         
   Description                                                                  
     l       E           TYP  RCUT    TYP  RCUT                                 
     0    -13.7508458     23  1.200                                             
     0     -8.2022199     23  1.200                                             
     1     -5.2854383     23  1.500                                             
     1     34.0145650     23  1.500                                             
     2     -5.4423304      7  1.500                                             
  local pseudopotential read in
  partial core-charges read in
  partial kinetic energy density read in
  atomic valenz-charges read in
  non local Contribution for L=           0  read in
    real space projection operators read in
  non local Contribution for L=           0  read in
    real space projection operators read in
  non local Contribution for L=           1  read in
    real space projection operators read in
  non local Contribution for L=           1  read in
    real space projection operators read in
    PAW grid and wavefunctions read in
 
   number of l-projection  operators is LMAX  =           4
   number of lm-projection operators is LMMAX =           8
 
 POTCAR:    PAW_PBE N 08Apr2002                   
   SHA256 =  e053789ff3a61a86a1b75d8a110fcc91f86041011e7b0817c7c99e4e8a6349d7 N/
   COPYR  = (c) Copyright 08Apr2002 Georg Kresse                                
   COPYR  = This file is part of the software VASP. Any use, copying, and all ot
   COPYR  = If you do not have a valid VASP license, you may not use, copy or di
   VRHFIN =N: s2p3                                                              
   LEXCH  = PE                                                                  
   EATOM  =   264.5486 eV,   19.4438 Ry                                         
                                                                                
   TITEL  = PAW_PBE N 08Apr2002                                                 
   LULTRA =        F    use ultrasoft PP ?                                      
   IUNSCR =        1    unscreen: 0-lin 1-nonlin 2-no                           
   RPACOR =    1.200    partial core radius                                     
   POMASS =   14.001; ZVAL   =    5.000    mass and valenz                      
   RCORE  =    1.500    outmost cutoff radius                                   
   RWIGS  =    1.400; RWIGS  =    0.741    wigner-seitz radius (au A)           
   ENMAX  =  400.000; ENMIN  =  300.000 eV                                      
   ICORE  =        2    local potential                                         
   LCOR   =        T    correct aug charges                                     
   LPAW   =        T    paw PP                                                  
   EAUG   =  627.112                                                            
   DEXC   =    0.000                                                            
   RMAX   =    1.529    core radius for proj-oper                               
   RAUG   =    1.300    factor for augmentation sphere                          
   RDEP   =    1.514    radius for radial grids                                 
   RDEPT  =    1.338    core radius for aug-charge                              
                                                                                
   Atomic configuration                                                         
    4 entries                                                                   
     n  l   j            E        occ.                                          
     1  0  0.50      -384.7179   2.0000                                         
     2  0  0.50       -18.5828   2.0000                                         
     2  1  0.50        -7.0898   3.0000                                         
     3  2  1.50        -6.8029   0.0000                                         
   Description                                                                  
     l       E           TYP  RCUT    TYP  RCUT                                 
     0    -18.5828119     23  1.200                                             
     0    -13.5018863     23  1.200                                             
     1     -7.0897853     23  1.500                                             
     1      9.5240782     23  1.500                                             
     2     -6.8029130      7  1.500                                             
  local pseudopotential read in
  partial core-charges read in
  partial kinetic energy density read in
  atomic valenz-charges read in
  non local Contribution for L=           0  read in
    real space projection operators read in
  non local Contribution for L=           0  read in
    real space projection operators read in
  non local Contribution for L=           1  read in
    real space projection operators read in
  non local Contribution for L=           1  read in
    real space projection operators read in
    PAW grid and wavefunctions read in
 
   number of l-projection  operators is LMAX  =           4
   number of lm-projection operators is LMMAX =           8
 
 POTCAR:    PAW_PBE C 08Apr2002                   
   SHA256 =  253f7b50bb8d59471dbedb8285d89021f4a42ed1a2c5d38a03a736e69125dd95 C/
   COPYR  = (c) Copyright 08Apr2002 Georg Kresse                                
   COPYR  = This file is part of the software VASP. Any use, copying, and all ot
   COPYR  = If you do not have a valid VASP license, you may not use, copy or di
   VRHFIN =C: s2p2                                                              
   LEXCH  = PE                                                                  
   EATOM  =   147.1560 eV,   10.8157 Ry                                         
                                                                                
   TITEL  = PAW_PBE C 08Apr2002                                                 
   LULTRA =        F    use ultrasoft PP ?                                      
   IUNSCR =        1    unscreen: 0-lin 1-nonlin 2-no                           
   RPACOR =    1.200    partial core radius                                     
   POMASS =   12.011; ZVAL   =    4.000    mass and valenz                      
   RCORE  =    1.500    outmost cutoff radius                                   
   RWIGS  =    1.630; RWIGS  =    0.863    wigner-seitz radius (au A)           
   ENMAX  =  400.000; ENMIN  =  300.000 eV                                      
   ICORE  =        2    local potential                                         
   LCOR   =        T    correct aug charges                                     
   LPAW   =        T    paw PP                                                  
   EAUG   =  644.873                                                            
   DEXC   =    0.000                                                            
   RMAX   =    1.529    core radius for proj-oper                               
   RAUG   =    1.300    factor for augmentation sphere                          
   RDEP   =    1.501    radius for radial grids                                 
   RDEPT  =    1.300    core radius for aug-charge                              
                                                                                
   Atomic configuration                                                         
    4 entries                                                                   
     n  l   j            E        occ.                                          
     1  0  0.50      -273.3789   2.0000                                         
     2  0  0.50       -13.7508   2.0000                                         
     2  1  0.50        -5.2854   2.0000                                         
     3  2  1.50        -5.4423   0.0000                                         
   Description                                                                  
     l       E           TYP  RCUT    TYP  RCUT                                 
     0    -13.7508458     23  1.200                                             
     0     -8.2022199     23  1.200                                             
     1     -5.2854383     23  1.500                                             
     1     34.0145650     23  1.500                                             
     2     -5.4423304      7  1.500                                             
  local pseudopotential read in
  partial core-charges read in
  partial kinetic energy density read in
  atomic valenz-charges read in
  non local Contribution for L=           0  read in
    real space projection operators read in
  non local Contribution for L=           0  read in
    real space projection operators read in
  non local Contribution for L=           1  read in
    real space projection operators read in
  non local Contribution for L=           1  read in
    real space projection operators read in
    PAW grid and wavefunctions read in
 
   number of l-projection  operators is LMAX  =           4
   number of lm-projection operators is LMMAX =           8
 
 POTCAR:    PAW_PBE Cr_pv 02Aug2007               
   SHA256 =  c9a7df34d3cdbacf1090e328ef39c0b420964e11c23f63548d1ac9dd218cdba0 Cr
   COPYR  = (c) Copyright 02Aug2007 Georg Kresse                                
   COPYR  = This file is part of the software VASP. Any use, copying, and all ot
   COPYR  = If you do not have a valid VASP license, you may not use, copy or di
   VRHFIN =Cr : p6d5s1                                                          
   LEXCH  = PE                                                                  
   EATOM  =  1647.9177 eV,  121.1185 Ry                                         
                                                                                
   TITEL  = PAW_PBE Cr_pv 02Aug2007                                             
   LULTRA =        F    use ultrasoft PP ?                                      
   IUNSCR =        1    unscreen: 0-lin 1-nonlin 2-no                           
   RPACOR =    2.080    partial core radius                                     
   POMASS =   51.996; ZVAL   =   12.000    mass and valenz                      
   RCORE  =    2.300    outmost cutoff radius                                   
   RWIGS  =    2.500; RWIGS  =    1.323    wigner-seitz radius (au A)           
   ENMAX  =  265.681; ENMIN  =  199.261 eV                                      
   ICORE  =        3    local potential                                         
   LCOR   =        T    correct aug charges                                     
   LPAW   =        T    paw PP                                                  
   EAUG   =  519.424                                                            
   DEXC   =    0.000                                                            
   RMAX   =    2.356    core radius for proj-oper                               
   RAUG   =    1.300    factor for augmentation sphere                          
   RDEP   =    2.447    radius for radial grids                                 
   RDEPT  =    1.882    core radius for aug-charge                              
                                                                                
   Atomic configuration                                                         
    8 entries                                                                   
     n  l   j            E        occ.                                          
     1  0  0.50     -5880.4963   2.0000                                         
     2  0  0.50      -667.0865   2.0000                                         
     2  1  1.50      -560.6250   6.0000                                         
     3  0  0.50       -73.9860   2.0000                                         
     3  1  1.50       -45.4378   6.0000                                         
     3  2  2.50        -2.9137   5.0000                                         
     4  0  0.50        -4.0071   1.0000                                         
     4  3  2.50        -1.3606   0.0000                                         
   Description                                                                  
     l       E           TYP  RCUT    TYP  RCUT                                 
     1    -45.4377911     23  2.000                                             
     1      1.3605826     23  2.000                                             
     2     -2.9136672     23  2.300                                             
     2     -4.2742498     23  2.300                                             
     0     -4.0071320     23  2.300                                             
     0      9.4498803     23  2.300                                             
     3      2.7211652     23  2.300                                             
  local pseudopotential read in
  partial core-charges read in
  partial kinetic energy density read in
  atomic valenz-charges read in
  non local Contribution for L=           1  read in
    real space projection operators read in
  non local Contribution for L=           1  read in
    real space projection operators read in
  non local Contribution for L=           2  read in
    real space projection operators read in
  non local Contribution for L=           2  read in
    real space projection operators read in
  non local Contribution for L=           0  read in
    real space projection operators read in
  non local Contribution for L=           0  read in
    real space projection operators read in
    PAW grid and wavefunctions read in
 
   number of l-projection  operators is LMAX  =           6
   number of lm-projection operators is LMMAX =          18
 
 POTCAR:    PAW_PBE C 08Apr2002                   
   SHA256 =  253f7b50bb8d59471dbedb8285d89021f4a42ed1a2c5d38a03a736e69125dd95 C/
   COPYR  = (c) Copyright 08Apr2002 Georg Kresse                                
   COPYR  = This file is part of the software VASP. Any use, copying, and all ot
   COPYR  = If you do not have a valid VASP license, you may not use, copy or di
   VRHFIN =C: s2p2                                                              
   LEXCH  = PE                                                                  
   EATOM  =   147.1560 eV,   10.8157 Ry                                         
                                                                                
   TITEL  = PAW_PBE C 08Apr2002                                                 
   LULTRA =        F    use ultrasoft PP ?                                      
   IUNSCR =        1    unscreen: 0-lin 1-nonlin 2-no                           
   RPACOR =    1.200    partial core radius                                     
   POMASS =   12.011; ZVAL   =    4.000    mass and valenz                      
   RCORE  =    1.500    outmost cutoff radius                                   
   RWIGS  =    1.630; RWIGS  =    0.863    wigner-seitz radius (au A)           
   ENMAX  =  400.000; ENMIN  =  300.000 eV                                      
   ICORE  =        2    local potential                                         
   LCOR   =        T    correct aug charges                                     
   LPAW   =        T    paw PP                                                  
   EAUG   =  644.873                                                            
   DEXC   =    0.000                                                            
   RMAX   =    1.529    core radius for proj-oper                               
   RAUG   =    1.300    factor for augmentation sphere                          
   RDEP   =    1.501    radius for radial grids                                 
   RDEPT  =    1.300    core radius for aug-charge                              
                                                                                
   Atomic configuration                                                         
    4 entries                                                                   
     n  l   j            E        occ.                                          
     1  0  0.50      -273.3789   2.0000                                         
     2  0  0.50       -13.7508   2.0000                                         
     2  1  0.50        -5.2854   2.0000                                         
     3  2  1.50        -5.4423   0.0000                                         
   Description                                                                  
     l       E           TYP  RCUT    TYP  RCUT                                 
     0    -13.7508458     23  1.200                                             
     0     -8.2022199     23  1.200                                             
     1     -5.2854383     23  1.500                                             
     1     34.0145650     23  1.500                                             
     2     -5.4423304      7  1.500                                             
  local pseudopotential read in
  partial core-charges read in
  partial kinetic energy density read in
  atomic valenz-charges read in
  non local Contribution for L=           0  read in
    real space projection operators read in
  non local Contribution for L=           0  read in
    real space projection operators read in
  non local Contribution for L=           1  read in
    real space projection operators read in
  non local Contribution for L=           1  read in
    real space projection operators read in
    PAW grid and wavefunctions read in
 
   number of l-projection  operators is LMAX  =           4
   number of lm-projection operators is LMMAX =           8
 
 POTCAR:    PAW_PBE O 08Apr2002                   
   SHA256 =  818f92134a0a090dccd8ba1447fa70422a3b330e708bb4f08108d8ae51209ddf O/
   COPYR  = (c) Copyright 08Apr2002 Georg Kresse                                
   COPYR  = This file is part of the software VASP. Any use, copying, and all ot
   COPYR  = If you do not have a valid VASP license, you may not use, copy or di
   VRHFIN =O: s2p4                                                              
   LEXCH  = PE                                                                  
   EATOM  =   432.3788 eV,   31.7789 Ry                                         
                                                                                
   TITEL  = PAW_PBE O 08Apr2002                                                 
   LULTRA =        F    use ultrasoft PP ?                                      
   IUNSCR =        1    unscreen: 0-lin 1-nonlin 2-no                           
   RPACOR =    1.200    partial core radius                                     
   POMASS =   16.000; ZVAL   =    6.000    mass and valenz                      
   RCORE  =    1.520    outmost cutoff radius                                   
   RWIGS  =    1.550; RWIGS  =    0.820    wigner-seitz radius (au A)           
   ENMAX  =  400.000; ENMIN  =  300.000 eV                                      
   ICORE  =        2    local potential                                         
   LCOR   =        T    correct aug charges                                     
   LPAW   =        T    paw PP                                                  
   EAUG   =  605.392                                                            
   DEXC   =    0.000                                                            
   RMAX   =    1.553    core radius for proj-oper                               
   RAUG   =    1.300    factor for augmentation sphere                          
   RDEP   =    1.550    radius for radial grids                                 
   RDEPT  =    1.329    core radius for aug-charge                              
                                                                                
   Atomic configuration                                                         
    4 entries                                                                   
     n  l   j            E        occ.                                          
     1  0  0.50      -514.6923   2.0000                                         
     2  0  0.50       -23.9615   2.0000                                         
     2  1  0.50        -9.0305   4.0000                                         
     3  2  1.50        -9.5241   0.0000                                         
   Description                                                                  
     l       E           TYP  RCUT    TYP  RCUT                                 
     0    -23.9615318     23  1.200                                             
     0     -9.5240782     23  1.200                                             
     1     -9.0304911     23  1.520                                             
     1      8.1634956     23  1.520                                             
     2     -9.5240782      7  1.500                                             
  local pseudopotential read in
  partial core-charges read in
  partial kinetic energy density read in
  kinetic energy density of atom read in
  atomic valenz-charges read in
  non local Contribution for L=           0  read in
    real space projection operators read in
  non local Contribution for L=           0  read in
    real space projection operators read in
  non local Contribution for L=           1  read in
    real space projection operators read in
  non local Contribution for L=           1  read in
    real space projection operators read in
    PAW grid and wavefunctions read in
 
   number of l-projection  operators is LMAX  =           4
   number of lm-projection operators is LMMAX =           8
 

 ----------------------------------------------------------------------------- 
|                                                                             |
|  ADVICE TO THIS USER RUNNING 'VASP/VAMP'   (HEAR YOUR MASTER'S VOICE ...):  |
|                                                                             |
|      You have a (more or less) 'large supercell' and for larger cells       |
|      it might be more efficient to use real space projection opertators     |
|      So try LREAL= Auto  in the INCAR   file.                               |
|      Mind:          For very  accurate calculation you might also keep the  |
|      reciprocal projection scheme          (i.e. LREAL=.FALSE.)             |
|                                                                             |
 ----------------------------------------------------------------------------- 

  PAW_PBE C 08Apr2002                   :
 energy of atom  1       EATOM= -147.1560
 kinetic energy error for atom=    0.0132 (will be added to EATOM!!)
  PAW_PBE N 08Apr2002                   :
 energy of atom  2       EATOM= -264.5486
 kinetic energy error for atom=    0.0298 (will be added to EATOM!!)
  PAW_PBE C 08Apr2002                   :
 energy of atom  3       EATOM= -147.1560
 kinetic energy error for atom=    0.0132 (will be added to EATOM!!)
  PAW_PBE Cr_pv 02Aug2007               :
 energy of atom  4       EATOM=-1647.9177
 kinetic energy error for atom=    0.0134 (will be added to EATOM!!)
  PAW_PBE C 08Apr2002                   :
 energy of atom  5       EATOM= -147.1560
 kinetic energy error for atom=    0.0132 (will be added to EATOM!!)
  PAW_PBE O 08Apr2002                   :
 energy of atom  6       EATOM= -432.3788
 kinetic energy error for atom=    0.0458 (will be added to EATOM!!)
 
 
 POSCAR: POSCAR-clean                            
  positions in cartesian coordinates
  No initial velocities read in
 exchange correlation table for  LEXCH =        8
   RHO(1)=    0.500       N(1)  =     2000
   RHO(2)=  100.500       N(2)  =     4000

 VTST: version 3.2, (02/03/18)

 CHAIN: initializing optimizer
 
 OPT: Using VASP Dynamics algorithm
 CHAIN: Read ICHAIN            0
 
 POSCAR: POSCAR-clean                            
  positions in cartesian coordinates
  No initial velocities read in
 


--------------------------------------------------------------------------------------------------------


 ion  position               nearest neighbor table
   1  0.001  0.001  0.484-   2 1.41  60 1.42  70 1.43
   2  0.056  0.111  0.484-  13 1.41   1 1.41  15 1.42
   3  0.168  0.002  0.483-   4 1.42  62 1.42  60 1.43
   4  0.223  0.113  0.484-   3 1.42  15 1.42  17 1.44
   5  0.334  0.002  0.484-   6 1.42  62 1.43  64 1.43
   6  0.390  0.113  0.484-   5 1.42  19 1.43  17 1.44
   7  0.500  1.000  0.484-   8 1.42  64 1.42  66 1.43
   8  0.556  0.111  0.484-   7 1.42  21 1.43  19 1.44
   9  0.666  0.998  0.484-  10 1.42  66 1.43  68 1.43
  10  0.722  0.109  0.483-   9 1.42  23 1.43  21 1.43
  11  0.832  0.998  0.484-  12 1.42  70 1.42  68 1.43
  12  0.889  0.109  0.484-  11 1.42  13 1.43  23 1.43
  13  1.000  0.165  0.484-   2 1.41  14 1.42  12 1.43
  14  0.055  0.276  0.484-  13 1.42  27 1.42  25 1.43
  15  0.166  0.168  0.484-   2 1.42  16 1.42   4 1.42
  16  0.222  0.279  0.486-  27 1.42  15 1.42  29 1.45
  17  0.335  0.170  0.485-  18 1.42   6 1.44   4 1.44
  18  0.391  0.281  0.488-  17 1.42  29 1.43  31 1.44
  19  0.501  0.168  0.484-  20 1.42   6 1.43   8 1.44
  20  0.557  0.280  0.486-  19 1.42  33 1.42  31 1.44
  21  0.667  0.166  0.483-  22 1.42   8 1.43  10 1.43
  22  0.723  0.277  0.484-  21 1.42  35 1.42  33 1.43
  23  0.833  0.165  0.484-  24 1.42  10 1.43  12 1.43
  24  0.888  0.276  0.484-  23 1.42  25 1.42  35 1.42
  25  0.999  0.332  0.484-  24 1.42  26 1.43  14 1.43
  26  0.054  0.443  0.485-  39 1.41  37 1.42  25 1.43
  27  0.165  0.333  0.486-  28 1.41  16 1.42  14 1.42
  28  0.219  0.444  0.488-  41 1.41  27 1.41  39 1.42
  29  0.335  0.337  0.489-  30 1.42  18 1.43  16 1.45
  30  0.387  0.448  0.496-  41 1.40  29 1.42  71 2.01
  31  0.503  0.338  0.490-  32 1.42  18 1.44  20 1.44
  32  0.561  0.449  0.496-  43 1.41  31 1.42  71 2.00
  33  0.668  0.333  0.486-  34 1.42  20 1.42  22 1.43
  34  0.725  0.444  0.487-  43 1.41  33 1.42  45 1.42
  35  0.833  0.332  0.484-  36 1.42  22 1.42  24 1.42
  36  0.890  0.444  0.484-  45 1.42  37 1.42  35 1.42
  37  0.000  0.500  0.484-  36 1.42  26 1.42  38 1.42
  38  0.056  0.611  0.484-  49 1.42  47 1.42  37 1.42
  39  0.164  0.500  0.486-  26 1.41  28 1.42  40 1.42
  40  0.220  0.611  0.486-  49 1.42  51 1.42  39 1.42
  41  0.329  0.499  0.491-  30 1.40  28 1.41  42 1.44
  42  0.385  0.612  0.491-  53 1.41  51 1.41  41 1.44
  43  0.671  0.499  0.491-  32 1.41  34 1.41  44 1.44
  44  0.727  0.612  0.491-  55 1.41  57 1.41  43 1.44
  45  0.835  0.500  0.486-  36 1.42  34 1.42  46 1.42
  46  0.891  0.611  0.486-  47 1.41  57 1.42  45 1.42
  47  0.001  0.668  0.484-  46 1.41  38 1.42  48 1.43
  48  0.057  0.779  0.484-  61 1.42  47 1.43  59 1.43
  49  0.166  0.667  0.485-  40 1.42  38 1.42  50 1.42
  50  0.222  0.779  0.484-  61 1.42  49 1.42  63 1.42
  51  0.331  0.667  0.488-  42 1.41  52 1.42  40 1.42
  52  0.388  0.778  0.486-  51 1.42  65 1.42  63 1.43
  53  0.495  0.663  0.496-  42 1.41  54 1.42  71 1.99
  54  0.553  0.773  0.489-  53 1.42  67 1.44  65 1.44
  55  0.669  0.663  0.496-  44 1.41  56 1.42  71 2.00
  56  0.721  0.774  0.490-  55 1.42  67 1.44  69 1.45
  57  0.837  0.667  0.487-  44 1.41  46 1.42  58 1.42
  58  0.891  0.779  0.486-  57 1.42  69 1.42  59 1.42
  59  0.001  0.835  0.484-  58 1.42  60 1.42  48 1.43
  60  0.057  0.947  0.483-   1 1.42  59 1.42   3 1.43
  61  0.167  0.835  0.484-  48 1.42  50 1.42  62 1.42
  62  0.223  0.946  0.484-   3 1.42  61 1.42   5 1.43
  63  0.333  0.834  0.484-  64 1.42  50 1.42  52 1.43
  64  0.389  0.946  0.484-  63 1.42   7 1.42   5 1.43
  65  0.499  0.832  0.486-  66 1.42  52 1.42  54 1.44
  66  0.555  0.943  0.484-  65 1.42   9 1.43   7 1.43
  67  0.665  0.830  0.488-  68 1.42  56 1.44  54 1.44
  68  0.721  0.941  0.485-  67 1.42  11 1.43   9 1.43
  69  0.834  0.832  0.486-  58 1.42  70 1.43  56 1.45
  70  0.889  0.944  0.484-  11 1.42  69 1.43   1 1.43
  71  0.528  0.556  0.540-  53 1.99  32 2.00  55 2.00  30 2.01
  72  0.528  0.556  0.939-  73 1.16
  73  0.478  0.499  0.995-  72 1.16
 

IMPORTANT INFORMATION: All symmetrisations will be switched off!
NOSYMM: (Re-)initialisation of all symmetry stuff for point group C_1.

 
 
 KPOINTS: K-Points                                

Automatic generation of k-mesh.
Space group operators:
 irot       det(A)        alpha          n_x          n_y          n_z        tau_x        tau_y        tau_z
    1     1.000000     0.000000     1.000000     0.000000     0.000000     0.000000     0.000000     0.000000
 
 Subroutine IBZKPT returns following result:
 ===========================================
 
 Found      5 irreducible k-points:
 
 Following reciprocal coordinates:
            Coordinates               Weight
  0.000000  0.000000  0.000000      1.000000
  0.333333  0.000000  0.000000      2.000000
 -0.000000  0.333333  0.000000      2.000000
  0.333333  0.333333  0.000000      2.000000
 -0.333333  0.333333  0.000000      2.000000
 
 Following cartesian coordinates:
            Coordinates               Weight
  0.000000  0.000000  0.000000      1.000000
  0.022430  0.013065  0.000000      2.000000
 -0.000003  0.026130  0.000000      2.000000
  0.022428  0.039195  0.000000      2.000000
 -0.022433  0.013065  0.000000      2.000000
 
 TETIRR: Found     24 inequivalent tetrahedra from       54


--------------------------------------------------------------------------------------------------------




 Dimension of arrays:
   k-points           NKPTS =      5   k-points in BZ     NKDIM =      5   number of bands    NBANDS=    192
   number of dos      NEDOS =   4000   number of ions     NIONS =     73
   non local maximal  LDIM  =      6   non local SUM 2l+1 LMDIM =     18
   total plane-waves  NPLWV = 512000
   max r-space proj   IRMAX =      1   max aug-charges    IRDMAX=   6464
   dimension x,y,z NGX =    80 NGY =   80 NGZ =   80
   dimension x,y,z NGXF=   160 NGYF=  160 NGZF=  160
   support grid    NGXF=   160 NGYF=  160 NGZF=  160
   ions per type =               1   1  68   1   1   1
   NGX,Y,Z   is equivalent  to a cutoff of   8.95,  9.01,  8.87 a.u.
   NGXF,Y,Z  is equivalent  to a cutoff of  17.90, 18.02, 17.73 a.u.

 SYSTEM =  unknown system                          
 POSCAR =  POSCAR-clean                            

 Startparameter for this run:
   NWRITE =      2    write-flag & timer
   PREC   = normal    normal or accurate (medium, high low for compatibility)
   ISTART =      0    job   : 0-new  1-cont  2-samecut
   ICHARG =      2    charge: 1-file 2-atom 10-const
   ISPIN  =      2    spin polarized calculation?
   LNONCOLLINEAR =      F non collinear calculations
   LSORBIT =      F    spin-orbit coupling
   INIWAV =      1    electr: 0-lowe 1-rand  2-diag
   LASPH  =      F    aspherical Exc in radial PAW
   METAGGA=      F    non-selfconsistent MetaGGA calc.

 Electronic Relaxation 1
   ENCUT  =  440.0 eV  32.34 Ry    5.69 a.u.  25.42 25.25 25.66*2*pi/ulx,y,z
   ENINI  =  440.0     initial cutoff
   ENAUG  =  644.9 eV  augmentation charge cutoff
   NELM   =    100;   NELMIN=  2; NELMDL= -5     # of ELM steps 
   EDIFF  = 0.1E-03   stopping-criterion for ELM
   LREAL  =      F    real-space projection
   NLSPLINE    = F    spline interpolate recip. space projectors
   LCOMPAT=      F    compatible to vasp.4.4
   GGA_COMPAT  = T    GGA compatible to vasp.4.4-vasp.4.6
   LMAXPAW     = -100 max onsite density
   LMAXMIX     =    2 max onsite mixed and CHGCAR
   VOSKOWN=      0    Vosko Wilk Nusair interpolation
   ROPT   =    0.00000   0.00000   0.00000   0.00000
   ROPT   =    0.00000   0.00000
 Ionic relaxation
   EDIFFG = -.1E-01   stopping-criterion for IOM
   NSW    =      0    number of steps for IOM
   NBLOCK =      1;   KBLOCK =      1    inner block; outer block 
   IBRION =     -1    ionic relax: 0-MD 1-quasi-New 2-CG
   NFREE  =      0    steps in history (QN), initial steepest desc. (CG)
   ISIF   =      2    stress and relaxation
   IWAVPR =     10    prediction:  0-non 1-charg 2-wave 3-comb
   ISYM   =      0    0-nonsym 1-usesym 2-fastsym
   LCORR  =      T    Harris-Foulkes like correction to forces

   POTIM  = 0.5000    time-step for ionic-motion
   TEIN   =    0.0    initial temperature
   TEBEG  =    0.0;   TEEND  =   0.0 temperature during run
   SMASS  =  -3.00    Nose mass-parameter (am)
   estimated Nose-frequenzy (Omega)   =  0.10E-29 period in steps =****** mass=  -0.505E-26a.u.
   SCALEE = 1.0000    scale energy and forces
   NPACO  =    256;   APACO  = 16.0  distance and # of slots for P.C.
   PSTRESS=    0.0 pullay stress

  Mass of Ions in am
   POMASS =  12.01 14.00 12.01 52.00 12.01 16.00
  Ionic Valenz
   ZVAL   =   4.00  5.00  4.00 12.00  4.00  6.00
  Atomic Wigner-Seitz radii
   RWIGS  =  -1.00 -1.00 -1.00 -1.00 -1.00 -1.00
  virtual crystal weights 
   VCA    =   1.00  1.00  1.00  1.00  1.00  1.00
   NELECT =     303.0000    total number of electrons
   NUPDOWN=      -1.0000    fix difference up-down

 DOS related values:
   EMIN   = -14.00;   EMAX   =  6.00  energy-range for DOS
   EFERMI =   0.00
   ISMEAR =    -5;   SIGMA  =   0.20  broadening in eV -4-tet -1-fermi 0-gaus

 Electronic relaxation 2 (details)
   IALGO  =     38    algorithm
   LDIAG  =      T    sub-space diagonalisation (order eigenvalues)
   LSUBROT=      F    optimize rotation matrix (better conditioning)
   TURBO    =      0    0=normal 1=particle mesh
   IRESTART =      0    0=no restart 2=restart with 2 vectors
   NREBOOT  =      0    no. of reboots
   NMIN     =      0    reboot dimension
   EREF     =   0.00    reference energy to select bands
   IMIX   =      4    mixing-type and parameters
     AMIX     =   0.25;   BMIX     =  0.00
     AMIX_MAG =   1.00;   BMIX_MAG =  0.00
     AMIN     =   0.10
     WC   =   100.;   INIMIX=   1;  MIXPRE=   1;  MAXMIX= -45

 Intra band minimization:
   WEIMIN = 0.0000     energy-eigenvalue tresh-hold
   EBREAK =  0.13E-06  absolut break condition
   DEPER  =   0.30     relativ break condition  

   TIME   =   0.40     timestep for ELM

  volume/ion in A,a.u.               =      38.95       262.86
  Fermi-wavevector in a.u.,A,eV,Ry     =   0.776139  1.466690  8.196032  0.602391
  Thomas-Fermi vector in A             =   1.878554
 
 Write flags
   LWAVE        =      F    write WAVECAR
   LDOWNSAMPLE  =      F    k-point downsampling of WAVECAR
   LCHARG       =      F    write CHGCAR
   LVTOT        =      F    write LOCPOT, total local potential
   LVHAR        =      F    write LOCPOT, Hartree potential only
   LELF         =      F    write electronic localiz. function (ELF)
   LORBIT       =     11    0 simple, 1 ext, 2 COOP (PROOUT), +10 PAW based schemes


 Dipole corrections
   LMONO  =      F    monopole corrections only (constant potential shift)
   LDIPOL =      F    correct potential (dipole corrections)
   IDIPOL =      0    1-x, 2-y, 3-z, 4-all directions 
   EPSILON=  1.0000000 bulk dielectric constant

 Exchange correlation treatment:
   GGA     =    --    GGA type
   LEXCH   =     8    internal setting for exchange type
   VOSKOWN=      0    Vosko Wilk Nusair interpolation
   LHFCALC =     F    Hartree Fock is set to
   LHFONE  =     F    Hartree Fock one center treatment
   AEXX    =    0.0000 exact exchange contribution

 Linear response parameters
   LEPSILON=     F    determine dielectric tensor
   LRPA    =     F    only Hartree local field effects (RPA)
   LNABLA  =     F    use nabla operator in PAW spheres
   LVEL    =     F    velocity operator in full k-point grid
   LINTERFAST=   F  fast interpolation
   KINTER  =     0    interpolate to denser k-point grid
   CSHIFT  =0.1000    complex shift for real part using Kramers Kronig
   OMEGAMAX=  -1.0    maximum frequency
   DEG_THRESHOLD= 0.2000000E-02 threshold for treating states as degnerate
   RTIME   =   -0.100 relaxation time in fs
  (WPLASMAI=    0.000 imaginary part of plasma frequency in eV, 0.658/RTIME)
   DFIELD  = 0.0000000 0.0000000 0.0000000 field for delta impulse in time
 
 Orbital magnetization related:
   ORBITALMAG=     F  switch on orbital magnetization
   LCHIMAG   =     F  perturbation theory with respect to B field
   DQ        =  0.001000  dq finite difference perturbation B field
   LLRAUG    =     F  two centre corrections for induced B field



--------------------------------------------------------------------------------------------------------


 Static calculation
 charge density and potential will be updated during run
 spin polarized calculation
 Variant of blocked Davidson
 Davidson routine will perform the subspace rotation
 perform sub-space diagonalisation
    after iterative eigenvector-optimisation
 modified Broyden-mixing scheme, WC =      100.0
 initial mixing is a Kerker type mixing with AMIX =  0.2500 and BMIX =      0.0001
 Hartree-type preconditioning will be used
 using additional bands           40
 reciprocal scheme for non local part
 use partial core corrections
 calculate Harris-corrections to forces 
   (improved forces if not selfconsistent)
 use gradient corrections 
 use of overlap-Matrix (Vanderbilt PP)
 Fermi weights with tetrahedron method with Bloechl corrections


--------------------------------------------------------------------------------------------------------


  energy-cutoff  :      440.00
  volume of cell :     2843.47
      direct lattice vectors                 reciprocal lattice vectors
    14.859800864  0.001585983  0.000000000     0.067291470  0.039194507  0.000000000
    -7.429900432 12.756096762  0.000000000    -0.000008366  0.078389013  0.000000000
     0.000000000  0.000000000 15.000000000     0.000000000  0.000000000  0.066666667

  length of vectors
    14.859800949 14.762161936 15.000000000     0.077873944  0.078389014  0.066666667


 
 k-points in units of 2pi/SCALE and weight: K-Points                                
   0.00000000  0.00000000  0.00000000       0.111
   0.02243049  0.01306484  0.00000000       0.222
  -0.00000279  0.02612967  0.00000000       0.222
   0.02242770  0.03919451  0.00000000       0.222
  -0.02243328  0.01306484  0.00000000       0.222
 
 k-points in reciprocal lattice and weights: K-Points                                
   0.00000000  0.00000000  0.00000000       0.111
   0.33333333  0.00000000  0.00000000       0.222
  -0.00000000  0.33333333  0.00000000       0.222
   0.33333333  0.33333333  0.00000000       0.222
  -0.33333333  0.33333333  0.00000000       0.222
 
 position of ions in fractional coordinates (direct lattice) 
   0.00056951  0.00084588  0.48365645
   0.05575914  0.11141582  0.48371934
   0.16804097  0.00190146  0.48347964
   0.22251662  0.11309082  0.48418372
   0.33426949  0.00218153  0.48369701
   0.38967483  0.11343057  0.48433246
   0.50005878  0.99988633  0.48368492
   0.55586608  0.11138498  0.48360431
   0.66595688  0.99796335  0.48420394
   0.72205267  0.10924539  0.48349425
   0.83212085  0.99775883  0.48434621
   0.88860901  0.10892972  0.48367991
   0.99975021  0.16504755  0.48377021
   0.05467280  0.27598334  0.48443482
   0.16622760  0.16751337  0.48436541
   0.22192509  0.27890496  0.48601894
   0.33460942  0.17034638  0.48532744
   0.39058643  0.28134835  0.48848836
   0.50078330  0.16812353  0.48437148
   0.55685385  0.27964891  0.48600676
   0.66684020  0.16552439  0.48347883
   0.72260942  0.27669638  0.48399096
   0.83331277  0.16500782  0.48356150
   0.88845826  0.27625096  0.48370796
   0.99897522  0.33156027  0.48426773
   0.05438680  0.44340115  0.48473688
   0.16543864  0.33300024  0.48595201
   0.21907626  0.44374031  0.48762228
   0.33463297  0.33706345  0.48941128
   0.38695724  0.44794202  0.49551250
   0.50263751  0.33785175  0.48953911
   0.56126780  0.44852781  0.49573145
   0.66770984  0.33287574  0.48561107
   0.72498261  0.44391954  0.48715449
   0.83344369  0.33220983  0.48386599
   0.88959527  0.44376771  0.48421460
   0.00001230  0.49963406  0.48424676
   0.05576601  0.61133579  0.48423580
   0.16444583  0.49973142  0.48626128
   0.22025053  0.61116802  0.48625409
   0.32896013  0.49909156  0.49116496
   0.38526152  0.61174583  0.49118082
   0.67061847  0.49935001  0.49112256
   0.72692858  0.61191880  0.49114028
   0.83542938  0.49984547  0.48550579
   0.89116782  0.61137939  0.48550400
   0.00132404  0.66755745  0.48419908
   0.05666750  0.77929571  0.48385293
   0.16612421  0.66728867  0.48472153
   0.22231004  0.77891272  0.48427282
   0.33084015  0.66709720  0.48764094
   0.38813233  0.77829851  0.48596574
   0.49464976  0.66255489  0.49556819
   0.55323808  0.77331460  0.48933717
   0.66864934  0.66300578  0.49590502
   0.72099004  0.77379828  0.48950831
   0.83664448  0.66732953  0.48716208
   0.89057925  0.77857591  0.48560564
   0.00126484  0.83506221  0.48397845
   0.05696142  0.94669046  0.48347587
   0.16736385  0.83478072  0.48370014
   0.22319038  0.94640738  0.48356521
   0.33326085  0.83449958  0.48445073
   0.38922216  0.94575409  0.48378093
   0.49900740  0.83153370  0.48600542
   0.55498512  0.94315555  0.48432662
   0.66512860  0.82970205  0.48842882
   0.72082687  0.94112766  0.48533281
   0.83358101  0.83217362  0.48598609
   0.88924436  0.94411687  0.48440154
   0.52796547  0.55569595  0.54043274
   0.52796547  0.55569595  0.93909941
   0.47791489  0.49880046  0.99545522
 
 position of ions in cartesian coordinates  (Angst):
   0.00217791  0.01079108  7.25484671
   0.00076124  1.42131943  7.25579015
   2.48292770  0.02452168  7.25219467
   2.46629918  1.44295037  7.26275576
   4.95096954  0.02835795  7.25545511
   4.94771249  1.44754931  7.26498691
   0.00171801 12.75543988  7.25527376
   7.43248004  1.42171913  7.25406470
   2.48121824 12.73117331  7.26305910
   9.91787643  1.39468998  7.25241372
   4.95190133 12.72882785  7.26519320
  12.39521600  1.39092737  7.25519859
  13.62980215  2.10694809  7.25655319
  -1.23810188  3.52055694  7.26652225
   1.22550144  2.13708037  7.26548118
   1.22552662  3.55809058  7.29028416
   3.70657272  2.17348562  7.27991164
   3.71364637  3.58952629  7.32732539
   6.19239900  2.14539424  7.26557224
   6.19697377  3.56811176  7.29010139
   8.67928289  2.11250273  7.25218249
   8.68200552  3.53071184  7.25986446
  11.15687009  2.10617740  7.25342245
  11.14979568  3.52529311  7.25561933
  12.38111304  4.23099929  7.26401588
  -2.48624934  5.65615419  7.27105315
  -0.01577339  4.24804564  7.28928020
  -0.04151678  5.66074176  7.31433426
   2.46823147  4.30014475  7.34116917
   2.42194285  5.71460546  7.43268743
   4.95888843  4.31046677  7.34308662
   5.00781070  5.72235432  7.43597173
   7.44880169  4.24725410  7.28416603
   7.47481919  5.66383043  7.30731738
   9.91652132  4.23902256  7.25798988
   9.92205867  5.66215473  7.26321898
  -3.71204847  6.37338042  7.26370134
  -3.71349226  7.79834697  7.26353700
  -1.26932242  6.37488317  7.29391927
  -1.26803848  7.79646768  7.29381138
   1.18008149  6.36698195  7.36747433
   1.17969890  7.80410003  7.36771234
   6.25513599  6.37082067  7.36683835
   6.25551821  7.80684830  7.36710423
   8.70051214  6.37740214  7.28258691
   8.70008830  7.80022806  7.28255993
  -4.94021044  8.51542955  7.26298626
  -4.94802178  9.94086131  7.25779392
  -2.48931579  8.51226236  7.27082300
  -2.48376096  9.93623855  7.26409224
  -0.04024701  8.51008114  7.31461414
  -0.01511128  9.92866663  7.28948606
   2.42768006  8.45239876  7.43352280
   2.47535726  9.86535332  7.34005758
   5.00992918  8.45842635  7.43857528
   4.96452426  9.87178921  7.34262462
   7.47417840  8.51384697  7.30743122
   7.44908877  9.93300209  7.28408466
  -6.18563376 10.65213633  7.25967670
  -6.18738055 12.07616547  7.25213811
  -3.71534425 10.64880912  7.25550217
  -3.71514797 12.07281811  7.25347821
  -1.24805891 10.64548594  7.26676093
  -1.24309488 12.06474792  7.25671399
   1.23693806 10.60791578  7.29008125
   1.23941655 12.03186367  7.26489928
   3.71907496 10.58481456  7.32643227
   3.71885893 12.00625876  7.27999220
   6.20388064 10.61660931  7.28979130
   6.19929980 12.04465652  7.26602303
   3.71669620  7.08934863  8.10649108
   3.71669620  7.08934863 14.08649108
   3.39568225  6.36350494 14.93182826
 


--------------------------------------------------------------------------------------------------------


 k-point  1 :   0.0000 0.0000 0.0000  plane waves:   59589
 k-point  2 :   0.3333 0.0000 0.0000  plane waves:   59572
 k-point  3 :  -0.0000 0.3333 0.0000  plane waves:   59616
 k-point  4 :   0.3333 0.3333 0.0000  plane waves:   59644
 k-point  5 :  -0.3333 0.3333 0.0000  plane waves:   59572

 maximum and minimum number of plane-waves per node :      4994     4933

 maximum number of plane-waves:     59644
 maximum index in each direction: 
   IXMAX=   25   IYMAX=   25   IZMAX=   25
   IXMIN=  -25   IYMIN=  -25   IZMIN=  -25


 parallel 3D FFT for wavefunctions:
    minimum data exchange during FFTs selected (reduces bandwidth)
 parallel 3D FFT for charge:
    minimum data exchange during FFTs selected (reduces bandwidth)


 total amount of memory used by VASP MPI-rank0   115936. kBytes
=======================================================================

   base      :      30000. kBytes
   nonl-proj :      27242. kBytes
   fftplans  :       4700. kBytes
   grid      :      15193. kBytes
   one-center:        217. kBytes
   wavefun   :      38584. kBytes
 
     INWAV:  cpu time    0.0000: real time    0.0000
 Broyden mixing: mesh for mixing (old mesh)
   NGX = 51   NGY = 51   NGZ = 51
  (NGX  =160   NGY  =160   NGZ  =160)
  gives a total of 132651 points

 initial charge density was supplied:
 charge density of overlapping atoms calculated
 number of electron     303.0000000 magnetization       2.0000000
 keeping initial charge density in first step


--------------------------------------------------------------------------------------------------------


 Maximum index for augmentation-charges          179 (set IRDMAX)


--------------------------------------------------------------------------------------------------------


 First call to EWALD:  gamma=   0.125
 Maximum number of real-space cells 3x 3x 3
 Maximum number of reciprocal cells 3x 3x 3

    FEWALD:  cpu time    0.0042: real time    0.0044


--------------------------------------- Iteration      1(   1)  ---------------------------------------


    POTLOK:  cpu time    0.1999: real time    0.2240
    SETDIJ:  cpu time    0.0083: real time    0.0095
     EDDAV:  cpu time   11.3453: real time   11.4659
 BZINTS: Fermi energy:  7.955949;303.000000 electrons
         Band energy:***********;  BLOECHL correction: -0.011455
       DOS:  cpu time    0.1089: real time    0.1092
    --------------------------------------------
      LOOP:  cpu time   11.6623: real time   11.8086

 eigenvalue-minimisations  :  4360
 total energy-change (2. order) : 0.2532610E+04  (-0.1116869E+05)
 number of electron     303.0000000 magnetization       2.0000000
 augmentation part      303.0000000 magnetization       2.0000000

 Free energy of the ion-electron system (eV)
  ---------------------------------------------------
  alpha Z        PSCENC =       167.23368790
  Ewald energy   TEWEN  =     28887.28679996
  -Hartree energ DENC   =    -38565.52524633
  -exchange      EXHF   =         0.00000000
  -V(xc)+E(xc)   XCENC  =      1022.17016090
  PAW double counting   =      9455.23336183    -9546.47664214
  entropy T*S    EENTRO =         0.00000000
  eigenvalues    EBANDS =     -1532.06517598
  atomic energy  EATOM  =     12644.75315347
  Solvation  Ediel_sol  =         0.00000000
  ---------------------------------------------------
  free energy    TOTEN  =      2532.61009961 eV

  energy without entropy =     2532.61009961  energy(sigma->0) =     2532.61009961


--------------------------------------------------------------------------------------------------------




--------------------------------------- Iteration      1(   2)  ---------------------------------------


     EDDAV:  cpu time   15.0133: real time   15.3205
 BZINTS: Fermi energy: -1.348262;303.000000 electrons
         Band energy:***********;  BLOECHL correction: -0.070598
       DOS:  cpu time    0.0113: real time    0.0113
    --------------------------------------------
      LOOP:  cpu time   15.0247: real time   15.3318

 eigenvalue-minimisations  :  5480
 total energy-change (2. order) :-0.2771214E+04  (-0.2643665E+04)
 number of electron     303.0000000 magnetization       2.0000000
 augmentation part      303.0000000 magnetization       2.0000000

 Free energy of the ion-electron system (eV)
  ---------------------------------------------------
  alpha Z        PSCENC =       167.23368790
  Ewald energy   TEWEN  =     28887.28679996
  -Hartree energ DENC   =    -38565.52524633
  -exchange      EXHF   =         0.00000000
  -V(xc)+E(xc)   XCENC  =      1022.17016090
  PAW double counting   =      9455.23336183    -9546.47664214
  entropy T*S    EENTRO =         0.00000000
  eigenvalues    EBANDS =     -4303.27924607
  atomic energy  EATOM  =     12644.75315347
  Solvation  Ediel_sol  =         0.00000000
  ---------------------------------------------------
  free energy    TOTEN  =      -238.60397048 eV

  energy without entropy =     -238.60397048  energy(sigma->0) =     -238.60397048


--------------------------------------------------------------------------------------------------------




--------------------------------------- Iteration      1(   3)  ---------------------------------------


     EDDAV:  cpu time   13.0262: real time   13.1952
 BZINTS: Fermi energy: -4.518386;303.000000 electrons
         Band energy:***********;  BLOECHL correction: -0.029701
       DOS:  cpu time    0.0119: real time    0.0120
    --------------------------------------------
      LOOP:  cpu time   13.0381: real time   13.2072

 eigenvalue-minimisations  :  4560
 total energy-change (2. order) :-0.4638120E+03  (-0.4603057E+03)
 number of electron     303.0000000 magnetization       2.0000000
 augmentation part      303.0000000 magnetization       2.0000000

 Free energy of the ion-electron system (eV)
  ---------------------------------------------------
  alpha Z        PSCENC =       167.23368790
  Ewald energy   TEWEN  =     28887.28679996
  -Hartree energ DENC   =    -38565.52524633
  -exchange      EXHF   =         0.00000000
  -V(xc)+E(xc)   XCENC  =      1022.17016090
  PAW double counting   =      9455.23336183    -9546.47664214
  entropy T*S    EENTRO =         0.00000000
  eigenvalues    EBANDS =     -4767.09123842
  atomic energy  EATOM  =     12644.75315347
  Solvation  Ediel_sol  =         0.00000000
  ---------------------------------------------------
  free energy    TOTEN  =      -702.41596284 eV

  energy without entropy =     -702.41596284  energy(sigma->0) =     -702.41596284


--------------------------------------------------------------------------------------------------------




--------------------------------------- Iteration      1(   4)  ---------------------------------------


     EDDAV:  cpu time   12.9036: real time   13.2015
 BZINTS: Fermi energy: -4.691701;303.000000 electrons
         Band energy:***********;  BLOECHL correction: -0.031793
       DOS:  cpu time    0.0117: real time    0.0117
    --------------------------------------------
      LOOP:  cpu time   12.9152: real time   13.2132

 eigenvalue-minimisations  :  4624
 total energy-change (2. order) :-0.1677086E+02  (-0.1662952E+02)
 number of electron     303.0000000 magnetization       2.0000000
 augmentation part      303.0000000 magnetization       2.0000000

 Free energy of the ion-electron system (eV)
  ---------------------------------------------------
  alpha Z        PSCENC =       167.23368790
  Ewald energy   TEWEN  =     28887.28679996
  -Hartree energ DENC   =    -38565.52524633
  -exchange      EXHF   =         0.00000000
  -V(xc)+E(xc)   XCENC  =      1022.17016090
  PAW double counting   =      9455.23336183    -9546.47664214
  entropy T*S    EENTRO =         0.00000000
  eigenvalues    EBANDS =     -4783.86210076
  atomic energy  EATOM  =     12644.75315347
  Solvation  Ediel_sol  =         0.00000000
  ---------------------------------------------------
  free energy    TOTEN  =      -719.18682518 eV

  energy without entropy =     -719.18682518  energy(sigma->0) =     -719.18682518


--------------------------------------------------------------------------------------------------------




--------------------------------------- Iteration      1(   5)  ---------------------------------------


     EDDAV:  cpu time   14.1466: real time   14.3200
 BZINTS: Fermi energy: -4.701372;303.000000 electrons
         Band energy:***********;  BLOECHL correction: -0.031892
       DOS:  cpu time    0.0117: real time    0.0118
    CHARGE:  cpu time    0.1926: real time    0.1969
    MIXING:  cpu time    0.0049: real time    0.0050
    --------------------------------------------
      LOOP:  cpu time   14.3558: real time   14.5337

 eigenvalue-minimisations  :  5304
 total energy-change (2. order) :-0.5511402E+00  (-0.5495212E+00)
 number of electron     302.9999977 magnetization       0.0222525
 augmentation part       12.3735663 magnetization       0.0670080

 Broyden mixing:
  rms(total) = 0.47670E+01    rms(broyden)= 0.47664E+01
  rms(prec ) = 0.55262E+01
  weight for this iteration     100.00

 Free energy of the ion-electron system (eV)
  ---------------------------------------------------
  alpha Z        PSCENC =       167.23368790
  Ewald energy   TEWEN  =     28887.28679996
  -Hartree energ DENC   =    -38565.52524633
  -exchange      EXHF   =         0.00000000
  -V(xc)+E(xc)   XCENC  =      1022.17016090
  PAW double counting   =      9455.23336183    -9546.47664214
  entropy T*S    EENTRO =         0.00000000
  eigenvalues    EBANDS =     -4784.41324101
  atomic energy  EATOM  =     12644.75315347
  Solvation  Ediel_sol  =         0.00000000
  ---------------------------------------------------
  free energy    TOTEN  =      -719.73796542 eV

  energy without entropy =     -719.73796542  energy(sigma->0) =     -719.73796542


--------------------------------------------------------------------------------------------------------




--------------------------------------- Iteration      1(   6)  ---------------------------------------


    POTLOK:  cpu time    0.1271: real time    0.1294
    SETDIJ:  cpu time    0.0107: real time    0.0107
     EDDAV:  cpu time   12.9093: real time   13.0571
 BZINTS: Fermi energy: -5.507482;303.000000 electrons
         Band energy:***********;  BLOECHL correction: -0.023514
       DOS:  cpu time    0.0115: real time    0.0116
    CHARGE:  cpu time    0.1655: real time    0.1719
    MIXING:  cpu time    0.0034: real time    0.0064
    --------------------------------------------
      LOOP:  cpu time   13.2276: real time   13.3871

 eigenvalue-minimisations  :  4920
 total energy-change (2. order) :-0.2197628E+00  (-0.9287815E+01)
 number of electron     303.0000024 magnetization       0.0178878
 augmentation part       18.0256200 magnetization       0.0278260

 Broyden mixing:
  rms(total) = 0.74704E+01    rms(broyden)= 0.74701E+01
  rms(prec ) = 0.85449E+01
  weight for this iteration     100.00

 eigenvalues of (default mixing * dielectric matrix)
  average eigenvalue GAMMA=   0.2832
  0.2832

 Free energy of the ion-electron system (eV)
  ---------------------------------------------------
  alpha Z        PSCENC =       167.23368790
  Ewald energy   TEWEN  =     28887.28679996
  -Hartree energ DENC   =    -38940.96389522
  -exchange      EXHF   =         0.00000000
  -V(xc)+E(xc)   XCENC  =      1034.95711284
  PAW double counting   =     13241.36282759   -13332.57141274
  entropy T*S    EENTRO =         0.00000000
  eigenvalues    EBANDS =     -4422.01600205
  atomic energy  EATOM  =     12644.75315347
  Solvation  Ediel_sol  =         0.00000000
  ---------------------------------------------------
  free energy    TOTEN  =      -719.95772825 eV

  energy without entropy =     -719.95772825  energy(sigma->0) =     -719.95772825


--------------------------------------------------------------------------------------------------------




--------------------------------------- Iteration      1(   7)  ---------------------------------------


    POTLOK:  cpu time    0.1780: real time    0.1857
    SETDIJ:  cpu time    0.0107: real time    0.0107
     EDDAV:  cpu time   13.3862: real time   13.6699
 BZINTS: Fermi energy: -4.108622;303.000000 electrons
         Band energy:***********;  BLOECHL correction: -0.019328
       DOS:  cpu time    0.0123: real time    0.0124
    CHARGE:  cpu time    0.1648: real time    0.1687
    MIXING:  cpu time    0.0039: real time    0.0048
    --------------------------------------------
      LOOP:  cpu time   13.7559: real time   14.0522

 eigenvalue-minimisations  :  5048
 total energy-change (2. order) : 0.4641025E+02  (-0.6405186E+01)
 number of electron     303.0000015 magnetization       0.5941623
 augmentation part       14.5578896 magnetization       0.3811377

 Broyden mixing:
  rms(total) = 0.26923E+01    rms(broyden)= 0.26917E+01
  rms(prec ) = 0.29740E+01
  weight for this iteration     100.00

 eigenvalues of (default mixing * dielectric matrix)
  average eigenvalue GAMMA=   0.6224
  0.9222  0.3226

 Free energy of the ion-electron system (eV)
  ---------------------------------------------------
  alpha Z        PSCENC =       167.23368790
  Ewald energy   TEWEN  =     28887.28679996
  -Hartree energ DENC   =    -39082.47431205
  -exchange      EXHF   =         0.00000000
  -V(xc)+E(xc)   XCENC  =      1039.44580508
  PAW double counting   =     14474.82684623   -14570.59210590
  entropy T*S    EENTRO =         0.00000000
  eigenvalues    EBANDS =     -4234.02734982
  atomic energy  EATOM  =     12644.75315347
  Solvation  Ediel_sol  =         0.00000000
  ---------------------------------------------------
  free energy    TOTEN  =      -673.54747514 eV

  energy without entropy =     -673.54747514  energy(sigma->0) =     -673.54747514


--------------------------------------------------------------------------------------------------------




--------------------------------------- Iteration      1(   8)  ---------------------------------------


    POTLOK:  cpu time    0.1393: real time    0.1414
    SETDIJ:  cpu time    0.0087: real time    0.0088
     EDDAV:  cpu time   13.0720: real time   13.1826
 BZINTS: Fermi energy: -2.475834;303.000000 electrons
         Band energy:***********;  BLOECHL correction: -0.042791
       DOS:  cpu time    0.0121: real time    0.0121
    CHARGE:  cpu time    0.1652: real time    0.1668
    MIXING:  cpu time    0.0033: real time    0.0038
    --------------------------------------------
      LOOP:  cpu time   13.4006: real time   13.5155

 eigenvalue-minimisations  :  4912
 total energy-change (2. order) : 0.3058948E+01  (-0.3790518E+01)
 number of electron     302.9999986 magnetization       0.3256015
 augmentation part       12.1907105 magnetization       0.2274377

 Broyden mixing:
  rms(total) = 0.26877E+01    rms(broyden)= 0.26869E+01
  rms(prec ) = 0.31851E+01
  weight for this iteration     100.00

 eigenvalues of (default mixing * dielectric matrix)
  average eigenvalue GAMMA=   1.1186
  2.5696  0.3930  0.3930

 Free energy of the ion-electron system (eV)
  ---------------------------------------------------
  alpha Z        PSCENC =       167.23368790
  Ewald energy   TEWEN  =     28887.28679996
  -Hartree energ DENC   =    -39366.31855126
  -exchange      EXHF   =         0.00000000
  -V(xc)+E(xc)   XCENC  =      1049.05348463
  PAW double counting   =     18097.86362001   -18196.81395115
  entropy T*S    EENTRO =         0.00000000
  eigenvalues    EBANDS =     -3953.54677038
  atomic energy  EATOM  =     12644.75315347
  Solvation  Ediel_sol  =         0.00000000
  ---------------------------------------------------
  free energy    TOTEN  =      -670.48852682 eV

  energy without entropy =     -670.48852682  energy(sigma->0) =     -670.48852682


--------------------------------------------------------------------------------------------------------




--------------------------------------- Iteration      1(   9)  ---------------------------------------


    POTLOK:  cpu time    0.1442: real time    0.1466
    SETDIJ:  cpu time    0.0088: real time    0.0089
     EDDAV:  cpu time   12.4124: real time   12.6162
 BZINTS: Fermi energy: -2.815363;303.000000 electrons
         Band energy:***********;  BLOECHL correction: -0.080476
       DOS:  cpu time    0.0118: real time    0.0119
    CHARGE:  cpu time    0.1661: real time    0.1668
    MIXING:  cpu time    0.0037: real time    0.0037
    --------------------------------------------
      LOOP:  cpu time   12.7470: real time   12.9540

 eigenvalue-minimisations  :  4608
 total energy-change (2. order) : 0.5934060E+01  (-0.2476747E+01)
 number of electron     303.0000018 magnetization      -0.0177010
 augmentation part       15.0199250 magnetization      -0.0504751

 Broyden mixing:
  rms(total) = 0.20932E+01    rms(broyden)= 0.20917E+01
  rms(prec ) = 0.26953E+01
  weight for this iteration     100.00

 eigenvalues of (default mixing * dielectric matrix)
  average eigenvalue GAMMA=   1.0643
  2.7672  0.7890  0.3505  0.3505

 Free energy of the ion-electron system (eV)
  ---------------------------------------------------
  alpha Z        PSCENC =       167.23368790
  Ewald energy   TEWEN  =     28887.28679996
  -Hartree energ DENC   =    -39784.46407262
  -exchange      EXHF   =         0.00000000
  -V(xc)+E(xc)   XCENC  =      1064.27038442
  PAW double counting   =     25844.88678927   -25947.21823568
  entropy T*S    EENTRO =         0.00000000
  eigenvalues    EBANDS =     -3541.30297398
  atomic energy  EATOM  =     12644.75315347
  Solvation  Ediel_sol  =         0.00000000
  ---------------------------------------------------
  free energy    TOTEN  =      -664.55446727 eV

  energy without entropy =     -664.55446727  energy(sigma->0) =     -664.55446727


--------------------------------------------------------------------------------------------------------




--------------------------------------- Iteration      1(  10)  ---------------------------------------


    POTLOK:  cpu time    0.1441: real time    0.1468
    SETDIJ:  cpu time    0.0106: real time    0.0106
     EDDAV:  cpu time   13.7080: real time   13.8368
 BZINTS: Fermi energy: -1.241588;303.000000 electrons
         Band energy:***********;  BLOECHL correction: -0.071805
       DOS:  cpu time    0.0117: real time    0.0118
    CHARGE:  cpu time    0.1639: real time    0.1644
    MIXING:  cpu time    0.0039: real time    0.0039
    --------------------------------------------
      LOOP:  cpu time   14.0422: real time   14.1743

 eigenvalue-minimisations  :  5184
 total energy-change (2. order) : 0.2470007E+01  (-0.2156525E+01)
 number of electron     303.0000008 magnetization      -0.0331268
 augmentation part       12.6359790 magnetization      -0.0592014

 Broyden mixing:
  rms(total) = 0.11383E+01    rms(broyden)= 0.11363E+01
  rms(prec ) = 0.13374E+01
  weight for this iteration     100.00

 eigenvalues of (default mixing * dielectric matrix)
  average eigenvalue GAMMA=   1.1711
  3.3912  1.1656  0.6372  0.3308  0.3308

 Free energy of the ion-electron system (eV)
  ---------------------------------------------------
  alpha Z        PSCENC =       167.23368790
  Ewald energy   TEWEN  =     28887.28679996
  -Hartree energ DENC   =    -39823.62290039
  -exchange      EXHF   =         0.00000000
  -V(xc)+E(xc)   XCENC  =      1065.77245830
  PAW double counting   =     27871.99548001   -27974.88162082
  entropy T*S    EENTRO =         0.00000000
  eigenvalues    EBANDS =     -3500.62151917
  atomic energy  EATOM  =     12644.75315347
  Solvation  Ediel_sol  =         0.00000000
  ---------------------------------------------------
  free energy    TOTEN  =      -662.08446075 eV

  energy without entropy =     -662.08446075  energy(sigma->0) =     -662.08446075


--------------------------------------------------------------------------------------------------------




--------------------------------------- Iteration      1(  11)  ---------------------------------------


    POTLOK:  cpu time    0.1479: real time    0.1501
    SETDIJ:  cpu time    0.0088: real time    0.0088
     EDDAV:  cpu time   13.5063: real time   13.6269
 BZINTS: Fermi energy: -1.744083;303.000000 electrons
         Band energy:***********;  BLOECHL correction: -0.013528
       DOS:  cpu time    0.0124: real time    0.0126
    CHARGE:  cpu time    0.2116: real time    0.2130
    MIXING:  cpu time    0.0040: real time    0.0040
    --------------------------------------------
      LOOP:  cpu time   13.8909: real time   14.0154

 eigenvalue-minimisations  :  5272
 total energy-change (2. order) : 0.6163527E+00  (-0.1704215E+00)
 number of electron     303.0000014 magnetization      -0.6731225
 augmentation part       13.4678511 magnetization      -0.2661677

 Broyden mixing:
  rms(total) = 0.74060E+00    rms(broyden)= 0.73957E+00
  rms(prec ) = 0.76616E+00
  weight for this iteration     100.00

 eigenvalues of (default mixing * dielectric matrix)
  average eigenvalue GAMMA=   1.1010
  3.4012  1.2840  0.9297  0.3426  0.3426  0.3061

 Free energy of the ion-electron system (eV)
  ---------------------------------------------------
  alpha Z        PSCENC =       167.23368790
  Ewald energy   TEWEN  =     28887.28679996
  -Hartree energ DENC   =    -39810.65348911
  -exchange      EXHF   =         0.00000000
  -V(xc)+E(xc)   XCENC  =      1065.60543967
  PAW double counting   =     29528.54786134   -29630.95610654
  entropy T*S    EENTRO =         0.00000000
  eigenvalues    EBANDS =     -3513.28545468
  atomic energy  EATOM  =     12644.75315347
  Solvation  Ediel_sol  =         0.00000000
  ---------------------------------------------------
  free energy    TOTEN  =      -661.46810800 eV

  energy without entropy =     -661.46810800  energy(sigma->0) =     -661.46810800


--------------------------------------------------------------------------------------------------------




--------------------------------------- Iteration      1(  12)  ---------------------------------------


    POTLOK:  cpu time    0.1437: real time    0.1458
    SETDIJ:  cpu time    0.0108: real time    0.0116
     EDDAV:  cpu time   12.3831: real time   12.4986
 BZINTS: Fermi energy: -2.032006;303.000000 electrons
         Band energy:***********;  BLOECHL correction:  0.000000
       DOS:  cpu time    0.0068: real time    0.0068
    CHARGE:  cpu time    0.1643: real time    0.1662
    MIXING:  cpu time    0.0041: real time    0.0041
    --------------------------------------------
      LOOP:  cpu time   12.7128: real time   12.8331

 eigenvalue-minimisations  :  4656
 total energy-change (2. order) :-0.3160377E+00  (-0.7219626E-01)
 number of electron     303.0000013 magnetization      -0.8878821
 augmentation part       13.7061788 magnetization      -0.5470481

 Broyden mixing:
  rms(total) = 0.68754E+00    rms(broyden)= 0.68718E+00
  rms(prec ) = 0.77001E+00
  weight for this iteration     100.00

 eigenvalues of (default mixing * dielectric matrix)
  average eigenvalue GAMMA=   1.2052
  3.5795  1.5595  1.3283  0.6529  0.6529  0.3317  0.3317

 Free energy of the ion-electron system (eV)
  ---------------------------------------------------
  alpha Z        PSCENC =       167.23368790
  Ewald energy   TEWEN  =     28887.28679996
  -Hartree energ DENC   =    -39770.09128384
  -exchange      EXHF   =         0.00000000
  -V(xc)+E(xc)   XCENC  =      1064.44410886
  PAW double counting   =     30447.92879027   -30549.66918060
  entropy T*S    EENTRO =         0.00000000
  eigenvalues    EBANDS =     -3553.67022174
  atomic energy  EATOM  =     12644.75315347
  Solvation  Ediel_sol  =         0.00000000
  ---------------------------------------------------
  free energy    TOTEN  =      -661.78414572 eV

  energy without entropy =     -661.78414572  energy(sigma->0) =     -661.78414572


--------------------------------------------------------------------------------------------------------




--------------------------------------- Iteration      1(  13)  ---------------------------------------


    POTLOK:  cpu time    0.1458: real time    0.1479
    SETDIJ:  cpu time    0.0106: real time    0.0106
     EDDAV:  cpu time   12.9175: real time   13.0500
 BZINTS: Fermi energy: -2.081471;303.000000 electrons
         Band energy:***********;  BLOECHL correction: -0.002661
       DOS:  cpu time    0.0111: real time    0.0112
    CHARGE:  cpu time    0.1678: real time    0.1686
    MIXING:  cpu time    0.0041: real time    0.0041
    --------------------------------------------
      LOOP:  cpu time   13.2568: real time   13.3923

 eigenvalue-minimisations  :  4824
 total energy-change (2. order) :-0.8951003E-01  (-0.4452445E-01)
 number of electron     303.0000009 magnetization      -0.8828600
 augmentation part       13.6398439 magnetization      -0.7884017

 Broyden mixing:
  rms(total) = 0.43754E+00    rms(broyden)= 0.43742E+00
  rms(prec ) = 0.50299E+00
  weight for this iteration     100.00

 eigenvalues of (default mixing * dielectric matrix)
  average eigenvalue GAMMA=   1.2411
  3.6276  1.6962  1.6962  0.8551  0.8551  0.3324  0.3324  0.5340

 Free energy of the ion-electron system (eV)
  ---------------------------------------------------
  alpha Z        PSCENC =       167.23368790
  Ewald energy   TEWEN  =     28887.28679996
  -Hartree energ DENC   =    -39740.52855071
  -exchange      EXHF   =         0.00000000
  -V(xc)+E(xc)   XCENC  =      1063.78894206
  PAW double counting   =     31599.66652942   -31700.85030527
  entropy T*S    EENTRO =         0.00000000
  eigenvalues    EBANDS =     -3583.22391257
  atomic energy  EATOM  =     12644.75315347
  Solvation  Ediel_sol  =         0.00000000
  ---------------------------------------------------
  free energy    TOTEN  =      -661.87365575 eV

  energy without entropy =     -661.87365575  energy(sigma->0) =     -661.87365575


--------------------------------------------------------------------------------------------------------




--------------------------------------- Iteration      1(  14)  ---------------------------------------


    POTLOK:  cpu time    0.1492: real time    0.1516
    SETDIJ:  cpu time    0.0096: real time    0.0101
     EDDAV:  cpu time   12.4543: real time   12.6387
 BZINTS: Fermi energy: -2.068061;303.000000 electrons
         Band energy:***********;  BLOECHL correction: -0.004159
       DOS:  cpu time    0.0115: real time    0.0116
    CHARGE:  cpu time    0.1802: real time    0.1809
    MIXING:  cpu time    0.0041: real time    0.0041
    --------------------------------------------
      LOOP:  cpu time   12.8089: real time   12.9969

 eigenvalue-minimisations  :  4608
 total energy-change (2. order) :-0.4899523E-01  (-0.9949306E-02)
 number of electron     303.0000009 magnetization      -0.8569904
 augmentation part       13.6348410 magnetization      -0.8620924

 Broyden mixing:
  rms(total) = 0.39651E+00    rms(broyden)= 0.39647E+00
  rms(prec ) = 0.46482E+00
  weight for this iteration     100.00

 eigenvalues of (default mixing * dielectric matrix)
  average eigenvalue GAMMA=   1.3488
  3.4875  2.3084  2.3084  1.0473  1.0473  0.3321  0.3321  0.6379  0.6379

 Free energy of the ion-electron system (eV)
  ---------------------------------------------------
  alpha Z        PSCENC =       167.23368790
  Ewald energy   TEWEN  =     28887.28679996
  -Hartree energ DENC   =    -39741.04487236
  -exchange      EXHF   =         0.00000000
  -V(xc)+E(xc)   XCENC  =      1063.86084262
  PAW double counting   =     31749.80299660   -31850.91969211
  entropy T*S    EENTRO =         0.00000000
  eigenvalues    EBANDS =     -3582.89556705
  atomic energy  EATOM  =     12644.75315347
  Solvation  Ediel_sol  =         0.00000000
  ---------------------------------------------------
  free energy    TOTEN  =      -661.92265098 eV

  energy without entropy =     -661.92265098  energy(sigma->0) =     -661.92265098


--------------------------------------------------------------------------------------------------------




--------------------------------------- Iteration      1(  15)  ---------------------------------------


    POTLOK:  cpu time    0.1465: real time    0.1488
    SETDIJ:  cpu time    0.0086: real time    0.0087
     EDDAV:  cpu time   12.8595: real time   13.0077
 BZINTS: Fermi energy: -2.061582;303.000000 electrons
         Band energy:***********;  BLOECHL correction: -0.005361
       DOS:  cpu time    0.0107: real time    0.0108
    CHARGE:  cpu time    0.1655: real time    0.1664
    MIXING:  cpu time    0.0045: real time    0.0046
    --------------------------------------------
      LOOP:  cpu time   13.1953: real time   13.3470

 eigenvalue-minimisations  :  4864
 total energy-change (2. order) :-0.1015825E-01  (-0.1254605E-01)
 number of electron     303.0000007 magnetization      -0.9185257
 augmentation part       13.5927081 magnetization      -1.0504206

 Broyden mixing:
  rms(total) = 0.29901E+00    rms(broyden)= 0.29894E+00
  rms(prec ) = 0.35914E+00
  weight for this iteration     100.00

 eigenvalues of (default mixing * dielectric matrix)
  average eigenvalue GAMMA=   1.3162
  3.4968  2.4819  1.5801  1.5801  1.3745  0.3322  0.3322  0.7151  0.7151  0.5537

 Free energy of the ion-electron system (eV)
  ---------------------------------------------------
  alpha Z        PSCENC =       167.23368790
  Ewald energy   TEWEN  =     28887.28679996
  -Hartree energ DENC   =    -39738.38334613
  -exchange      EXHF   =         0.00000000
  -V(xc)+E(xc)   XCENC  =      1063.88974881
  PAW double counting   =     31771.91603676   -31872.93751877
  entropy T*S    EENTRO =         0.00000000
  eigenvalues    EBANDS =     -3585.69137123
  atomic energy  EATOM  =     12644.75315347
  Solvation  Ediel_sol  =         0.00000000
  ---------------------------------------------------
  free energy    TOTEN  =      -661.93280923 eV

  energy without entropy =     -661.93280923  energy(sigma->0) =     -661.93280923


--------------------------------------------------------------------------------------------------------




--------------------------------------- Iteration      1(  16)  ---------------------------------------


    POTLOK:  cpu time    0.1350: real time    0.1373
    SETDIJ:  cpu time    0.0086: real time    0.0086
     EDDAV:  cpu time   13.2680: real time   13.4376
 BZINTS: Fermi energy: -2.050397;303.000000 electrons
         Band energy:***********;  BLOECHL correction: -0.006082
       DOS:  cpu time    0.0113: real time    0.0113
    CHARGE:  cpu time    0.1649: real time    0.1698
    MIXING:  cpu time    0.0044: real time    0.0053
    --------------------------------------------
      LOOP:  cpu time   13.5922: real time   13.7698

 eigenvalue-minimisations  :  4696
 total energy-change (2. order) : 0.1011551E-01  (-0.2013963E-02)
 number of electron     303.0000006 magnetization      -0.9574548
 augmentation part       13.5563738 magnetization      -1.1122966

 Broyden mixing:
  rms(total) = 0.23494E+00    rms(broyden)= 0.23492E+00
  rms(prec ) = 0.28421E+00
  weight for this iteration     100.00

 eigenvalues of (default mixing * dielectric matrix)
  average eigenvalue GAMMA=   1.3586
  3.3560  2.7649  2.7649  1.1645  1.1645  0.3322  0.3322  0.8746  0.8746  0.7097
  0.6065

 Free energy of the ion-electron system (eV)
  ---------------------------------------------------
  alpha Z        PSCENC =       167.23368790
  Ewald energy   TEWEN  =     28887.28679996
  -Hartree energ DENC   =    -39736.42320604
  -exchange      EXHF   =         0.00000000
  -V(xc)+E(xc)   XCENC  =      1063.87622312
  PAW double counting   =     31812.35278805   -31913.32965185
  entropy T*S    EENTRO =         0.00000000
  eigenvalues    EBANDS =     -3587.67248832
  atomic energy  EATOM  =     12644.75315347
  Solvation  Ediel_sol  =         0.00000000
  ---------------------------------------------------
  free energy    TOTEN  =      -661.92269372 eV

  energy without entropy =     -661.92269372  energy(sigma->0) =     -661.92269372


[...]
   0.812E+01 -.245E+01 0.447E+01   -.805E+01 0.249E+01 -.442E+01   -.889E-01 -.127E+00 -.509E-01   -.136E-01 0.523E-02 -.600E-02
   0.278E+02 0.634E+01 0.152E+02   -.268E+02 -.647E+01 -.157E+02   -.108E+01 0.303E+00 0.574E+00   -.110E+00 -.409E-01 -.509E-01
   0.278E+02 -.107E+02 0.151E+02   -.268E+02 0.110E+02 -.157E+02   -.974E+00 -.600E+00 0.616E+00   -.107E+00 0.432E-01 -.512E-01
   -.282E+02 0.906E+01 0.146E+02   0.272E+02 -.936E+01 -.152E+02   0.918E+00 0.502E+00 0.586E+00   0.111E+00 -.252E-01 -.506E-01
   -.277E+02 -.892E+01 0.147E+02   0.267E+02 0.912E+01 -.152E+02   0.981E+00 -.402E+00 0.584E+00   0.108E+00 0.523E-01 -.488E-01
   -.817E+01 0.619E+00 0.712E+01   0.803E+01 -.589E+00 -.708E+01   0.163E+00 0.301E-01 -.426E-01   0.149E-01 -.137E-02 -.560E-02
   -.820E+01 -.213E+00 0.714E+01   0.811E+01 0.909E-01 -.709E+01   0.115E+00 0.700E-01 -.437E-01   0.825E-02 0.119E-01 -.573E-02
   -.521E+01 -.416E+01 0.776E+01   0.516E+01 0.406E+01 -.781E+01   0.455E-01 0.949E-01 0.443E-01   0.198E-02 0.773E-02 -.255E-02
   -.238E+01 -.176E+01 0.691E+01   0.249E+01 0.158E+01 -.689E+01   -.807E-01 0.136E+00 -.198E-01   0.324E-02 0.136E-01 -.199E-02
   0.413E+01 -.511E+01 0.582E+01   -.411E+01 0.511E+01 -.585E+01   -.262E-01 0.652E-02 0.253E-01   -.754E-02 0.234E-02 -.257E-02
   0.158E+01 -.348E+01 0.541E+01   -.149E+01 0.340E+01 -.539E+01   -.112E+00 0.505E-01 -.238E-01   -.997E-02 0.111E-01 -.218E-02
   0.149E+02 -.915E+01 0.681E+01   -.145E+02 0.902E+01 -.688E+01   -.283E+00 0.998E-01 0.106E+00   -.358E-01 0.160E-01 -.139E-01
   0.656E+01 -.115E+02 0.737E+01   -.633E+01 0.115E+02 -.734E+01   -.251E+00 -.392E-02 -.352E-01   -.188E-01 0.129E-01 -.751E-02
   -.502E+01 -.377E+02 0.262E+02   0.116E+02 0.339E+02 -.252E+02   -.620E+01 0.356E+01 -.959E+00   -.138E+00 0.172E+00 -.112E+00
   0.951E+00 -.210E+02 0.135E+02   -.653E+00 0.199E+02 -.137E+02   -.276E+00 0.107E+01 0.243E+00   -.938E-02 0.810E-01 -.337E-01
   0.556E+01 -.366E+02 0.233E+02   -.121E+02 0.326E+02 -.223E+02   0.618E+01 0.364E+01 -.102E+01   0.151E+00 0.170E+00 -.104E+00
   -.359E+00 -.194E+02 0.123E+02   -.136E+00 0.181E+02 -.125E+02   0.475E+00 0.123E+01 0.219E+00   0.243E-01 0.759E-01 -.312E-01
   -.145E+02 -.731E+01 0.827E+01   0.141E+02 0.694E+01 -.835E+01   0.296E+00 0.341E+00 0.117E+00   0.235E-01 0.210E-01 -.133E-01
   -.633E+01 -.678E+01 0.832E+01   0.615E+01 0.645E+01 -.827E+01   0.241E+00 0.322E+00 -.417E-01   0.124E-01 0.146E-01 -.688E-02
   -.584E+01 -.101E+01 0.833E+01   0.577E+01 0.334E+00 -.835E+01   0.411E-01 0.646E+00 0.251E-01   0.993E-03 0.824E-02 -.247E-02
   -.693E+01 0.634E+01 0.811E+01   0.800E+01 -.731E+01 -.813E+01   -.104E+01 0.919E+00 0.181E-01   -.575E-02 0.126E-01 -.183E-02
   -.170E+01 -.145E+01 0.627E+01   0.181E+01 0.130E+01 -.630E+01   -.929E-01 0.138E+00 0.233E-01   -.113E-01 0.638E-02 -.156E-02
   -.358E+01 0.953E+00 0.620E+01   0.406E+01 -.118E+01 -.619E+01   -.458E+00 0.206E+00 -.186E-01   -.159E-01 -.371E-02 -.155E-02
   0.290E+01 -.363E+01 0.666E+01   -.277E+01 0.362E+01 -.668E+01   -.842E-01 -.217E-02 0.226E-01   -.761E-02 0.367E-02 -.292E-02
   0.187E+01 -.377E+01 0.702E+01   -.179E+01 0.379E+01 -.703E+01   -.102E+00 -.302E-01 0.688E-02   -.430E-02 -.896E-03 -.209E-02
   0.177E+00 -.929E+01 0.108E+02   0.346E+00 0.897E+01 -.109E+02   -.486E+00 0.297E+00 0.100E+00   -.682E-02 0.218E-01 -.101E-01
   0.315E+01 -.624E+01 0.902E+01   -.319E+01 0.608E+01 -.905E+01   0.327E-01 0.190E+00 0.336E-01   0.515E-02 0.101E-01 -.427E-02
   0.172E+01 -.940E+01 0.707E+01   -.180E+01 0.849E+01 -.669E+01   0.810E-01 0.900E+00 -.369E+00   0.653E-02 0.625E-01 -.220E-01
   0.340E+01 -.656E+01 0.788E+01   -.382E+01 0.583E+01 -.790E+01   0.413E+00 0.742E+00 0.251E-01   0.169E-01 0.752E-02 -.616E-02
   0.255E+01 -.649E+01 0.104E+02   -.317E+01 0.551E+01 -.105E+02   0.552E+00 0.951E+00 0.856E-01   0.156E-01 0.287E-01 -.935E-02
   0.183E+01 0.355E+01 0.841E+01   -.295E+01 -.471E+01 -.841E+01   0.114E+01 0.114E+01 0.120E-01   0.527E-02 0.244E-01 -.394E-02
   -.141E+01 -.184E+01 -.604E+03   0.148E+01 0.188E+01 0.586E+03   -.705E-01 -.111E+00 0.188E+02   0.309E-01 0.524E-01 -.243E+00
   -.638E+02 -.144E+03 0.106E+03   0.711E+02 0.161E+03 -.126E+03   -.774E+01 -.175E+02 0.204E+02   0.846E-03 0.161E-02 0.196E-01
   0.555E+02 0.126E+03 -.140E+03   -.711E+02 -.161E+03 0.182E+03   0.161E+02 0.365E+02 -.426E+02   0.279E-04 -.172E-03 0.163E-01
 -----------------------------------------------------------------------------------------------
   -.798E+01 -.188E+02 0.496E+01   0.426E-13 -.171E-12 0.568E-13   0.797E+01 0.188E+02 -.363E+01   0.154E-01 0.252E-01 -.128E+01
 
 
 POSITION                                       TOTAL-FORCE (eV/Angst)
 -----------------------------------------------------------------------------------
      0.00218      0.01079      7.25485        -0.025499      0.031551      0.007850
      0.00076      1.42132      7.25579         0.057214     -0.026794      0.006671
      2.48293      0.02452      7.25219        -0.024320      0.000096     -0.003654
      2.46630      1.44295      7.26276         0.044953     -0.001529      0.000277
      4.95097      0.02836      7.25546        -0.007280      0.004667     -0.006166
      4.94771      1.44755      7.26499        -0.026595     -0.015976     -0.006990
      0.00172     12.75544      7.25527         0.025359      0.028930      0.002411
      7.43248      1.42172      7.25406        -0.005030     -0.014779      0.003972
      2.48122     12.73117      7.26306         0.025941      0.009577     -0.000798
      9.91788      1.39469      7.25241        -0.014648     -0.017046     -0.003075
      4.95190     12.72883      7.26519        -0.027119      0.016770     -0.002591
     12.39522      1.39093      7.25520         0.002756      0.004333     -0.006464
     13.62980      2.10695      7.25655        -0.032071      0.028409     -0.002436
     -1.23810      3.52056      7.26652         0.037156     -0.010300     -0.007858
      1.22550      2.13708      7.26548        -0.059253     -0.027716      0.001298
      1.22553      3.55809      7.29028         0.036034     -0.011019      0.001457
      3.70657      2.17349      7.27991         0.018104     -0.054382      0.000768
      3.71365      3.58953      7.32733         0.002104     -0.014708     -0.006607
      6.19240      2.14539      7.26557         0.020297      0.000831     -0.000721
      6.19697      3.56811      7.29010        -0.056279     -0.009308     -0.007534
      8.67928      2.11250      7.25218        -0.009704      0.010267      0.000898
      8.68201      3.53071      7.25986        -0.033763      0.011349     -0.000977
     11.15687      2.10618      7.25342        -0.009208      0.012815     -0.005017
     11.14980      3.52529      7.25562         0.037203     -0.002843     -0.005351
     12.38111      4.23100      7.26402        -0.039232      0.045609     -0.007599
     -2.48625      5.65615      7.27105        -0.002820     -0.010700     -0.010590
     -0.01577      4.24805      7.28928        -0.053637     -0.028462     -0.003971
     -0.04152      5.66074      7.31433         0.078863      0.031468      0.019964
      2.46823      4.30014      7.34117         0.008365      0.002279      0.015892
      2.42194      5.71461      7.43269         0.278372      0.111281     -0.036188
      4.95889      4.31047      7.34309        -0.045939     -0.005856     -0.000805
      5.00781      5.72235      7.43597        -0.267715      0.119348     -0.094700
      7.44880      4.24725      7.28417         0.062446     -0.021693     -0.003627
      7.47482      5.66383      7.30732        -0.047150      0.017145      0.032496
      9.91652      4.23902      7.25799         0.004116      0.033950     -0.000333
      9.92206      5.66215      7.26322         0.001693     -0.037204     -0.002074
     -3.71205      6.37338      7.26370         0.004851      0.014247     -0.004825
     -3.71349      7.79835      7.26354         0.012085     -0.010030     -0.004328
     -1.26932      6.37488      7.29392        -0.027852      0.062192     -0.009165
     -1.26804      7.79647      7.29381        -0.034008     -0.082430     -0.009240
      1.18008      6.36698      7.36747        -0.154775      0.124436      0.004191
      1.17970      7.80410      7.36771        -0.127072     -0.151605      0.013458
      6.25514      6.37082      7.36684         0.098372      0.174850      0.005808
      6.25552      7.80685      7.36710         0.104674     -0.140519      0.006251
      8.70051      6.37740      7.28259         0.036865      0.056971     -0.001818
      8.70009      7.80023      7.28256         0.031583     -0.037844     -0.003734
     -4.94021      8.51543      7.26299        -0.003309      0.009195     -0.002393
     -4.94802      9.94086      7.25779         0.024873     -0.027936     -0.003194
     -2.48932      8.51226      7.27082        -0.016079      0.014715     -0.010381
     -2.48376      9.93624      7.26409        -0.032850     -0.017117     -0.006745
     -0.04025      8.51008      7.31461         0.072377     -0.011839      0.027024
     -0.01511      9.92867      7.28949        -0.040884      0.008781     -0.003464
      2.42768      8.45240      7.43352         0.258807     -0.112251     -0.096920
      2.47536      9.86535      7.34006         0.025768      0.009867      0.013302
      5.00993      8.45843      7.43858        -0.253296     -0.121153     -0.069408
      4.96452      9.87179      7.34262        -0.009312      0.016210      0.007746
      7.47418      8.51385      7.30743        -0.040953     -0.005451      0.028093
      7.44909      9.93300      7.28408         0.070995      0.019379     -0.001422
     -6.18563     10.65214      7.25968        -0.028764     -0.026040     -0.000399
     -6.18738     12.07617      7.25214         0.017671     -0.027319      0.000208
     -3.71534     10.64881      7.25550         0.000731     -0.005123     -0.003263
     -3.71515     12.07282      7.25348         0.005938     -0.021684     -0.005367
     -1.24806     10.64549      7.26676         0.040744     -0.004210     -0.003723
     -1.24309     12.06475      7.25671        -0.024874     -0.007199     -0.003167
      1.23694     10.60792      7.29008         0.032194     -0.008762     -0.003125
      1.23942     12.03186      7.26490        -0.006014      0.032889     -0.001591
      3.71907     10.58481      7.32643         0.002714      0.044142     -0.009727
      3.71886     12.00626      7.27999         0.013780      0.025020     -0.000563
      6.20388     10.61661      7.28979        -0.055856      0.001552     -0.002425
      6.19930     12.04466      7.26602         0.019954      0.011751      0.002814
      3.71670      7.08935      8.10649         0.028007     -0.016481      0.291483
      3.71670      7.08935     14.08649        -0.488378     -1.104796      1.268532
      3.39568      6.36350     14.93183         0.487579      1.103239     -1.276352
 -----------------------------------------------------------------------------------
    total drift:                               -0.000655     -0.005666      0.049555


--------------------------------------------------------------------------------------------------------



  FREE ENERGIE OF THE ION-ELECTRON SYSTEM (eV)
  ---------------------------------------------------
  free  energy   TOTEN  =      -668.30883073 eV

  energy  without entropy=     -668.30883073  energy(sigma->0) =     -668.30883073
 


--------------------------------------------------------------------------------------------------------


    POTLOK:  cpu time    0.1447: real time    0.1456


--------------------------------------------------------------------------------------------------------


 stress matrix after NEB project (eV)
     -1.63957     -0.39899      0.41761
     -0.39899     -3.15485      0.89656
      0.41761      0.89656     -4.22271
  FORCES: max atom, RMS     1.756116    0.306624
  FORCE total and by dimension    2.619797    1.276352
  Stress total and by dimension    5.722529    4.222708
     LOOP+:  cpu time  303.8520: real time  307.7079
    4ORBIT:  cpu time    0.0000: real time    0.0000
 


 total charge     
 
# of ion       s       p       d       tot
------------------------------------------
    1        0.852   1.747   0.000   2.599
    2        1.209   2.693   0.000   3.903
    3        0.866   1.786   0.000   2.652
    4        0.861   1.789   0.000   2.650
    5        0.865   1.783   0.000   2.647
    6        0.863   1.781   0.000   2.643
    7        0.864   1.781   0.000   2.645
    8        0.863   1.779   0.000   2.643
    9        0.864   1.782   0.000   2.646
   10        0.863   1.781   0.000   2.645
   11        0.864   1.787   0.000   2.652
   12        0.862   1.789   0.000   2.651
   13        0.853   1.754   0.000   2.607
   14        0.863   1.796   0.000   2.660
   15        0.852   1.745   0.000   2.597
   16        0.861   1.779   0.000   2.640
   17        0.861   1.771   0.000   2.631
   18        0.863   1.775   0.000   2.639
   19        0.863   1.778   0.000   2.641
   20        0.864   1.771   0.000   2.635
   21        0.864   1.786   0.000   2.650
   22        0.866   1.789   0.000   2.655
   23        0.863   1.785   0.000   2.648
   24        0.866   1.792   0.000   2.658
   25        0.863   1.789   0.000   2.651
   26        0.867   1.795   0.000   2.662
   27        0.868   1.793   0.000   2.661
   28        0.870   1.808   0.000   2.678
   29        0.861   1.757   0.000   2.618
   30        0.874   1.689   0.000   2.563
   31        0.861   1.758   0.000   2.620
   32        0.875   1.688   0.000   2.563
   33        0.866   1.790   0.000   2.656
   34        0.871   1.803   0.000   2.675
   35        0.865   1.789   0.000   2.654
   36        0.868   1.796   0.000   2.664
   37        0.866   1.794   0.000   2.661
   38        0.866   1.794   0.000   2.661
   39        0.868   1.798   0.000   2.666
   40        0.867   1.798   0.000   2.665
   41        0.877   1.785   0.000   2.662
   42        0.876   1.787   0.000   2.663
   43        0.876   1.787   0.000   2.663
   44        0.877   1.786   0.000   2.663
   45        0.867   1.799   0.000   2.666
   46        0.868   1.798   0.000   2.666
   47        0.867   1.794   0.000   2.661
   48        0.864   1.787   0.000   2.651
   49        0.868   1.797   0.000   2.665
   50        0.864   1.790   0.000   2.655
   51        0.871   1.800   0.000   2.671
   52        0.866   1.790   0.000   2.656
   53        0.875   1.687   0.000   2.562
   54        0.861   1.759   0.000   2.621
   55        0.874   1.688   0.000   2.562
   56        0.861   1.758   0.000   2.619
   57        0.870   1.804   0.000   2.674
   58        0.867   1.793   0.000   2.660
   59        0.864   1.788   0.000   2.651
   60        0.863   1.795   0.000   2.657
   61        0.866   1.787   0.000   2.653
   62        0.864   1.792   0.000   2.656
   63        0.866   1.785   0.000   2.652
   64        0.865   1.788   0.000   2.653
   65        0.864   1.768   0.000   2.632
   66        0.863   1.781   0.000   2.644
   67        0.863   1.771   0.000   2.634
   68        0.862   1.777   0.000   2.640
   69        0.862   1.769   0.000   2.631
   70        0.861   1.786   0.000   2.647
   71        0.389   6.287   4.282  10.958
   72        1.036   1.403   0.000   2.439
   73        1.637   3.515   0.000   5.152
--------------------------------------------------
tot         63.990 136.621   4.282 204.893
 


 magnetization (x)
 
# of ion       s       p       d       tot
------------------------------------------
    1        0.000   0.008   0.000   0.009
    2        0.000   0.008   0.000   0.008
    3        0.000   0.002   0.000   0.002
    4        0.001   0.009   0.000   0.010
    5       -0.000   0.000   0.000   0.000
    6        0.000   0.008   0.000   0.008
    7        0.000   0.001   0.000   0.001
    8        0.000   0.001   0.000   0.001
    9        0.000   0.006   0.000   0.006
   10       -0.000   0.000   0.000   0.000
   11        0.001   0.017   0.000   0.018
   12       -0.000   0.002   0.000   0.002
   13        0.000   0.003   0.000   0.003
   14        0.000   0.003   0.000   0.003
   15       -0.000  -0.001   0.000  -0.001
   16        0.001   0.007   0.000   0.008
   17       -0.001  -0.006   0.000  -0.007
   18        0.002   0.027   0.000   0.028
   19        0.000   0.002   0.000   0.002
   20        0.001   0.005   0.000   0.005
   21        0.000   0.001   0.000   0.001
   22        0.000   0.005   0.000   0.005
   23        0.000   0.006   0.000   0.006
   24       -0.000  -0.001   0.000  -0.001
   25        0.001   0.011   0.000   0.012
   26       -0.000   0.002   0.000   0.002
   27       -0.000  -0.004   0.000  -0.004
   28        0.000   0.004   0.000   0.004
   29       -0.001  -0.007   0.000  -0.008
   30        0.015   0.082   0.000   0.097
   31       -0.001  -0.007   0.000  -0.008
   32        0.015   0.086   0.000   0.101
   33       -0.000  -0.001   0.000  -0.002
   34        0.000   0.003   0.000   0.004
   35        0.000   0.008   0.000   0.008
   36       -0.000   0.001   0.000   0.001
   37        0.000   0.001   0.000   0.001
   38        0.000   0.001   0.000   0.001
   39        0.000   0.009   0.000   0.010
   40        0.000   0.005   0.000   0.005
   41       -0.001   0.005   0.000   0.005
   42       -0.001   0.009   0.000   0.008
   43       -0.000   0.010   0.000   0.009
   44       -0.001   0.008   0.000   0.008
   45        0.000   0.008   0.000   0.008
   46        0.000   0.008   0.000   0.008
   47       -0.000   0.001   0.000   0.001
   48        0.000   0.008   0.000   0.008
   49        0.000   0.002   0.000   0.002
   50        0.000   0.008   0.000   0.008
   51        0.001   0.006   0.000   0.007
   52       -0.000  -0.001   0.000  -0.001
   53        0.015   0.086   0.000   0.101
   54       -0.001  -0.008   0.000  -0.009
   55        0.015   0.089   0.000   0.105
   56       -0.001  -0.007   0.000  -0.008
   57        0.000   0.005   0.000   0.005
   58       -0.000  -0.001   0.000  -0.001
   59        0.000   0.005   0.000   0.005
   60       -0.000   0.001   0.000   0.001
   61       -0.000   0.001   0.000   0.001
   62        0.000   0.007   0.000   0.007
   63        0.000   0.005   0.000   0.005
   64       -0.000   0.001   0.000   0.001
   65        0.001   0.005   0.000   0.006
   66        0.000   0.003   0.000   0.003
   67        0.002   0.033   0.000   0.035
   68       -0.001  -0.007   0.000  -0.007
   69        0.001   0.005   0.000   0.006
   70       -0.000   0.000   0.000   0.000
   71       -0.036   0.013  -1.994  -2.017
   72        0.000   0.000   0.000   0.000
   73       -0.000  -0.000   0.000  -0.000
--------------------------------------------------
tot          0.033   0.614  -1.994  -1.347
 
 BZINTS: Fermi energy: -1.975229;303.000000 electrons
         Band energy:***********;  BLOECHL correction: -0.012892

 total amount of memory used by VASP MPI-rank0   115936. kBytes
=======================================================================

   base      :      30000. kBytes
   nonl-proj :      27242. kBytes
   fftplans  :       4700. kBytes
   grid      :      15193. kBytes
   one-center:        217. kBytes
   wavefun   :      38584. kBytes
 
  
  
 General timing and accounting informations for this job:
 ========================================================
  
                  Total CPU time used (sec):      321.185
                            User time (sec):      311.603
                          System time (sec):        9.582
                         Elapsed time (sec):      333.906
  
                   Maximum memory used (kb):      473584.
                   Average memory used (kb):           0.
  
                          Minor page faults:      1655108
                          Major page faults:            0
                 Voluntary context switches:         9032
