       N       E                     dE             d eps       ncg     rms          rms(c)
DAV:   1     0.257957438952E+04    0.25796E+04   -0.11240E+05  3816   0.127E+03
DAV:   2    -0.878647101294E+02   -0.26674E+04   -0.25812E+04  4552   0.326E+02
DAV:   3    -0.501601574087E+03   -0.41374E+03   -0.40943E+03  3932   0.149E+02
DAV:   4    -0.518515009829E+03   -0.16913E+02   -0.16608E+02  4456   0.414E+01
DAV:   5    -0.519099639024E+03   -0.58463E+00   -0.58026E+00  4752   0.589E+00    0.421E+01
DAV:   6    -0.492729612836E+03    0.26370E+02   -0.50557E+01  4280   0.242E+01    0.262E+01
DAV:   7    -0.487903147189E+03    0.48265E+01   -0.49397E+01  4128   0.185E+01    0.170E+01
DAV:   8    -0.485402395328E+03    0.25008E+01   -0.98912E+00  4016   0.120E+01    0.116E+01
DAV:   9    -0.485941184626E+03   -0.53879E+00   -0.12674E+01  4064   0.999E+00    0.657E+00
DAV:  10    -0.485089959595E+03    0.85123E+00   -0.80809E+00  4144   0.753E+00    0.303E+00
DAV:  11    -0.485025518049E+03    0.64442E-01   -0.93690E-01  3992   0.297E+00    0.187E+00
DAV:  12    -0.484978206982E+03    0.47311E-01   -0.54854E-01  4000   0.191E+00    0.988E-01
DAV:  13    -0.484972666888E+03    0.55401E-02   -0.29395E-01  4048   0.113E+00    0.663E-01
DAV:  14    -0.484967192307E+03    0.54746E-02   -0.15156E-01  4080   0.825E-01    0.431E-01
DAV:  15    -0.484964576832E+03    0.26155E-02   -0.25205E-02  3896   0.347E-01    0.198E-01
DAV:  16    -0.484964720901E+03   -0.14407E-03   -0.25446E-03  4072   0.153E-01    0.111E-01
DAV:  17    -0.484964725656E+03   -0.47544E-05   -0.54345E-04  3456   0.750E-02
   1 F= -.48947811E+03 E0= -.48947811E+03  d E =0.000000E+00  mag=     0.0000
