       N       E                     dE             d eps       ncg     rms          rms(c)
DAV:   1     0.251590796995E+04    0.25159E+04   -0.11191E+05  4376   0.107E+03
DAV:   2    -0.242769459922E+03   -0.27587E+04   -0.26293E+04  5480   0.279E+02
DAV:   3    -0.702662581957E+03   -0.45989E+03   -0.45651E+03  4592   0.120E+02
DAV:   4    -0.719223217089E+03   -0.16561E+02   -0.16418E+02  4616   0.280E+01
DAV:   5    -0.719768306688E+03   -0.54509E+00   -0.54343E+00  5288   0.428E+00    0.477E+01
DAV:   6    -0.719741779104E+03    0.26528E-01   -0.89163E+01  4832   0.270E+01    0.745E+01
DAV:   7    -0.673240053249E+03    0.46502E+02   -0.64507E+01  5064   0.530E+01    0.268E+01
DAV:   8    -0.670174283104E+03    0.30658E+01   -0.40220E+01  4856   0.136E+01    0.265E+01
DAV:   9    -0.664569086505E+03    0.56052E+01   -0.25597E+01  4568   0.140E+01    0.209E+01
DAV:  10    -0.662140651986E+03    0.24284E+01   -0.20508E+01  5232   0.134E+01    0.115E+01
DAV:  11    -0.661535410088E+03    0.60524E+00   -0.13795E+00  5360   0.311E+00    0.708E+00
DAV:  12    -0.661838910915E+03   -0.30350E+00   -0.40816E-01  4752   0.163E+00    0.684E+00
DAV:  13    -0.662015113992E+03   -0.17620E+00   -0.43974E-01  4720   0.142E+00    0.464E+00
DAV:  14    -0.662017264977E+03   -0.21510E-02   -0.17302E-01  4720   0.818E-01    0.323E+00
DAV:  15    -0.662011355785E+03    0.59092E-02   -0.89307E-02  4664   0.674E-01    0.255E+00
DAV:  16    -0.662006306780E+03    0.50490E-02   -0.14444E-02  4408   0.270E-01    0.212E+00
DAV:  17    -0.661990026131E+03    0.16281E-01   -0.55239E-03  4952   0.241E-01    0.166E+00
DAV:  18    -0.661981988735E+03    0.80374E-02   -0.29167E-03  5072   0.153E-01    0.141E+00
DAV:  19    -0.661971669316E+03    0.10319E-01   -0.59881E-03  5040   0.229E-01    0.896E-01
DAV:  20    -0.661966163613E+03    0.55057E-02   -0.75778E-03  5256   0.243E-01    0.368E-01
DAV:  21    -0.661965957974E+03    0.20564E-03   -0.14921E-03  4592   0.104E-01    0.188E-01
DAV:  22    -0.661965968933E+03   -0.10959E-04   -0.24695E-04  3368   0.383E-02
   1 F= -.66839198E+03 E0= -.66839198E+03  d E =0.000000E+00  mag=    -1.0079
