       N       E                     dE             d eps       ncg     rms          rms(c)
DAV:   1     0.253660993935E+04    0.25366E+04   -0.11210E+05  4384   0.107E+03
DAV:   2    -0.242478674694E+03   -0.27791E+04   -0.26559E+04  5456   0.280E+02
DAV:   3    -0.700320521841E+03   -0.45784E+03   -0.45393E+03  4576   0.120E+02
DAV:   4    -0.716817808549E+03   -0.16497E+02   -0.16353E+02  4640   0.281E+01
DAV:   5    -0.717358447782E+03   -0.54064E+00   -0.53809E+00  5280   0.424E+00    0.481E+01
DAV:   6    -0.712628082078E+03    0.47304E+01   -0.71726E+01  4752   0.308E+01    0.715E+01
DAV:   7    -0.676531032442E+03    0.36097E+02   -0.65433E+01  5272   0.588E+01    0.254E+01
DAV:   8    -0.669587291731E+03    0.69437E+01   -0.32785E+01  4872   0.136E+01    0.224E+01
DAV:   9    -0.664871361213E+03    0.47159E+01   -0.23545E+01  4592   0.130E+01    0.130E+01
DAV:  10    -0.664383801132E+03    0.48756E+00   -0.64490E+00  5200   0.863E+00    0.711E+00
DAV:  11    -0.664225715475E+03    0.15809E+00   -0.76379E-01  4536   0.286E+00    0.552E+00
DAV:  12    -0.664118631205E+03    0.10708E+00   -0.38760E-01  4584   0.213E+00    0.310E+00
DAV:  13    -0.664110339029E+03    0.82922E-02   -0.13132E-01  5112   0.132E+00    0.220E+00
DAV:  14    -0.664117441971E+03   -0.71029E-02   -0.43137E-02  4600   0.515E-01    0.163E+00
DAV:  15    -0.664119000466E+03   -0.15585E-02   -0.50281E-03  4832   0.197E-01    0.124E+00
DAV:  16    -0.664118925432E+03    0.75034E-04   -0.34174E-03  4688   0.132E-01    0.821E-01
DAV:  17    -0.664119028797E+03   -0.10337E-03   -0.66037E-04  3952   0.631E-02    0.601E-01
DAV:  18    -0.664118941677E+03    0.87120E-04   -0.10686E-04  3024   0.384E-02
   1 F= -.67069363E+03 E0= -.67069363E+03  d E =0.000000E+00  mag=     0.9980
