 vasp.5.4.4.18Apr17-6-g9f103f2a35 (build Jan 14 2022 15:04:31) complex          
  
 executed on             LinuxIFC date 2023.01.27  22:53:25
 running on   48 total cores
 distrk:  each k-point on   48 cores,    1 groups
 distr:  one band on NCORES_PER_BAND=  12 cores,    4 groups


--------------------------------------------------------------------------------------------------------


 INCAR:
 POTCAR:    PAW_PBE C 08Apr2002                   
 POTCAR:    PAW_PBE N 08Apr2002                   
 POTCAR:    PAW_PBE C 08Apr2002                   
 POTCAR:    PAW_PBE Cr_pv 02Aug2007               
 POTCAR:    PAW_PBE C 08Apr2002                   
 POTCAR:    PAW_PBE O 08Apr2002                   
 POTCAR:    PAW_PBE C 08Apr2002                   
   SHA256 =  253f7b50bb8d59471dbedb8285d89021f4a42ed1a2c5d38a03a736e69125dd95 C/
   COPYR  = (c) Copyright 08Apr2002 Georg Kresse                                
   COPYR  = This file is part of the software VASP. Any use, copying, and all ot
   COPYR  = If you do not have a valid VASP license, you may not use, copy or di
   VRHFIN =C: s2p2                                                              
   LEXCH  = PE                                                                  
   EATOM  =   147.1560 eV,   10.8157 Ry                                         
                                                                                
   TITEL  = PAW_PBE C 08Apr2002                                                 
   LULTRA =        F    use ultrasoft PP ?                                      
   IUNSCR =        1    unscreen: 0-lin 1-nonlin 2-no                           
   RPACOR =    1.200    partial core radius                                     
   POMASS =   12.011; ZVAL   =    4.000    mass and valenz                      
   RCORE  =    1.500    outmost cutoff radius                                   
   RWIGS  =    1.630; RWIGS  =    0.863    wigner-seitz radius (au A)           
   ENMAX  =  400.000; ENMIN  =  300.000 eV                                      
   ICORE  =        2    local potential                                         
   LCOR   =        T    correct aug charges                                     
   LPAW   =        T    paw PP                                                  
   EAUG   =  644.873                                                            
   DEXC   =    0.000                                                            
   RMAX   =    1.529    core radius for proj-oper                               
   RAUG   =    1.300    factor for augmentation sphere                          
   RDEP   =    1.501    radius for radial grids                                 
   RDEPT  =    1.300    core radius for aug-charge                              
                                                                                
   Atomic configuration                                                         
    4 entries                                                                   
     n  l   j            E        occ.                                          
     1  0  0.50      -273.3789   2.0000                                         
     2  0  0.50       -13.7508   2.0000                                         
     2  1  0.50        -5.2854   2.0000                                         
     3  2  1.50        -5.4423   0.0000                                         
   Description                                                                  
     l       E           TYP  RCUT    TYP  RCUT                                 
     0    -13.7508458     23  1.200                                             
     0     -8.2022199     23  1.200                                             
     1     -5.2854383     23  1.500                                             
     1     34.0145650     23  1.500                                             
     2     -5.4423304      7  1.500                                             
  local pseudopotential read in
  partial core-charges read in
  partial kinetic energy density read in
  atomic valenz-charges read in
  non local Contribution for L=           0  read in
    real space projection operators read in
  non local Contribution for L=           0  read in
    real space projection operators read in
  non local Contribution for L=           1  read in
    real space projection operators read in
  non local Contribution for L=           1  read in
    real space projection operators read in
    PAW grid and wavefunctions read in
 
   number of l-projection  operators is LMAX  =           4
   number of lm-projection operators is LMMAX =           8
 
 POTCAR:    PAW_PBE N 08Apr2002                   
   SHA256 =  e053789ff3a61a86a1b75d8a110fcc91f86041011e7b0817c7c99e4e8a6349d7 N/
   COPYR  = (c) Copyright 08Apr2002 Georg Kresse                                
   COPYR  = This file is part of the software VASP. Any use, copying, and all ot
   COPYR  = If you do not have a valid VASP license, you may not use, copy or di
   VRHFIN =N: s2p3                                                              
   LEXCH  = PE                                                                  
   EATOM  =   264.5486 eV,   19.4438 Ry                                         
                                                                                
   TITEL  = PAW_PBE N 08Apr2002                                                 
   LULTRA =        F    use ultrasoft PP ?                                      
   IUNSCR =        1    unscreen: 0-lin 1-nonlin 2-no                           
   RPACOR =    1.200    partial core radius                                     
   POMASS =   14.001; ZVAL   =    5.000    mass and valenz                      
   RCORE  =    1.500    outmost cutoff radius                                   
   RWIGS  =    1.400; RWIGS  =    0.741    wigner-seitz radius (au A)           
   ENMAX  =  400.000; ENMIN  =  300.000 eV                                      
   ICORE  =        2    local potential                                         
   LCOR   =        T    correct aug charges                                     
   LPAW   =        T    paw PP                                                  
   EAUG   =  627.112                                                            
   DEXC   =    0.000                                                            
   RMAX   =    1.529    core radius for proj-oper                               
   RAUG   =    1.300    factor for augmentation sphere                          
   RDEP   =    1.514    radius for radial grids                                 
   RDEPT  =    1.338    core radius for aug-charge                              
                                                                                
   Atomic configuration                                                         
    4 entries                                                                   
     n  l   j            E        occ.                                          
     1  0  0.50      -384.7179   2.0000                                         
     2  0  0.50       -18.5828   2.0000                                         
     2  1  0.50        -7.0898   3.0000                                         
     3  2  1.50        -6.8029   0.0000                                         
   Description                                                                  
     l       E           TYP  RCUT    TYP  RCUT                                 
     0    -18.5828119     23  1.200                                             
     0    -13.5018863     23  1.200                                             
     1     -7.0897853     23  1.500                                             
     1      9.5240782     23  1.500                                             
     2     -6.8029130      7  1.500                                             
  local pseudopotential read in
  partial core-charges read in
  partial kinetic energy density read in
  atomic valenz-charges read in
  non local Contribution for L=           0  read in
    real space projection operators read in
  non local Contribution for L=           0  read in
    real space projection operators read in
  non local Contribution for L=           1  read in
    real space projection operators read in
  non local Contribution for L=           1  read in
    real space projection operators read in
    PAW grid and wavefunctions read in
 
   number of l-projection  operators is LMAX  =           4
   number of lm-projection operators is LMMAX =           8
 
 POTCAR:    PAW_PBE C 08Apr2002                   
   SHA256 =  253f7b50bb8d59471dbedb8285d89021f4a42ed1a2c5d38a03a736e69125dd95 C/
   COPYR  = (c) Copyright 08Apr2002 Georg Kresse                                
   COPYR  = This file is part of the software VASP. Any use, copying, and all ot
   COPYR  = If you do not have a valid VASP license, you may not use, copy or di
   VRHFIN =C: s2p2                                                              
   LEXCH  = PE                                                                  
   EATOM  =   147.1560 eV,   10.8157 Ry                                         
                                                                                
   TITEL  = PAW_PBE C 08Apr2002                                                 
   LULTRA =        F    use ultrasoft PP ?                                      
   IUNSCR =        1    unscreen: 0-lin 1-nonlin 2-no                           
   RPACOR =    1.200    partial core radius                                     
   POMASS =   12.011; ZVAL   =    4.000    mass and valenz                      
   RCORE  =    1.500    outmost cutoff radius                                   
   RWIGS  =    1.630; RWIGS  =    0.863    wigner-seitz radius (au A)           
   ENMAX  =  400.000; ENMIN  =  300.000 eV                                      
   ICORE  =        2    local potential                                         
   LCOR   =        T    correct aug charges                                     
   LPAW   =        T    paw PP                                                  
   EAUG   =  644.873                                                            
   DEXC   =    0.000                                                            
   RMAX   =    1.529    core radius for proj-oper                               
   RAUG   =    1.300    factor for augmentation sphere                          
   RDEP   =    1.501    radius for radial grids                                 
   RDEPT  =    1.300    core radius for aug-charge                              
                                                                                
   Atomic configuration                                                         
    4 entries                                                                   
     n  l   j            E        occ.                                          
     1  0  0.50      -273.3789   2.0000                                         
     2  0  0.50       -13.7508   2.0000                                         
     2  1  0.50        -5.2854   2.0000                                         
     3  2  1.50        -5.4423   0.0000                                         
   Description                                                                  
     l       E           TYP  RCUT    TYP  RCUT                                 
     0    -13.7508458     23  1.200                                             
     0     -8.2022199     23  1.200                                             
     1     -5.2854383     23  1.500                                             
     1     34.0145650     23  1.500                                             
     2     -5.4423304      7  1.500                                             
  local pseudopotential read in
  partial core-charges read in
  partial kinetic energy density read in
  atomic valenz-charges read in
  non local Contribution for L=           0  read in
    real space projection operators read in
  non local Contribution for L=           0  read in
    real space projection operators read in
  non local Contribution for L=           1  read in
    real space projection operators read in
  non local Contribution for L=           1  read in
    real space projection operators read in
    PAW grid and wavefunctions read in
 
   number of l-projection  operators is LMAX  =           4
   number of lm-projection operators is LMMAX =           8
 
 POTCAR:    PAW_PBE Cr_pv 02Aug2007               
   SHA256 =  c9a7df34d3cdbacf1090e328ef39c0b420964e11c23f63548d1ac9dd218cdba0 Cr
   COPYR  = (c) Copyright 02Aug2007 Georg Kresse                                
   COPYR  = This file is part of the software VASP. Any use, copying, and all ot
   COPYR  = If you do not have a valid VASP license, you may not use, copy or di
   VRHFIN =Cr : p6d5s1                                                          
   LEXCH  = PE                                                                  
   EATOM  =  1647.9177 eV,  121.1185 Ry                                         
                                                                                
   TITEL  = PAW_PBE Cr_pv 02Aug2007                                             
   LULTRA =        F    use ultrasoft PP ?                                      
   IUNSCR =        1    unscreen: 0-lin 1-nonlin 2-no                           
   RPACOR =    2.080    partial core radius                                     
   POMASS =   51.996; ZVAL   =   12.000    mass and valenz                      
   RCORE  =    2.300    outmost cutoff radius                                   
   RWIGS  =    2.500; RWIGS  =    1.323    wigner-seitz radius (au A)           
   ENMAX  =  265.681; ENMIN  =  199.261 eV                                      
   ICORE  =        3    local potential                                         
   LCOR   =        T    correct aug charges                                     
   LPAW   =        T    paw PP                                                  
   EAUG   =  519.424                                                            
   DEXC   =    0.000                                                            
   RMAX   =    2.356    core radius for proj-oper                               
   RAUG   =    1.300    factor for augmentation sphere                          
   RDEP   =    2.447    radius for radial grids                                 
   RDEPT  =    1.882    core radius for aug-charge                              
                                                                                
   Atomic configuration                                                         
    8 entries                                                                   
     n  l   j            E        occ.                                          
     1  0  0.50     -5880.4963   2.0000                                         
     2  0  0.50      -667.0865   2.0000                                         
     2  1  1.50      -560.6250   6.0000                                         
     3  0  0.50       -73.9860   2.0000                                         
     3  1  1.50       -45.4378   6.0000                                         
     3  2  2.50        -2.9137   5.0000                                         
     4  0  0.50        -4.0071   1.0000                                         
     4  3  2.50        -1.3606   0.0000                                         
   Description                                                                  
     l       E           TYP  RCUT    TYP  RCUT                                 
     1    -45.4377911     23  2.000                                             
     1      1.3605826     23  2.000                                             
     2     -2.9136672     23  2.300                                             
     2     -4.2742498     23  2.300                                             
     0     -4.0071320     23  2.300                                             
     0      9.4498803     23  2.300                                             
     3      2.7211652     23  2.300                                             
  local pseudopotential read in
  partial core-charges read in
  partial kinetic energy density read in
  atomic valenz-charges read in
  non local Contribution for L=           1  read in
    real space projection operators read in
  non local Contribution for L=           1  read in
    real space projection operators read in
  non local Contribution for L=           2  read in
    real space projection operators read in
  non local Contribution for L=           2  read in
    real space projection operators read in
  non local Contribution for L=           0  read in
    real space projection operators read in
  non local Contribution for L=           0  read in
    real space projection operators read in
    PAW grid and wavefunctions read in
 
   number of l-projection  operators is LMAX  =           6
   number of lm-projection operators is LMMAX =          18
 
 POTCAR:    PAW_PBE C 08Apr2002                   
   SHA256 =  253f7b50bb8d59471dbedb8285d89021f4a42ed1a2c5d38a03a736e69125dd95 C/
   COPYR  = (c) Copyright 08Apr2002 Georg Kresse                                
   COPYR  = This file is part of the software VASP. Any use, copying, and all ot
   COPYR  = If you do not have a valid VASP license, you may not use, copy or di
   VRHFIN =C: s2p2                                                              
   LEXCH  = PE                                                                  
   EATOM  =   147.1560 eV,   10.8157 Ry                                         
                                                                                
   TITEL  = PAW_PBE C 08Apr2002                                                 
   LULTRA =        F    use ultrasoft PP ?                                      
   IUNSCR =        1    unscreen: 0-lin 1-nonlin 2-no                           
   RPACOR =    1.200    partial core radius                                     
   POMASS =   12.011; ZVAL   =    4.000    mass and valenz                      
   RCORE  =    1.500    outmost cutoff radius                                   
   RWIGS  =    1.630; RWIGS  =    0.863    wigner-seitz radius (au A)           
   ENMAX  =  400.000; ENMIN  =  300.000 eV                                      
   ICORE  =        2    local potential                                         
   LCOR   =        T    correct aug charges                                     
   LPAW   =        T    paw PP                                                  
   EAUG   =  644.873                                                            
   DEXC   =    0.000                                                            
   RMAX   =    1.529    core radius for proj-oper                               
   RAUG   =    1.300    factor for augmentation sphere                          
   RDEP   =    1.501    radius for radial grids                                 
   RDEPT  =    1.300    core radius for aug-charge                              
                                                                                
   Atomic configuration                                                         
    4 entries                                                                   
     n  l   j            E        occ.                                          
     1  0  0.50      -273.3789   2.0000                                         
     2  0  0.50       -13.7508   2.0000                                         
     2  1  0.50        -5.2854   2.0000                                         
     3  2  1.50        -5.4423   0.0000                                         
   Description                                                                  
     l       E           TYP  RCUT    TYP  RCUT                                 
     0    -13.7508458     23  1.200                                             
     0     -8.2022199     23  1.200                                             
     1     -5.2854383     23  1.500                                             
     1     34.0145650     23  1.500                                             
     2     -5.4423304      7  1.500                                             
  local pseudopotential read in
  partial core-charges read in
  partial kinetic energy density read in
  atomic valenz-charges read in
  non local Contribution for L=           0  read in
    real space projection operators read in
  non local Contribution for L=           0  read in
    real space projection operators read in
  non local Contribution for L=           1  read in
    real space projection operators read in
  non local Contribution for L=           1  read in
    real space projection operators read in
    PAW grid and wavefunctions read in
 
   number of l-projection  operators is LMAX  =           4
   number of lm-projection operators is LMMAX =           8
 
 POTCAR:    PAW_PBE O 08Apr2002                   
   SHA256 =  818f92134a0a090dccd8ba1447fa70422a3b330e708bb4f08108d8ae51209ddf O/
   COPYR  = (c) Copyright 08Apr2002 Georg Kresse                                
   COPYR  = This file is part of the software VASP. Any use, copying, and all ot
   COPYR  = If you do not have a valid VASP license, you may not use, copy or di
   VRHFIN =O: s2p4                                                              
   LEXCH  = PE                                                                  
   EATOM  =   432.3788 eV,   31.7789 Ry                                         
                                                                                
   TITEL  = PAW_PBE O 08Apr2002                                                 
   LULTRA =        F    use ultrasoft PP ?                                      
   IUNSCR =        1    unscreen: 0-lin 1-nonlin 2-no                           
   RPACOR =    1.200    partial core radius                                     
   POMASS =   16.000; ZVAL   =    6.000    mass and valenz                      
   RCORE  =    1.520    outmost cutoff radius                                   
   RWIGS  =    1.550; RWIGS  =    0.820    wigner-seitz radius (au A)           
   ENMAX  =  400.000; ENMIN  =  300.000 eV                                      
   ICORE  =        2    local potential                                         
   LCOR   =        T    correct aug charges                                     
   LPAW   =        T    paw PP                                                  
   EAUG   =  605.392                                                            
   DEXC   =    0.000                                                            
   RMAX   =    1.553    core radius for proj-oper                               
   RAUG   =    1.300    factor for augmentation sphere                          
   RDEP   =    1.550    radius for radial grids                                 
   RDEPT  =    1.329    core radius for aug-charge                              
                                                                                
   Atomic configuration                                                         
    4 entries                                                                   
     n  l   j            E        occ.                                          
     1  0  0.50      -514.6923   2.0000                                         
     2  0  0.50       -23.9615   2.0000                                         
     2  1  0.50        -9.0305   4.0000                                         
     3  2  1.50        -9.5241   0.0000                                         
   Description                                                                  
     l       E           TYP  RCUT    TYP  RCUT                                 
     0    -23.9615318     23  1.200                                             
     0     -9.5240782     23  1.200                                             
     1     -9.0304911     23  1.520                                             
     1      8.1634956     23  1.520                                             
     2     -9.5240782      7  1.500                                             
  local pseudopotential read in
  partial core-charges read in
  partial kinetic energy density read in
  kinetic energy density of atom read in
  atomic valenz-charges read in
  non local Contribution for L=           0  read in
    real space projection operators read in
  non local Contribution for L=           0  read in
    real space projection operators read in
  non local Contribution for L=           1  read in
    real space projection operators read in
  non local Contribution for L=           1  read in
    real space projection operators read in
    PAW grid and wavefunctions read in
 
   number of l-projection  operators is LMAX  =           4
   number of lm-projection operators is LMMAX =           8
 

 ----------------------------------------------------------------------------- 
|                                                                             |
|  ADVICE TO THIS USER RUNNING 'VASP/VAMP'   (HEAR YOUR MASTER'S VOICE ...):  |
|                                                                             |
|      You have a (more or less) 'large supercell' and for larger cells       |
|      it might be more efficient to use real space projection opertators     |
|      So try LREAL= Auto  in the INCAR   file.                               |
|      Mind:          For very  accurate calculation you might also keep the  |
|      reciprocal projection scheme          (i.e. LREAL=.FALSE.)             |
|                                                                             |
 ----------------------------------------------------------------------------- 

  PAW_PBE C 08Apr2002                   :
 energy of atom  1       EATOM= -147.1560
 kinetic energy error for atom=    0.0132 (will be added to EATOM!!)
  PAW_PBE N 08Apr2002                   :
 energy of atom  2       EATOM= -264.5486
 kinetic energy error for atom=    0.0298 (will be added to EATOM!!)
  PAW_PBE C 08Apr2002                   :
 energy of atom  3       EATOM= -147.1560
 kinetic energy error for atom=    0.0132 (will be added to EATOM!!)
  PAW_PBE Cr_pv 02Aug2007               :
 energy of atom  4       EATOM=-1647.9177
 kinetic energy error for atom=    0.0134 (will be added to EATOM!!)
  PAW_PBE C 08Apr2002                   :
 energy of atom  5       EATOM= -147.1560
 kinetic energy error for atom=    0.0132 (will be added to EATOM!!)
  PAW_PBE O 08Apr2002                   :
 energy of atom  6       EATOM= -432.3788
 kinetic energy error for atom=    0.0458 (will be added to EATOM!!)
 
 
 POSCAR: POSCAR-clean                            
  positions in direct lattice
  velocities in cartesian coordinates
 exchange correlation table for  LEXCH =        8
   RHO(1)=    0.500       N(1)  =     2000
   RHO(2)=  100.500       N(2)  =     4000

 VTST: version 3.2, (02/03/18)

 CHAIN: initializing optimizer
 
 OPT: Using VASP Dynamics algorithm
 CHAIN: Read ICHAIN            0
 
 POSCAR: POSCAR-clean                            
  positions in direct lattice
  velocities in cartesian coordinates
 


--------------------------------------------------------------------------------------------------------


 ion  position               nearest neighbor table
   1  0.001  0.001  0.491-   2 1.42  60 1.42  70 1.43
   2  0.057  0.113  0.493-   1 1.42  13 1.42  15 1.44
   3  0.169  0.002  0.491-   4 1.42  62 1.43  60 1.43
   4  0.224  0.114  0.494-  15 1.42   3 1.42  17 1.43
   5  0.335  0.002  0.491-   6 1.42  62 1.42  64 1.43
   6  0.390  0.114  0.492-   5 1.42  19 1.42  17 1.44
   7  0.501  0.999  0.492-   8 1.42  64 1.42  66 1.43
   8  0.556  0.111  0.492-   7 1.42  21 1.42  19 1.43
   9  0.666  0.998  0.493-  66 1.42  10 1.42  68 1.43
  10  0.722  0.110  0.491-   9 1.42  21 1.42  23 1.43
  11  0.833  0.999  0.490-  70 1.42  12 1.42  68 1.44
  12  0.889  0.110  0.491-  11 1.42  23 1.43  13 1.43
  13  0.001  0.167  0.492-  14 1.42   2 1.42  12 1.43
  14  0.056  0.279  0.494-  25 1.42  13 1.42  27 1.43
  15  0.169  0.170  0.495-   4 1.42  16 1.43   2 1.44
  16  0.225  0.282  0.499-  27 1.43  15 1.43  29 1.44
  17  0.335  0.170  0.494-  18 1.42   4 1.43   6 1.44
  18  0.391  0.282  0.498-  17 1.42  31 1.43  29 1.44
  19  0.501  0.167  0.492-  20 1.42   6 1.42   8 1.43
  20  0.557  0.279  0.492-  19 1.42  33 1.43  31 1.43
  21  0.667  0.166  0.491-  22 1.42  10 1.42   8 1.42
  22  0.723  0.277  0.492-  21 1.42  33 1.42  35 1.42
  23  0.833  0.166  0.491-  24 1.42  12 1.43  10 1.43
  24  0.889  0.277  0.491-  23 1.42  35 1.42  25 1.43
  25  0.000  0.333  0.492-  26 1.42  14 1.42  24 1.43
  26  0.055  0.444  0.492-  25 1.42  37 1.42  39 1.42
  27  0.167  0.335  0.498-  28 1.41  16 1.43  14 1.43
  28  0.221  0.445  0.499-  41 1.39  27 1.41  39 1.42
  29  0.337  0.341  0.503-  16 1.44  18 1.44  30 1.45
  30  0.392  0.454  0.513-  41 1.41  29 1.45  71 2.02
  31  0.502  0.335  0.494-  32 1.40  18 1.43  20 1.43
  32  0.558  0.445  0.496-  31 1.40  43 1.42  71 1.90
  33  0.668  0.333  0.493-  34 1.42  22 1.42  20 1.43
  34  0.724  0.445  0.495-  43 1.42  33 1.42  45 1.42
  35  0.834  0.333  0.491-  24 1.42  36 1.42  22 1.42
  36  0.890  0.445  0.492-  45 1.42  37 1.42  35 1.42
  37  0.001  0.500  0.492-  38 1.42  26 1.42  36 1.42
  38  0.056  0.612  0.491-  37 1.42  47 1.42  49 1.42
  39  0.166  0.501  0.495-  40 1.42  28 1.42  26 1.42
  40  0.221  0.612  0.494-  49 1.41  39 1.42  51 1.42
  41  0.329  0.500  0.505-  28 1.39  42 1.40  30 1.41
  42  0.385  0.610  0.503-  41 1.40  53 1.40  51 1.41
  43  0.669  0.500  0.494-  34 1.42  32 1.42  44 1.44  71 2.52
  44  0.726  0.613  0.492-  55 1.41  57 1.42  43 1.44  71 2.52
  45  0.835  0.500  0.494-  36 1.42  46 1.42  34 1.42
  46  0.891  0.612  0.493-  47 1.42  57 1.42  45 1.42
  47  0.001  0.667  0.491-  46 1.42  38 1.42  48 1.42
  48  0.057  0.779  0.490-  59 1.42  47 1.42  61 1.43
  49  0.167  0.667  0.491-  40 1.41  38 1.42  50 1.42
  50  0.223  0.779  0.491-  49 1.42  63 1.42  61 1.42
  51  0.331  0.666  0.497-  42 1.41  40 1.42  52 1.42
  52  0.389  0.777  0.495-  51 1.42  65 1.42  63 1.43
  53  0.494  0.658  0.510-  42 1.40  54 1.45  71 2.02
  54  0.553  0.771  0.501-  65 1.44  67 1.44  53 1.45
  55  0.669  0.667  0.489-  56 1.40  44 1.41  71 1.93
  56  0.722  0.776  0.490-  55 1.40  67 1.43  69 1.44
  57  0.836  0.668  0.494-  58 1.42  46 1.42  44 1.42
  58  0.891  0.779  0.491-  57 1.42  69 1.42  59 1.43
  59  0.002  0.835  0.490-  60 1.42  48 1.42  58 1.43
  60  0.057  0.946  0.491-  59 1.42   1 1.42   3 1.43
  61  0.168  0.835  0.490-  62 1.42  50 1.42  48 1.43
  62  0.224  0.947  0.490-  61 1.42   5 1.42   3 1.43
  63  0.334  0.834  0.493-  64 1.42  50 1.42  52 1.43
  64  0.390  0.945  0.492-  63 1.42   7 1.42   5 1.43
  65  0.500  0.830  0.496-  52 1.42  66 1.43  54 1.44
  66  0.555  0.942  0.493-   9 1.42  65 1.43   7 1.43
  67  0.665  0.830  0.495-  68 1.42  56 1.43  54 1.44
  68  0.721  0.941  0.492-  67 1.42   9 1.43  11 1.44
  69  0.834  0.833  0.489-  70 1.42  58 1.42  56 1.44
  70  0.890  0.945  0.490-  69 1.42  11 1.42   1 1.43
  71  0.542  0.556  0.541-  72 1.89  32 1.90  55 1.93  30 2.02  53 2.02  43 2.52  44 2.52
  72  0.495  0.519  0.660-  73 1.17  71 1.89
  73  0.471  0.504  0.735-  72 1.17
 

IMPORTANT INFORMATION: All symmetrisations will be switched off!
NOSYMM: (Re-)initialisation of all symmetry stuff for point group C_1.

 
 
 KPOINTS: K-Points                                

Automatic generation of k-mesh.
Space group operators:
 irot       det(A)        alpha          n_x          n_y          n_z        tau_x        tau_y        tau_z
    1     1.000000     0.000000     1.000000     0.000000     0.000000     0.000000     0.000000     0.000000
 
 Subroutine IBZKPT returns following result:
 ===========================================
 
 Found      5 irreducible k-points:
 
 Following reciprocal coordinates:
            Coordinates               Weight
  0.000000  0.000000  0.000000      1.000000
  0.333333 -0.000000  0.000000      2.000000
  0.000000  0.333333  0.000000      2.000000
  0.333333  0.333333  0.000000      2.000000
 -0.333333  0.333333  0.000000      2.000000
 
 Following cartesian coordinates:
            Coordinates               Weight
  0.000000  0.000000  0.000000      1.000000
  0.022427  0.013080  0.000000      2.000000
 -0.000013  0.026159  0.000000      2.000000
  0.022414  0.039239  0.000000      2.000000
 -0.022441  0.013080  0.000000      2.000000
 
 TETIRR: Found     24 inequivalent tetrahedra from       54


--------------------------------------------------------------------------------------------------------




 Dimension of arrays:
   k-points           NKPTS =      5   k-points in BZ     NKDIM =      5   number of bands    NBANDS=    192
   number of dos      NEDOS =   4000   number of ions     NIONS =     73
   non local maximal  LDIM  =      6   non local SUM 2l+1 LMDIM =     18
   total plane-waves  NPLWV = 512000
   max r-space proj   IRMAX =      1   max aug-charges    IRDMAX=   6472
   dimension x,y,z NGX =    80 NGY =   80 NGZ =   80
   dimension x,y,z NGXF=   160 NGYF=  160 NGZF=  160
   support grid    NGXF=   160 NGYF=  160 NGZF=  160
   ions per type =              40   1  29   1   1   1
   NGX,Y,Z   is equivalent  to a cutoff of   8.95,  9.02,  8.87 a.u.
   NGXF,Y,Z  is equivalent  to a cutoff of  17.90, 18.04, 17.73 a.u.

 SYSTEM =  unknown system                          
 POSCAR =  POSCAR-clean                            

 Startparameter for this run:
   NWRITE =      2    write-flag & timer
   PREC   = normal    normal or accurate (medium, high low for compatibility)
   ISTART =      0    job   : 0-new  1-cont  2-samecut
   ICHARG =      2    charge: 1-file 2-atom 10-const
   ISPIN  =      2    spin polarized calculation?
   LNONCOLLINEAR =      F non collinear calculations
   LSORBIT =      F    spin-orbit coupling
   INIWAV =      1    electr: 0-lowe 1-rand  2-diag
   LASPH  =      F    aspherical Exc in radial PAW
   METAGGA=      F    non-selfconsistent MetaGGA calc.

 Electronic Relaxation 1
   ENCUT  =  440.0 eV  32.34 Ry    5.69 a.u.  25.41 25.22 25.66*2*pi/ulx,y,z
   ENINI  =  440.0     initial cutoff
   ENAUG  =  644.9 eV  augmentation charge cutoff
   NELM   =    100;   NELMIN=  2; NELMDL= -5     # of ELM steps 
   EDIFF  = 0.1E-03   stopping-criterion for ELM
   LREAL  =      F    real-space projection
   NLSPLINE    = F    spline interpolate recip. space projectors
   LCOMPAT=      F    compatible to vasp.4.4
   GGA_COMPAT  = T    GGA compatible to vasp.4.4-vasp.4.6
   LMAXPAW     = -100 max onsite density
   LMAXMIX     =    2 max onsite mixed and CHGCAR
   VOSKOWN=      0    Vosko Wilk Nusair interpolation
   ROPT   =    0.00000   0.00000   0.00000   0.00000
   ROPT   =    0.00000   0.00000
 Ionic relaxation
   EDIFFG = -.1E-01   stopping-criterion for IOM
   NSW    =      0    number of steps for IOM
   NBLOCK =      1;   KBLOCK =      1    inner block; outer block 
   IBRION =     -1    ionic relax: 0-MD 1-quasi-New 2-CG
   NFREE  =      0    steps in history (QN), initial steepest desc. (CG)
   ISIF   =      2    stress and relaxation
   IWAVPR =     10    prediction:  0-non 1-charg 2-wave 3-comb
   ISYM   =      0    0-nonsym 1-usesym 2-fastsym
   LCORR  =      T    Harris-Foulkes like correction to forces

   POTIM  = 0.5000    time-step for ionic-motion
   TEIN   =    0.0    initial temperature
   TEBEG  =    0.0;   TEEND  =   0.0 temperature during run
   SMASS  =  -3.00    Nose mass-parameter (am)
   estimated Nose-frequenzy (Omega)   =  0.10E-29 period in steps =****** mass=  -0.505E-26a.u.
   SCALEE = 1.0000    scale energy and forces
   NPACO  =    256;   APACO  = 16.0  distance and # of slots for P.C.
   PSTRESS=    0.0 pullay stress

  Mass of Ions in am
   POMASS =  12.01 14.00 12.01 52.00 12.01 16.00
  Ionic Valenz
   ZVAL   =   4.00  5.00  4.00 12.00  4.00  6.00
  Atomic Wigner-Seitz radii
   RWIGS  =  -1.00 -1.00 -1.00 -1.00 -1.00 -1.00
  virtual crystal weights 
   VCA    =   1.00  1.00  1.00  1.00  1.00  1.00
   NELECT =     303.0000    total number of electrons
   NUPDOWN=      -1.0000    fix difference up-down

 DOS related values:
   EMIN   = -14.00;   EMAX   =  6.00  energy-range for DOS
   EFERMI =   0.00
   ISMEAR =    -5;   SIGMA  =   0.20  broadening in eV -4-tet -1-fermi 0-gaus

 Electronic relaxation 2 (details)
   IALGO  =     38    algorithm
   LDIAG  =      T    sub-space diagonalisation (order eigenvalues)
   LSUBROT=      F    optimize rotation matrix (better conditioning)
   TURBO    =      0    0=normal 1=particle mesh
   IRESTART =      0    0=no restart 2=restart with 2 vectors
   NREBOOT  =      0    no. of reboots
   NMIN     =      0    reboot dimension
   EREF     =   0.00    reference energy to select bands
   IMIX   =      4    mixing-type and parameters
     AMIX     =   0.25;   BMIX     =  0.00
     AMIX_MAG =   1.00;   BMIX_MAG =  0.00
     AMIN     =   0.10
     WC   =   100.;   INIMIX=   1;  MIXPRE=   1;  MAXMIX= -45

 Intra band minimization:
   WEIMIN = 0.0000     energy-eigenvalue tresh-hold
   EBREAK =  0.13E-06  absolut break condition
   DEPER  =   0.30     relativ break condition  

   TIME   =   0.40     timestep for ELM

  volume/ion in A,a.u.               =      38.90       262.54
  Fermi-wavevector in a.u.,A,eV,Ry     =   0.776456  1.467289  8.202736  0.602884
  Thomas-Fermi vector in A             =   1.878938
 
 Write flags
   LWAVE        =      F    write WAVECAR
   LDOWNSAMPLE  =      F    k-point downsampling of WAVECAR
   LCHARG       =      F    write CHGCAR
   LVTOT        =      F    write LOCPOT, total local potential
   LVHAR        =      F    write LOCPOT, Hartree potential only
   LELF         =      F    write electronic localiz. function (ELF)
   LORBIT       =     11    0 simple, 1 ext, 2 COOP (PROOUT), +10 PAW based schemes


 Dipole corrections
   LMONO  =      F    monopole corrections only (constant potential shift)
   LDIPOL =      F    correct potential (dipole corrections)
   IDIPOL =      0    1-x, 2-y, 3-z, 4-all directions 
   EPSILON=  1.0000000 bulk dielectric constant

 Exchange correlation treatment:
   GGA     =    --    GGA type
   LEXCH   =     8    internal setting for exchange type
   VOSKOWN=      0    Vosko Wilk Nusair interpolation
   LHFCALC =     F    Hartree Fock is set to
   LHFONE  =     F    Hartree Fock one center treatment
   AEXX    =    0.0000 exact exchange contribution

 Linear response parameters
   LEPSILON=     F    determine dielectric tensor
   LRPA    =     F    only Hartree local field effects (RPA)
   LNABLA  =     F    use nabla operator in PAW spheres
   LVEL    =     F    velocity operator in full k-point grid
   LINTERFAST=   F  fast interpolation
   KINTER  =     0    interpolate to denser k-point grid
   CSHIFT  =0.1000    complex shift for real part using Kramers Kronig
   OMEGAMAX=  -1.0    maximum frequency
   DEG_THRESHOLD= 0.2000000E-02 threshold for treating states as degnerate
   RTIME   =   -0.100 relaxation time in fs
  (WPLASMAI=    0.000 imaginary part of plasma frequency in eV, 0.658/RTIME)
   DFIELD  = 0.0000000 0.0000000 0.0000000 field for delta impulse in time
 
 Orbital magnetization related:
   ORBITALMAG=     F  switch on orbital magnetization
   LCHIMAG   =     F  perturbation theory with respect to B field
   DQ        =  0.001000  dq finite difference perturbation B field
   LLRAUG    =     F  two centre corrections for induced B field



--------------------------------------------------------------------------------------------------------


 Static calculation
 charge density and potential will be updated during run
 spin polarized calculation
 Variant of blocked Davidson
 Davidson routine will perform the subspace rotation
 perform sub-space diagonalisation
    after iterative eigenvector-optimisation
 modified Broyden-mixing scheme, WC =      100.0
 initial mixing is a Kerker type mixing with AMIX =  0.2500 and BMIX =      0.0001
 Hartree-type preconditioning will be used
 using additional bands           40
 reciprocal scheme for non local part
 use partial core corrections
 calculate Harris-corrections to forces 
   (improved forces if not selfconsistent)
 use gradient corrections 
 use of overlap-Matrix (Vanderbilt PP)
 Fermi weights with tetrahedron method with Bloechl corrections


--------------------------------------------------------------------------------------------------------


  energy-cutoff  :      440.00
  volume of cell :     2839.99
      direct lattice vectors                 reciprocal lattice vectors
    14.858494812  0.007653473  0.000000000     0.067281356  0.039239159  0.000000000
    -7.429247406 12.738546194  0.000000000    -0.000040423  0.078478318  0.000000000
     0.000000000  0.000000000 15.000000000     0.000000000  0.000000000  0.066666667

  length of vectors
    14.858496783 14.746670002 15.000000000     0.077887692  0.078478329  0.066666667


 
 k-points in units of 2pi/SCALE and weight: K-Points                                
   0.00000000  0.00000000  0.00000000       0.111
   0.02242712  0.01307972  0.00000000       0.222
  -0.00001347  0.02615944  0.00000000       0.222
   0.02241364  0.03923916  0.00000000       0.222
  -0.02244059  0.01307972  0.00000000       0.222
 
 k-points in reciprocal lattice and weights: K-Points                                
   0.00000000  0.00000000  0.00000000       0.111
   0.33333333 -0.00000000  0.00000000       0.222
   0.00000000  0.33333333  0.00000000       0.222
   0.33333333  0.33333333  0.00000000       0.222
  -0.33333333  0.33333333  0.00000000       0.222
 
 position of ions in fractional coordinates (direct lattice) 
   0.00140893  0.00125567  0.49136456
   0.05726262  0.11282386  0.49300394
   0.16855890  0.00249313  0.49107859
   0.22430592  0.11412005  0.49371929
   0.33478954  0.00195256  0.49085935
   0.39028022  0.11354271  0.49179599
   0.50054016  0.99924840  0.49238161
   0.55615017  0.11085398  0.49187117
   0.66611641  0.99803251  0.49252424
   0.72204781  0.10978188  0.49126970
   0.83297318  0.99869507  0.49043460
   0.88892680  0.11038777  0.49068561
   0.00057895  0.16697154  0.49227546
   0.05607147  0.27858939  0.49386096
   0.16902723  0.16968582  0.49491298
   0.22518817  0.28161866  0.49864531
   0.33540797  0.17047133  0.49442788
   0.39083404  0.28215079  0.49779049
   0.50105501  0.16725490  0.49171137
   0.55679104  0.27863172  0.49179639
   0.66710983  0.16586251  0.49132829
   0.72297321  0.27740700  0.49161848
   0.83322098  0.16575223  0.49077775
   0.88893927  0.27714368  0.49091025
   0.00001501  0.33306992  0.49189455
   0.05546573  0.44425930  0.49217561
   0.16742261  0.33486189  0.49794233
   0.22136107  0.44547246  0.49885185
   0.33701273  0.34073195  0.50321987
   0.39171509  0.45379217  0.51280051
   0.50179100  0.33525153  0.49388044
   0.55847284  0.44510977  0.49621763
   0.66793659  0.33322443  0.49295484
   0.72442613  0.44454679  0.49512573
   0.83393170  0.33290975  0.49130196
   0.89000575  0.44457115  0.49182939
   0.00075113  0.50027839  0.49154429
   0.05609578  0.61155607  0.49121563
   0.16612630  0.50054633  0.49474316
   0.22095436  0.61170234  0.49409185
   0.32937279  0.50024967  0.50454611
   0.38526606  0.61040693  0.50330746
   0.66914655  0.49970594  0.49399994
   0.72561195  0.61270327  0.49222996
   0.83529894  0.50032642  0.49386869
   0.89091423  0.61182229  0.49346640
   0.00135711  0.66743698  0.49111375
   0.05703303  0.77922917  0.49022669
   0.16676631  0.66749103  0.49147059
   0.22313158  0.77910152  0.49102535
   0.33130742  0.66600193  0.49680894
   0.38877672  0.77742175  0.49549369
   0.49402627  0.65828426  0.51016221
   0.55281290  0.77128865  0.50066788
   0.66947286  0.66667755  0.48918197
   0.72237209  0.77633259  0.48967949
   0.83625596  0.66779491  0.49354883
   0.89070609  0.77893886  0.49072148
   0.00181593  0.83490668  0.49023014
   0.05745040  0.94637946  0.49051719
   0.16811903  0.83511759  0.49004954
   0.22381703  0.94665930  0.49030568
   0.33406727  0.83394468  0.49255779
   0.38972995  0.94548798  0.49170779
   0.49955587  0.83013661  0.49616727
   0.55527582  0.94231280  0.49327198
   0.66483441  0.83008866  0.49461878
   0.72090235  0.94149762  0.49238950
   0.83419498  0.83340091  0.48908235
   0.88984147  0.94475631  0.49018753
   0.54234285  0.55625701  0.54140633
   0.49518012  0.51886132  0.66015153
   0.47058244  0.50350136  0.73500331
 
 position of ions in cartesian coordinates  (Angst):
   0.01160593  0.01600623  7.37046844
   0.01263997  1.43765023  7.39505917
   2.48600945  0.03304888  7.36617884
   2.48502218  1.45544027  7.40578928
   4.95996267  0.02743505  7.36289027
   4.95543975  1.44935607  7.37693983
   0.01360976 12.73280275  7.38572420
   7.43999284  1.41637498  7.37806750
   2.48285685 12.71858133  7.38786358
   9.91294695  1.40398773  7.36904547
   4.95717492 12.72829836  7.35651903
  12.38801623  1.41298312  7.36028419
  -1.23187065  2.12697915  7.38413195
  -1.23657182  3.54925300  7.40791439
   1.25085224  2.16284432  7.42369475
   1.25374259  3.58913581  7.47967970
   3.71718385  2.17412391  7.41641816
   3.71103755  3.59718216  7.46685737
   6.20234517  2.13441913  7.37567053
   6.20305274  3.55362440  7.37694582
   8.68001436  2.11795294  7.36992430
   8.68136842  3.53929515  7.37427718
  11.14899537  2.11781944  7.36166627
  11.14933062  3.53721104  7.36365368
  -2.47423581  4.24282671  7.37841827
  -2.47637493  5.65964206  7.38263409
  -0.00012383  4.26693500  7.46913494
  -0.02043288  5.67636570  7.48277774
   2.47611991  4.34300900  7.54829798
   2.44896228  5.78365054  7.69200765
   4.96519241  4.27445760  7.40820653
   4.99123517  5.67432561  7.44326439
   7.44892562  4.24990678  7.39432256
   7.46123387  5.66842418  7.42688595
   9.91770094  4.24716867  7.36952944
   9.92131678  5.67000174  7.37744089
  -3.70553117  6.37282507  7.37316429
  -3.70990244  7.79076459  7.36823442
  -1.25029571  6.37750400  7.42114739
  -1.26143878  7.79388952  7.41137769
   1.17750525  6.37497444  7.56819160
   1.18960962  7.77864550  7.54961190
   6.23007149  6.37064853  7.40999907
   6.22957719  7.81050231  7.38344937
   8.69423629  6.37982411  7.40803038
   8.69226521  7.80054514  7.40199594
  -4.93838986  8.50218725  7.36670620
  -4.94166135  9.92668326  7.35340041
  -2.48105967  8.50414167  7.37205886
  -2.47273855  9.92632847  7.36538028
  -0.02516351  8.48643197  7.45213417
   0.00097835  9.90619834  7.43240533
   2.44993021  8.38936541  7.65243317
   2.48387351  9.82932697  7.51001813
   4.99444659  8.49762654  7.33772955
   4.96579505  9.89487721  7.34519236
   7.46429114  8.51313661  7.40323241
   7.44762238  9.92936563  7.36082226
  -6.17574622 10.63551117  7.35345204
  -6.17726074 12.05593817  7.35775787
  -3.70629945 10.63947063  7.35074313
  -3.70738205 12.06077625  7.35458515
  -1.23184450 10.62579963  7.38836690
  -1.23346369 12.04712514  7.37561681
   1.25535802 10.57855695  7.44250900
   1.24988798 12.00794492  7.39907973
   3.71150459 10.57921109  7.41928171
   3.71690503 11.99882839  7.38584248
   6.20334026 10.62270043  7.33623526
   6.20287656 12.04163229  7.35281297
   3.92582748  7.09005640  8.12109490
   3.50288221  6.61332872  9.90227289
   3.25151056  6.41747689 11.02504964
 


--------------------------------------------------------------------------------------------------------


 k-point  1 :   0.0000 0.0000 0.0000  plane waves:   59517
 k-point  2 :   0.3333-0.0000 0.0000  plane waves:   59484
 k-point  3 :   0.0000 0.3333 0.0000  plane waves:   59556
 k-point  4 :   0.3333 0.3333 0.0000  plane waves:   59566
 k-point  5 :  -0.3333 0.3333 0.0000  plane waves:   59491

 maximum and minimum number of plane-waves per node :      4984     4934

 maximum number of plane-waves:     59566
 maximum index in each direction: 
   IXMAX=   25   IYMAX=   25   IZMAX=   25
   IXMIN=  -25   IYMIN=  -25   IZMIN=  -25


 parallel 3D FFT for wavefunctions:
    minimum data exchange during FFTs selected (reduces bandwidth)
 parallel 3D FFT for charge:
    minimum data exchange during FFTs selected (reduces bandwidth)


 total amount of memory used by VASP MPI-rank0   115989. kBytes
=======================================================================

   base      :      30000. kBytes
   nonl-proj :      27264. kBytes
   fftplans  :       4700. kBytes
   grid      :      15193. kBytes
   one-center:        217. kBytes
   wavefun   :      38615. kBytes
 
     INWAV:  cpu time    0.0000: real time    0.0002
 Broyden mixing: mesh for mixing (old mesh)
   NGX = 51   NGY = 51   NGZ = 51
  (NGX  =160   NGY  =160   NGZ  =160)
  gives a total of 132651 points

 initial charge density was supplied:
 charge density of overlapping atoms calculated
 number of electron     303.0000000 magnetization       2.0000000
 keeping initial charge density in first step


--------------------------------------------------------------------------------------------------------


 Maximum index for augmentation-charges          179 (set IRDMAX)


--------------------------------------------------------------------------------------------------------


 First call to EWALD:  gamma=   0.125
 Maximum number of real-space cells 3x 3x 3
 Maximum number of reciprocal cells 3x 3x 3

    FEWALD:  cpu time    0.0018: real time    0.0020


--------------------------------------- Iteration      1(   1)  ---------------------------------------


    POTLOK:  cpu time    0.2008: real time    0.2285
    SETDIJ:  cpu time    0.0083: real time    0.0089
     EDDAV:  cpu time   11.4889: real time   11.5858
 BZINTS: Fermi energy:  8.083155;303.000000 electrons
         Band energy:***********;  BLOECHL correction: -0.012320
       DOS:  cpu time    0.1139: real time    0.1140
    --------------------------------------------
      LOOP:  cpu time   11.8120: real time   11.9372

 eigenvalue-minimisations  :  4384
 total energy-change (2. order) : 0.2536610E+04  (-0.1121043E+05)
 number of electron     303.0000000 magnetization       2.0000000
 augmentation part      303.0000000 magnetization       2.0000000

 Free energy of the ion-electron system (eV)
  ---------------------------------------------------
  alpha Z        PSCENC =       167.43892633
  Ewald energy   TEWEN  =     30997.32819819
  -Hartree energ DENC   =    -40662.79418299
  -exchange      EXHF   =         0.00000000
  -V(xc)+E(xc)   XCENC  =      1023.68887458
  PAW double counting   =      9455.23336183    -9546.47664214
  entropy T*S    EENTRO =         0.00000000
  eigenvalues    EBANDS =     -1542.56174993
  atomic energy  EATOM  =     12644.75315347
  Solvation  Ediel_sol  =         0.00000000
  ---------------------------------------------------
  free energy    TOTEN  =      2536.60993935 eV

  energy without entropy =     2536.60993935  energy(sigma->0) =     2536.60993935


--------------------------------------------------------------------------------------------------------




--------------------------------------- Iteration      1(   2)  ---------------------------------------


     EDDAV:  cpu time   14.7928: real time   15.1031
 BZINTS: Fermi energy: -2.050763;303.000000 electrons
         Band energy:***********;  BLOECHL correction:  0.000000
       DOS:  cpu time    0.0046: real time    0.0046
    --------------------------------------------
      LOOP:  cpu time   14.7974: real time   15.1077

 eigenvalue-minimisations  :  5456
 total energy-change (2. order) :-0.2779089E+04  (-0.2655861E+04)
 number of electron     303.0000000 magnetization       2.0000000
 augmentation part      303.0000000 magnetization       2.0000000

 Free energy of the ion-electron system (eV)
  ---------------------------------------------------
  alpha Z        PSCENC =       167.43892633
  Ewald energy   TEWEN  =     30997.32819819
  -Hartree energ DENC   =    -40662.79418299
  -exchange      EXHF   =         0.00000000
  -V(xc)+E(xc)   XCENC  =      1023.68887458
  PAW double counting   =      9455.23336183    -9546.47664214
  entropy T*S    EENTRO =         0.00000000
  eigenvalues    EBANDS =     -4321.65036398
  atomic energy  EATOM  =     12644.75315347
  Solvation  Ediel_sol  =         0.00000000
  ---------------------------------------------------
  free energy    TOTEN  =      -242.47867469 eV

  energy without entropy =     -242.47867469  energy(sigma->0) =     -242.47867469


--------------------------------------------------------------------------------------------------------




--------------------------------------- Iteration      1(   3)  ---------------------------------------


     EDDAV:  cpu time   12.8071: real time   12.9834
 BZINTS: Fermi energy: -4.567041;303.000000 electrons
         Band energy:***********;  BLOECHL correction: -0.059261
       DOS:  cpu time    0.0116: real time    0.0116
    --------------------------------------------
      LOOP:  cpu time   12.8187: real time   12.9950

 eigenvalue-minimisations  :  4576
 total energy-change (2. order) :-0.4578418E+03  (-0.4539311E+03)
 number of electron     303.0000000 magnetization       2.0000000
 augmentation part      303.0000000 magnetization       2.0000000

 Free energy of the ion-electron system (eV)
  ---------------------------------------------------
  alpha Z        PSCENC =       167.43892633
  Ewald energy   TEWEN  =     30997.32819819
  -Hartree energ DENC   =    -40662.79418299
  -exchange      EXHF   =         0.00000000
  -V(xc)+E(xc)   XCENC  =      1023.68887458
  PAW double counting   =      9455.23336183    -9546.47664214
  entropy T*S    EENTRO =         0.00000000
  eigenvalues    EBANDS =     -4779.49221113
  atomic energy  EATOM  =     12644.75315347
  Solvation  Ediel_sol  =         0.00000000
  ---------------------------------------------------
  free energy    TOTEN  =      -700.32052184 eV

  energy without entropy =     -700.32052184  energy(sigma->0) =     -700.32052184


--------------------------------------------------------------------------------------------------------




--------------------------------------- Iteration      1(   4)  ---------------------------------------


     EDDAV:  cpu time   12.6906: real time   12.9054
 BZINTS: Fermi energy: -4.729548;303.000000 electrons
         Band energy:***********;  BLOECHL correction: -0.058457
       DOS:  cpu time    0.0111: real time    0.0112
    --------------------------------------------
      LOOP:  cpu time   12.7017: real time   12.9166

 eigenvalue-minimisations  :  4640
 total energy-change (2. order) :-0.1649729E+02  (-0.1635281E+02)
 number of electron     303.0000000 magnetization       2.0000000
 augmentation part      303.0000000 magnetization       2.0000000

 Free energy of the ion-electron system (eV)
  ---------------------------------------------------
  alpha Z        PSCENC =       167.43892633
  Ewald energy   TEWEN  =     30997.32819819
  -Hartree energ DENC   =    -40662.79418299
  -exchange      EXHF   =         0.00000000
  -V(xc)+E(xc)   XCENC  =      1023.68887458
  PAW double counting   =      9455.23336183    -9546.47664214
  entropy T*S    EENTRO =         0.00000000
  eigenvalues    EBANDS =     -4795.98949783
  atomic energy  EATOM  =     12644.75315347
  Solvation  Ediel_sol  =         0.00000000
  ---------------------------------------------------
  free energy    TOTEN  =      -716.81780855 eV

  energy without entropy =     -716.81780855  energy(sigma->0) =     -716.81780855


--------------------------------------------------------------------------------------------------------




--------------------------------------- Iteration      1(   5)  ---------------------------------------


     EDDAV:  cpu time   13.9671: real time   14.6898
 BZINTS: Fermi energy: -4.738704;303.000000 electrons
         Band energy:***********;  BLOECHL correction: -0.058798
       DOS:  cpu time    0.0114: real time    0.0115
    CHARGE:  cpu time    0.1669: real time    0.1731
    MIXING:  cpu time    0.0033: real time    0.0043
    --------------------------------------------
      LOOP:  cpu time   14.1487: real time   14.8787

 eigenvalue-minimisations  :  5280
 total energy-change (2. order) :-0.5406392E+00  (-0.5380938E+00)
 number of electron     303.0000018 magnetization       0.1188254
 augmentation part       12.5171564 magnetization       0.0972468

 Broyden mixing:
  rms(total) = 0.48080E+01    rms(broyden)= 0.48074E+01
  rms(prec ) = 0.54787E+01
  weight for this iteration     100.00

 Free energy of the ion-electron system (eV)
  ---------------------------------------------------
  alpha Z        PSCENC =       167.43892633
  Ewald energy   TEWEN  =     30997.32819819
  -Hartree energ DENC   =    -40662.79418299
  -exchange      EXHF   =         0.00000000
  -V(xc)+E(xc)   XCENC  =      1023.68887458
  PAW double counting   =      9455.23336183    -9546.47664214
  entropy T*S    EENTRO =         0.00000000
  eigenvalues    EBANDS =     -4796.53013707
  atomic energy  EATOM  =     12644.75315347
  Solvation  Ediel_sol  =         0.00000000
  ---------------------------------------------------
  free energy    TOTEN  =      -717.35844778 eV

  energy without entropy =     -717.35844778  energy(sigma->0) =     -717.35844778


--------------------------------------------------------------------------------------------------------




--------------------------------------- Iteration      1(   6)  ---------------------------------------


    POTLOK:  cpu time    0.1538: real time    0.1580
    SETDIJ:  cpu time    0.0087: real time    0.0088
     EDDAV:  cpu time   12.3408: real time   12.4429
 BZINTS: Fermi energy: -5.605982;303.000000 electrons
         Band energy:***********;  BLOECHL correction: -0.017801
       DOS:  cpu time    0.0122: real time    0.0123
    CHARGE:  cpu time    0.1657: real time    0.1713
    MIXING:  cpu time    0.0033: real time    0.0067
    --------------------------------------------
      LOOP:  cpu time   12.6846: real time   12.7999

 eigenvalue-minimisations  :  4752
 total energy-change (2. order) : 0.4730366E+01  (-0.7172585E+01)
 number of electron     303.0000037 magnetization       0.0916560
 augmentation part       17.7973585 magnetization       0.1056572

 Broyden mixing:
  rms(total) = 0.71502E+01    rms(broyden)= 0.71499E+01
  rms(prec ) = 0.81795E+01
  weight for this iteration     100.00

 eigenvalues of (default mixing * dielectric matrix)
  average eigenvalue GAMMA=   0.2798
  0.2798

 Free energy of the ion-electron system (eV)
  ---------------------------------------------------
  alpha Z        PSCENC =       167.43892633
  Ewald energy   TEWEN  =     30997.32819819
  -Hartree energ DENC   =    -41021.73827319
  -exchange      EXHF   =         0.00000000
  -V(xc)+E(xc)   XCENC  =      1036.37008076
  PAW double counting   =     13293.56437505   -13385.26410360
  entropy T*S    EENTRO =         0.00000000
  eigenvalues    EBANDS =     -4445.08043909
  atomic energy  EATOM  =     12644.75315347
  Solvation  Ediel_sol  =         0.00000000
  ---------------------------------------------------
  free energy    TOTEN  =      -712.62808208 eV

  energy without entropy =     -712.62808208  energy(sigma->0) =     -712.62808208


--------------------------------------------------------------------------------------------------------




--------------------------------------- Iteration      1(   7)  ---------------------------------------


    POTLOK:  cpu time    0.1354: real time    0.1420
    SETDIJ:  cpu time    0.0087: real time    0.0088
     EDDAV:  cpu time   13.9132: real time   14.0369
 BZINTS: Fermi energy: -4.266348;303.000000 electrons
         Band energy:***********;  BLOECHL correction: -0.030953
       DOS:  cpu time    0.0117: real time    0.0118
    CHARGE:  cpu time    0.1923: real time    0.1965
    MIXING:  cpu time    0.0041: real time    0.0093
    --------------------------------------------
      LOOP:  cpu time   14.2654: real time   14.4052

 eigenvalue-minimisations  :  5272
 total energy-change (2. order) : 0.3609705E+02  (-0.6543306E+01)
 number of electron     303.0000020 magnetization       0.2257225
 augmentation part       13.9921177 magnetization       0.1077107

 Broyden mixing:
  rms(total) = 0.25436E+01    rms(broyden)= 0.25431E+01
  rms(prec ) = 0.27823E+01
  weight for this iteration     100.00

 eigenvalues of (default mixing * dielectric matrix)
  average eigenvalue GAMMA=   0.7813
  1.2822  0.2804

 Free energy of the ion-electron system (eV)
  ---------------------------------------------------
  alpha Z        PSCENC =       167.43892633
  Ewald energy   TEWEN  =     30997.32819819
  -Hartree energ DENC   =    -41176.45089883
  -exchange      EXHF   =         0.00000000
  -V(xc)+E(xc)   XCENC  =      1040.69560479
  PAW double counting   =     14476.40336346   -14572.37054390
  entropy T*S    EENTRO =         0.00000000
  eigenvalues    EBANDS =     -4254.32883597
  atomic energy  EATOM  =     12644.75315347
  Solvation  Ediel_sol  =         0.00000000
  ---------------------------------------------------
  free energy    TOTEN  =      -676.53103244 eV

  energy without entropy =     -676.53103244  energy(sigma->0) =     -676.53103244


--------------------------------------------------------------------------------------------------------




--------------------------------------- Iteration      1(   8)  ---------------------------------------


    POTLOK:  cpu time    0.1442: real time    0.1622
    SETDIJ:  cpu time    0.0102: real time    0.0102
     EDDAV:  cpu time   12.8492: real time   12.9680
 BZINTS: Fermi energy: -2.428884;303.000000 electrons
         Band energy:***********;  BLOECHL correction: -0.055181
       DOS:  cpu time    0.0115: real time    0.0115
    CHARGE:  cpu time    0.1640: real time    0.1657
    MIXING:  cpu time    0.0036: real time    0.0036
    --------------------------------------------
      LOOP:  cpu time   13.1827: real time   13.3213

 eigenvalue-minimisations  :  4872
 total energy-change (2. order) : 0.6943741E+01  (-0.3278529E+01)
 number of electron     303.0000022 magnetization       0.1392328
 augmentation part       12.5071637 magnetization       0.0422304

 Broyden mixing:
  rms(total) = 0.22387E+01    rms(broyden)= 0.22384E+01
  rms(prec ) = 0.25832E+01
  weight for this iteration     100.00

 eigenvalues of (default mixing * dielectric matrix)
  average eigenvalue GAMMA=   1.2151
  2.7705  0.3134  0.5614

 Free energy of the ion-electron system (eV)
  ---------------------------------------------------
  alpha Z        PSCENC =       167.43892633
  Ewald energy   TEWEN  =     30997.32819819
  -Hartree energ DENC   =    -41508.47896820
  -exchange      EXHF   =         0.00000000
  -V(xc)+E(xc)   XCENC  =      1052.38547435
  PAW double counting   =     19072.12501713   -19171.62328433
  entropy T*S    EENTRO =         0.00000000
  eigenvalues    EBANDS =     -3923.51580868
  atomic energy  EATOM  =     12644.75315347
  Solvation  Ediel_sol  =         0.00000000
  ---------------------------------------------------
  free energy    TOTEN  =      -669.58729173 eV

  energy without entropy =     -669.58729173  energy(sigma->0) =     -669.58729173


--------------------------------------------------------------------------------------------------------




--------------------------------------- Iteration      1(   9)  ---------------------------------------


    POTLOK:  cpu time    0.1797: real time    0.1826
    SETDIJ:  cpu time    0.0108: real time    0.0108
     EDDAV:  cpu time   12.1587: real time   12.2855
 BZINTS: Fermi energy: -2.633489;303.000000 electrons
         Band energy:***********;  BLOECHL correction: -0.061395
       DOS:  cpu time    0.0112: real time    0.0112
    CHARGE:  cpu time    0.2001: real time    0.2018
    MIXING:  cpu time    0.0042: real time    0.0048
    --------------------------------------------
      LOOP:  cpu time   12.5647: real time   12.6967

 eigenvalue-minimisations  :  4592
 total energy-change (2. order) : 0.4715931E+01  (-0.2354498E+01)
 number of electron     303.0000023 magnetization       0.1109537
 augmentation part       14.1147915 magnetization      -0.0132334

 Broyden mixing:
  rms(total) = 0.13025E+01    rms(broyden)= 0.13018E+01
  rms(prec ) = 0.15115E+01
  weight for this iteration     100.00

 eigenvalues of (default mixing * dielectric matrix)
  average eigenvalue GAMMA=   1.2741
  3.2531  1.1108  0.3412  0.3912

 Free energy of the ion-electron system (eV)
  ---------------------------------------------------
  alpha Z        PSCENC =       167.43892633
  Ewald energy   TEWEN  =     30997.32819819
  -Hartree energ DENC   =    -41895.58171011
  -exchange      EXHF   =         0.00000000
  -V(xc)+E(xc)   XCENC  =      1066.65123581
  PAW double counting   =     26838.12410516   -26940.81776277
  entropy T*S    EENTRO =         0.00000000
  eigenvalues    EBANDS =     -3542.76750730
  atomic energy  EATOM  =     12644.75315347
  Solvation  Ediel_sol  =         0.00000000
  ---------------------------------------------------
  free energy    TOTEN  =      -664.87136121 eV

  energy without entropy =     -664.87136121  energy(sigma->0) =     -664.87136121


--------------------------------------------------------------------------------------------------------




--------------------------------------- Iteration      1(  10)  ---------------------------------------


    POTLOK:  cpu time    0.1437: real time    0.1461
    SETDIJ:  cpu time    0.0103: real time    0.0104
     EDDAV:  cpu time   13.3325: real time   13.4885
 BZINTS: Fermi energy: -2.098908;303.000000 electrons
         Band energy:***********;  BLOECHL correction: -0.009625
       DOS:  cpu time    0.0120: real time    0.0121
    CHARGE:  cpu time    0.1618: real time    0.1622
    MIXING:  cpu time    0.0035: real time    0.0035
    --------------------------------------------
      LOOP:  cpu time   13.6639: real time   13.8228

 eigenvalue-minimisations  :  5200
 total energy-change (2. order) : 0.4875601E+00  (-0.6449029E+00)
 number of electron     303.0000022 magnetization       0.3573708
 augmentation part       12.9921239 magnetization       0.0851330

 Broyden mixing:
  rms(total) = 0.71078E+00    rms(broyden)= 0.71042E+00
  rms(prec ) = 0.79705E+00
  weight for this iteration     100.00

 eigenvalues of (default mixing * dielectric matrix)
  average eigenvalue GAMMA=   1.3541
  3.6077  1.6886  0.7560  0.3591  0.3591

 Free energy of the ion-electron system (eV)
  ---------------------------------------------------
  alpha Z        PSCENC =       167.43892633
  Ewald energy   TEWEN  =     30997.32819819
  -Hartree energ DENC   =    -41893.84116976
  -exchange      EXHF   =         0.00000000
  -V(xc)+E(xc)   XCENC  =      1066.64584587
  PAW double counting   =     28837.01772016   -28939.81632735
  entropy T*S    EENTRO =         0.00000000
  eigenvalues    EBANDS =     -3543.91014805
  atomic energy  EATOM  =     12644.75315347
  Solvation  Ediel_sol  =         0.00000000
  ---------------------------------------------------
  free energy    TOTEN  =      -664.38380113 eV

  energy without entropy =     -664.38380113  energy(sigma->0) =     -664.38380113


--------------------------------------------------------------------------------------------------------




--------------------------------------- Iteration      1(  11)  ---------------------------------------


    POTLOK:  cpu time    0.1467: real time    0.1489
    SETDIJ:  cpu time    0.0099: real time    0.0100
     EDDAV:  cpu time   12.0671: real time   12.1493
 BZINTS: Fermi energy: -2.071705;303.000000 electrons
         Band energy:***********;  BLOECHL correction:  0.000000
       DOS:  cpu time    0.0053: real time    0.0053
    CHARGE:  cpu time    0.1664: real time    0.1674
    MIXING:  cpu time    0.0038: real time    0.0038
    --------------------------------------------
      LOOP:  cpu time   12.3993: real time   12.4847

 eigenvalue-minimisations  :  4536
 total energy-change (2. order) : 0.1580857E+00  (-0.7637941E-01)
 number of electron     303.0000023 magnetization       1.0084477
 augmentation part       13.0411097 magnetization       0.3237747

 Broyden mixing:
  rms(total) = 0.55165E+00    rms(broyden)= 0.55142E+00
  rms(prec ) = 0.63825E+00
  weight for this iteration     100.00

 eigenvalues of (default mixing * dielectric matrix)
  average eigenvalue GAMMA=   1.2368
  3.6136  1.9603  0.3401  0.5418  0.5418  0.4230

 Free energy of the ion-electron system (eV)
  ---------------------------------------------------
  alpha Z        PSCENC =       167.43892633
  Ewald energy   TEWEN  =     30997.32819819
  -Hartree energ DENC   =    -41859.15625021
  -exchange      EXHF   =         0.00000000
  -V(xc)+E(xc)   XCENC  =      1065.96693516
  PAW double counting   =     30731.66694868   -30833.92564424
  entropy T*S    EENTRO =         0.00000000
  eigenvalues    EBANDS =     -3578.29798286
  atomic energy  EATOM  =     12644.75315347
  Solvation  Ediel_sol  =         0.00000000
  ---------------------------------------------------
  free energy    TOTEN  =      -664.22571547 eV

  energy without entropy =     -664.22571547  energy(sigma->0) =     -664.22571547


--------------------------------------------------------------------------------------------------------




--------------------------------------- Iteration      1(  12)  ---------------------------------------


    POTLOK:  cpu time    0.1448: real time    0.1472
    SETDIJ:  cpu time    0.0109: real time    0.0116
     EDDAV:  cpu time   12.1319: real time   12.2400
 BZINTS: Fermi energy: -2.222055;303.000000 electrons
         Band energy:***********;  BLOECHL correction:  0.000000
       DOS:  cpu time    0.0082: real time    0.0082
    CHARGE:  cpu time    0.1627: real time    0.1646
    MIXING:  cpu time    0.0036: real time    0.0036
    --------------------------------------------
      LOOP:  cpu time   12.4621: real time   12.5752

 eigenvalue-minimisations  :  4584
 total energy-change (2. order) : 0.1070843E+00  (-0.3875972E-01)
 number of electron     303.0000023 magnetization       0.8974681
 augmentation part       13.2490453 magnetization       0.3176967

 Broyden mixing:
  rms(total) = 0.30985E+00    rms(broyden)= 0.30974E+00
  rms(prec ) = 0.33435E+00
  weight for this iteration     100.00

 eigenvalues of (default mixing * dielectric matrix)
  average eigenvalue GAMMA=   1.3409
  3.7684  2.3645  0.8433  0.8433  0.8375  0.3488  0.3809

 Free energy of the ion-electron system (eV)
  ---------------------------------------------------
  alpha Z        PSCENC =       167.43892633
  Ewald energy   TEWEN  =     30997.32819819
  -Hartree energ DENC   =    -41817.49387777
  -exchange      EXHF   =         0.00000000
  -V(xc)+E(xc)   XCENC  =      1064.70692175
  PAW double counting   =     31583.03269943   -31684.74421599
  entropy T*S    EENTRO =         0.00000000
  eigenvalues    EBANDS =     -3619.14043662
  atomic energy  EATOM  =     12644.75315347
  Solvation  Ediel_sol  =         0.00000000
  ---------------------------------------------------
  free energy    TOTEN  =      -664.11863121 eV

  energy without entropy =     -664.11863121  energy(sigma->0) =     -664.11863121


--------------------------------------------------------------------------------------------------------




--------------------------------------- Iteration      1(  13)  ---------------------------------------


    POTLOK:  cpu time    0.1374: real time    0.1396
    SETDIJ:  cpu time    0.0087: real time    0.0087
     EDDAV:  cpu time   13.2480: real time   13.4301
 BZINTS: Fermi energy: -2.267067;303.000000 electrons
         Band energy:***********;  BLOECHL correction:  0.000000
       DOS:  cpu time    0.0090: real time    0.0090
    CHARGE:  cpu time    0.1637: real time    0.1653
    MIXING:  cpu time    0.0041: real time    0.0041
    --------------------------------------------
      LOOP:  cpu time   13.5708: real time   13.7569

 eigenvalue-minimisations  :  5112
 total energy-change (2. order) : 0.8292176E-02  (-0.1313172E-01)
 number of electron     303.0000023 magnetization       0.9310867
 augmentation part       13.3835727 magnetization       0.4164334

 Broyden mixing:
  rms(total) = 0.21961E+00    rms(broyden)= 0.21954E+00
  rms(prec ) = 0.22139E+00
  weight for this iteration     100.00

 eigenvalues of (default mixing * dielectric matrix)
  average eigenvalue GAMMA=   1.3819
  3.7594  2.3550  1.5799  1.1698  0.3490  0.3801  0.7309  0.7309

 Free energy of the ion-electron system (eV)
  ---------------------------------------------------
  alpha Z        PSCENC =       167.43892633
  Ewald energy   TEWEN  =     30997.32819819
  -Hartree energ DENC   =    -41807.11550571
  -exchange      EXHF   =         0.00000000
  -V(xc)+E(xc)   XCENC  =      1064.40155819
  PAW double counting   =     31955.39990348   -32056.91372667
  entropy T*S    EENTRO =         0.00000000
  eigenvalues    EBANDS =     -3629.40284631
  atomic energy  EATOM  =     12644.75315347
  Solvation  Ediel_sol  =         0.00000000
  ---------------------------------------------------
  free energy    TOTEN  =      -664.11033903 eV

  energy without entropy =     -664.11033903  energy(sigma->0) =     -664.11033903


--------------------------------------------------------------------------------------------------------




--------------------------------------- Iteration      1(  14)  ---------------------------------------


    POTLOK:  cpu time    0.1452: real time    0.1474
    SETDIJ:  cpu time    0.0100: real time    0.0104
     EDDAV:  cpu time   12.3413: real time   12.4233
 BZINTS: Fermi energy: -2.267067;303.000000 electrons
         Band energy:***********;  BLOECHL correction:  0.000000
       DOS:  cpu time    0.0092: real time    0.0094
    CHARGE:  cpu time    0.1991: real time    0.2006
    MIXING:  cpu time    0.0043: real time    0.0043
    --------------------------------------------
      LOOP:  cpu time   12.7092: real time   12.7955

 eigenvalue-minimisations  :  4600
 total energy-change (2. order) :-0.7102942E-02  (-0.4313749E-02)
 number of electron     303.0000023 magnetization       0.9604409
 augmentation part       13.3815866 magnetization       0.4773806

 Broyden mixing:
  rms(total) = 0.16308E+00    rms(broyden)= 0.16306E+00
  rms(prec ) = 0.16501E+00
  weight for this iteration     100.00

 eigenvalues of (default mixing * dielectric matrix)
  average eigenvalue GAMMA=   1.3770
  3.6756  2.2884  2.2884  1.0628  0.3489  0.3803  0.8044  0.7722  0.7722

 Free energy of the ion-electron system (eV)
  ---------------------------------------------------
  alpha Z        PSCENC =       167.43892633
  Ewald energy   TEWEN  =     30997.32819819
  -Hartree energ DENC   =    -41810.18990630
  -exchange      EXHF   =         0.00000000
  -V(xc)+E(xc)   XCENC  =      1064.50416257
  PAW double counting   =     31970.89289954   -32072.38904336
  entropy T*S    EENTRO =         0.00000000
  eigenvalues    EBANDS =     -3626.45583242
  atomic energy  EATOM  =     12644.75315347
  Solvation  Ediel_sol  =         0.00000000
  ---------------------------------------------------
  free energy    TOTEN  =      -664.11744197 eV

  energy without entropy =     -664.11744197  energy(sigma->0) =     -664.11744197


--------------------------------------------------------------------------------------------------------




--------------------------------------- Iteration      1(  15)  ---------------------------------------


    POTLOK:  cpu time    0.1468: real time    0.1495
    SETDIJ:  cpu time    0.0106: real time    0.0106
     EDDAV:  cpu time   12.6194: real time   12.7704
 BZINTS: Fermi energy: -2.267067;303.000000 electrons
         Band energy:***********;  BLOECHL correction:  0.000000
       DOS:  cpu time    0.0091: real time    0.0092
    CHARGE:  cpu time    0.1616: real time    0.1620
    MIXING:  cpu time    0.0045: real time    0.0045
    --------------------------------------------
      LOOP:  cpu time   12.9520: real time   13.1061

 eigenvalue-minimisations  :  4832
 total energy-change (2. order) :-0.1558495E-02  (-0.5028141E-03)
 number of electron     303.0000023 magnetization       0.9940894
 augmentation part       13.3814872 magnetization       0.5318021

 Broyden mixing:
  rms(total) = 0.12370E+00    rms(broyden)= 0.12369E+00
  rms(prec ) = 0.12566E+00
  weight for this iteration     100.00

 eigenvalues of (default mixing * dielectric matrix)
  average eigenvalue GAMMA=   1.4182
  3.6907  2.4369  2.4369  1.5254  0.3489  0.3802  0.8791  0.8791  0.8023  0.8023

 Free energy of the ion-electron system (eV)
  ---------------------------------------------------
  alpha Z        PSCENC =       167.43892633
  Ewald energy   TEWEN  =     30997.32819819
  -Hartree energ DENC   =    -41810.66646382
  -exchange      EXHF   =         0.00000000
  -V(xc)+E(xc)   XCENC  =      1064.51688532
  PAW double counting   =     31950.13636073   -32051.57607159
  entropy T*S    EENTRO =         0.00000000
  eigenvalues    EBANDS =     -3626.04998911
  atomic energy  EATOM  =     12644.75315347
  Solvation  Ediel_sol  =         0.00000000
  ---------------------------------------------------
  free energy    TOTEN  =      -664.11900047 eV

  energy without entropy =     -664.11900047  energy(sigma->0) =     -664.11900047


--------------------------------------------------------------------------------------------------------




--------------------------------------- Iteration      1(  16)  ---------------------------------------


    POTLOK:  cpu time    0.1480: real time    0.1504
    SETDIJ:  cpu time    0.0088: real time    0.0088
     EDDAV:  cpu time   12.3536: real time   12.5174
 BZINTS: Fermi energy: -2.272068;303.000000 electrons
         Band energy:***********;  BLOECHL correction:  0.000000
       DOS:  cpu time    0.0090: real time    0.0091
    CHARGE:  cpu time    0.1968: real time    0.2013
    MIXING:  cpu time    0.0045: real time    0.0054
    --------------------------------------------
      LOOP:  cpu time   12.7208: real time   12.8924

 eigenvalue-minimisations  :  4688
 total energy-change (2. order) : 0.7503371E-04  (-0.3417375E-03)
 number of electron     303.0000023 magnetization       0.9942202
 augmentation part       13.3764659 magnetization       0.5465005

 Broyden mixing:
  rms(total) = 0.82072E-01    rms(broyden)= 0.82068E-01
  rms(prec ) = 0.83181E-01
  weight for this iteration     100.00

 eigenvalues of (default mixing * dielectric matrix)
  average eigenvalue GAMMA=   1.4762
  3.6121  2.7441  2.7441  1.9886  0.3489  0.3802  1.0225  0.9274  0.9274  0.7714
  0.7714

 Free energy of the ion-electron system (eV)
  ---------------------------------------------------
  alpha Z        PSCENC =       167.43892633
  Ewald energy   TEWEN  =     30997.32819819
  -Hartree energ DENC   =    -41810.22790405
  -exchange      EXHF   =         0.00000000
  -V(xc)+E(xc)   XCENC  =      1064.51314572
  PAW double counting   =     31971.29470269   -32072.65351152
  entropy T*S    EENTRO =         0.00000000
  eigenvalues    EBANDS =     -3626.56563627
  atomic energy  EATOM  =     12644.75315347
  Solvation  Ediel_sol  =         0.00000000
  ---------------------------------------------------
  free energy    TOTEN  =      -664.11892543 eV

[...]
   0.220E+02 -.897E+01 0.158E+02   -.223E+02 0.941E+01 -.158E+02   0.405E+00 -.412E+00 0.122E-01   0.576E-02 -.928E-02 -.766E-02
   0.544E+02 0.191E+02 0.312E+02   -.517E+02 -.194E+02 -.310E+02   -.262E+01 0.359E+00 -.124E+00   -.169E-01 -.534E-01 -.474E-01
   0.417E+02 -.506E+02 0.251E+02   -.397E+02 0.569E+02 -.250E+02   -.184E+01 -.635E+01 -.729E-01   -.418E-01 -.128E-01 -.403E-01
   -.582E+02 0.144E+02 0.511E+02   0.585E+02 -.150E+02 -.527E+02   -.285E+00 0.694E+00 0.167E+01   0.356E-01 -.612E-01 -.444E-01
   -.560E+02 -.201E+02 0.524E+02   0.559E+02 0.211E+02 -.537E+02   0.410E-01 -.990E+00 0.129E+01   0.642E-01 0.265E-02 -.503E-01
   -.154E+02 0.227E+01 0.508E+01   0.154E+02 -.230E+01 -.494E+01   -.127E-01 0.306E-01 -.126E+00   -.180E-01 -.311E-03 -.118E-01
   -.151E+02 -.379E+01 0.447E+01   0.151E+02 0.379E+01 -.425E+01   0.643E-01 -.484E-03 -.215E+00   -.900E-02 -.782E-02 -.119E-01
   -.584E+01 -.545E+01 0.122E+02   0.578E+01 0.548E+01 -.123E+02   0.675E-01 0.417E-01 0.893E-01   -.541E-02 -.219E-02 -.551E-02
   -.429E+01 -.459E+01 0.128E+02   0.427E+01 0.465E+01 -.128E+02   0.569E-01 -.383E-01 -.126E-01   -.501E-02 -.563E-02 -.480E-02
   0.109E+02 -.738E+01 0.158E+02   -.111E+02 0.765E+01 -.158E+02   0.238E+00 -.203E+00 0.974E-01   0.347E-02 -.613E-02 -.477E-02
   0.579E+01 -.697E+01 0.137E+02   -.573E+01 0.716E+01 -.137E+02   -.385E-01 -.163E+00 -.779E-02   -.142E-02 -.103E-01 -.435E-02
   0.266E+02 -.235E+02 0.193E+02   -.270E+02 0.242E+02 -.195E+02   0.288E+00 -.623E+00 0.223E+00   -.157E-02 -.168E-01 -.133E-01
   0.133E+02 -.203E+02 0.996E+01   -.130E+02 0.209E+02 -.983E+01   -.339E+00 -.529E+00 -.150E+00   -.294E-02 -.118E-01 -.921E-02
   0.724E+01 -.681E+02 0.133E+02   0.267E+00 0.643E+02 -.114E+02   -.731E+01 0.365E+01 -.177E+01   -.129E+00 0.865E-01 -.820E-01
   0.481E+01 -.327E+02 0.888E+01   -.448E+01 0.316E+02 -.893E+01   -.286E+00 0.109E+01 0.370E-01   -.247E-01 0.622E-02 -.251E-01
   -.405E+01 -.610E+02 0.121E+03   -.327E+01 0.578E+02 -.122E+03   0.722E+01 0.303E+01 0.102E+01   0.115E+00 0.102E+00 -.106E+00
   -.558E+01 -.401E+02 0.489E+02   0.525E+01 0.396E+02 -.488E+02   0.345E+00 0.507E+00 -.226E-01   0.240E-01 0.441E-02 -.314E-01
   -.255E+02 -.120E+02 0.843E+01   0.255E+02 0.120E+02 -.813E+01   0.664E-01 0.377E-02 -.278E+00   0.170E-02 -.134E-01 -.204E-01
   -.137E+02 -.161E+02 0.169E+02   0.134E+02 0.162E+02 -.170E+02   0.215E+00 -.449E-01 0.425E-01   0.582E-02 -.789E-02 -.114E-01
   -.585E+01 -.523E+01 0.134E+02   0.582E+01 0.527E+01 -.134E+02   0.835E-01 -.343E-01 0.177E-01   0.428E-03 -.655E-02 -.584E-02
   -.282E+01 -.239E+01 0.128E+02   0.282E+01 0.240E+01 -.128E+02   -.254E-04 -.284E-01 0.427E-01   0.288E-02 -.338E-03 -.482E-02
   0.712E+00 -.194E+01 0.140E+02   -.705E+00 0.201E+01 -.140E+02   -.123E-01 -.118E+00 0.271E-01   -.509E-02 -.552E-02 -.389E-02
   0.294E+00 0.725E+00 0.139E+02   -.276E+00 -.677E+00 -.138E+02   -.264E-01 -.992E-01 0.518E-02   -.558E-02 0.764E-02 -.392E-02
   0.563E+01 -.735E+01 0.106E+02   -.557E+01 0.741E+01 -.106E+02   -.140E+00 -.116E+00 -.885E-02   -.151E-02 -.947E-02 -.520E-02
   0.368E+01 -.390E+01 0.109E+02   -.366E+01 0.399E+01 -.109E+02   0.126E-02 -.129E+00 0.260E-01   -.441E-02 0.526E-03 -.460E-02
   0.375E+01 -.205E+02 0.111E+02   -.306E+01 0.202E+02 -.112E+02   -.716E+00 0.262E+00 0.699E-01   -.657E-02 -.719E-02 -.117E-01
   0.448E+01 -.908E+01 0.107E+02   -.433E+01 0.894E+01 -.108E+02   -.876E-01 0.203E+00 0.101E+00   -.480E-02 -.634E-02 -.679E-02
   0.441E+01 -.242E+02 0.184E+02   -.471E+01 0.235E+02 -.181E+02   0.247E+00 0.695E+00 -.219E+00   -.179E-02 0.135E-01 -.212E-01
   -.147E+01 -.159E+02 0.127E+02   0.140E+01 0.155E+02 -.127E+02   0.591E-01 0.470E+00 -.313E-01   0.245E-02 0.561E-03 -.990E-02
   -.717E+01 -.173E+02 0.292E+02   0.674E+01 0.171E+02 -.294E+02   0.452E+00 0.142E+00 0.159E+00   0.148E-01 -.672E-02 -.130E-01
   -.469E+01 -.115E+02 0.155E+02   0.462E+01 0.115E+02 -.155E+02   0.824E-01 0.809E-01 0.753E-02   0.852E-02 -.174E-02 -.767E-02
   -.655E+02 -.896E+02 -.284E+03   0.563E+02 0.882E+02 0.278E+03   0.925E+01 0.169E+01 0.643E+01   0.378E-01 -.165E+00 -.399E+00
   -.265E+02 -.202E+01 -.273E+03   0.310E+02 0.560E+01 0.255E+03   -.458E+01 -.351E+01 0.179E+02   -.452E-01 -.652E-01 0.140E+00
   0.510E+02 0.487E+02 -.687E+03   -.636E+02 -.584E+02 0.743E+03   0.126E+02 0.970E+01 -.565E+02   -.229E-01 -.289E-01 0.427E-01
 -----------------------------------------------------------------------------------------------
   -.140E+02 -.786E+01 0.332E+02   -.284E-13 -.384E-12 -.341E-12   0.141E+02 0.804E+01 -.318E+02   -.281E-01 -.185E+00 -.138E+01
 
 
 POSITION                                       TOTAL-FORCE (eV/Angst)
 -----------------------------------------------------------------------------------
      0.01161      0.01601      7.37047        -0.033511      0.032712     -0.025635
      0.01264      1.43765      7.39506        -0.003974      0.049035     -0.039492
      2.48601      0.03305      7.36618         0.028783     -0.043111      0.023859
      2.48502      1.45544      7.40579        -0.009178     -0.028206     -0.001862
      4.95996      0.02744      7.36289        -0.030851     -0.033064      0.016101
      4.95544      1.44936      7.37694         0.058070     -0.022875      0.020969
      0.01361     12.73280      7.38572        -0.028157      0.007733     -0.034210
      7.43999      1.41637      7.37807         0.017523     -0.009968     -0.026920
      2.48286     12.71858      7.38786         0.002923      0.020059      0.009779
      9.91295      1.40399      7.36905         0.037535      0.003986      0.002668
      4.95717     12.72830      7.35652        -0.022007      0.052600      0.016636
     12.38802      1.41298      7.36028         0.034225     -0.010364      0.024268
     -1.23187      2.12698      7.38413        -0.074272      0.002464      0.027395
     -1.23657      3.54925      7.40791         0.033894     -0.074125      0.001111
      1.25085      2.16284      7.42369        -0.017465      0.013258     -0.003597
      1.25374      3.58914      7.47968        -0.007456      0.040323      0.011198
      3.71718      2.17412      7.41642        -0.064223     -0.033184     -0.039950
      3.71104      3.59718      7.46686        -0.029008      0.074244      0.031123
      6.20235      2.13442      7.37567         0.023539      0.007424      0.003068
      6.20305      3.55362      7.37695         0.064468      0.014545      0.031396
      8.68001      2.11795      7.36992        -0.026772      0.004358      0.011939
      8.68137      3.53930      7.37428         0.032577     -0.045455      0.008850
     11.14900      2.11782      7.36167         0.006569     -0.020869      0.003738
     11.14933      3.53721      7.36365        -0.013868     -0.021347     -0.000239
     -2.47424      4.24283      7.37842         0.002322      0.031715      0.040645
     -2.47637      5.65964      7.38263         0.028178     -0.003430      0.031976
     -0.00012      4.26694      7.46913         0.002054      0.008427     -0.036719
     -0.02043      5.67637      7.48278        -0.006349     -0.060192      0.002541
      2.47612      4.34301      7.54830         0.004958     -0.006165     -0.017762
      2.44896      5.78365      7.69201        -0.025988     -0.044379     -0.004643
      4.96519      4.27446      7.40821        -0.011157      0.048120      0.004650
      4.99124      5.67433      7.44326         0.083770     -0.022604     -0.059221
      7.44893      4.24991      7.39432        -0.100201      0.002972     -0.028299
      7.46123      5.66842      7.42689         0.022279     -0.021867     -0.011461
      9.91770      4.24717      7.36953        -0.028664      0.013809      0.007138
      9.92132      5.67000      7.37744        -0.022153     -0.046423      0.022993
     -3.70553      6.37283      7.37316        -0.049958     -0.025262     -0.022731
     -3.70990      7.79076      7.36823        -0.024610      0.067999     -0.026963
     -1.25030      6.37750      7.42115         0.048906     -0.028993     -0.004049
     -1.26144      7.79389      7.41138         0.081149      0.013640      0.000641
      1.17751      6.37497      7.56819         0.056393      0.055657      0.028165
      1.18961      7.77865      7.54961         0.058996     -0.060947      0.000209
      6.23007      6.37065      7.41000         0.028681     -0.015766     -0.017056
      6.22958      7.81050      7.38345         0.022865      0.019340      0.004100
      8.69424      6.37982      7.40803        -0.048397      0.004318      0.003336
      8.69227      7.80055      7.40200         0.031162     -0.010407     -0.007742
     -4.93839      8.50219      7.36671         0.003407      0.069684      0.028832
     -4.94166      9.92668      7.35340         0.034158      0.014924      0.013548
     -2.48106      8.50414      7.37206        -0.034839      0.066998      0.032157
     -2.47274      9.92633      7.36538         0.019562      0.013586      0.013648
     -0.02516      8.48643      7.45213        -0.076902      0.046349     -0.001430
      0.00098      9.90620      7.43241        -0.027792     -0.007406     -0.023032
      2.44993      8.38937      7.65243         0.067627     -0.041191      0.049609
      2.48387      9.82933      7.51002         0.040028      0.018958     -0.031997
      4.99445      8.49763      7.33773         0.001285     -0.021185     -0.070791
      4.96580      9.89488      7.34519         0.028403     -0.016227      0.002790
      7.46429      8.51314      7.40323        -0.005097     -0.020786      0.006712
      7.44762      9.92937      7.36082        -0.033734      0.006681     -0.037024
     -6.17575     10.63551      7.35345         0.058824      0.003930     -0.005344
     -6.17726     12.05594      7.35776         0.001967     -0.013296      0.021699
     -3.70630     10.63947      7.35074        -0.010469     -0.053940      0.001833
     -3.70738     12.06078      7.35459        -0.013643     -0.043288      0.021253
     -1.23184     10.62580      7.38837        -0.075800     -0.065084     -0.024939
     -1.23346     12.04713      7.37562         0.018033     -0.040035      0.013504
      1.25536     10.57856      7.44251        -0.033583     -0.013781      0.044717
      1.24989     12.00794      7.39908         0.057924      0.047507      0.008520
      3.71150     10.57921      7.41928        -0.060941     -0.051203      0.051058
      3.71691     11.99883      7.38584        -0.008077      0.139082     -0.033693
      6.20334     10.62270      7.33624         0.037272     -0.006643      0.017472
      6.20288     12.04163      7.35281         0.011997      0.049696     -0.014134
      3.92583      7.09006      8.12109         0.014172      0.060455     -0.081507
      3.50288      6.61333      9.90227        -0.150832      0.010807      0.097042
      3.25151      6.41748     11.02505         0.003449     -0.054324     -0.082440
 -----------------------------------------------------------------------------------
    total drift:                                0.019935      0.000193      0.015750


--------------------------------------------------------------------------------------------------------



  FREE ENERGIE OF THE ION-ELECTRON SYSTEM (eV)
  ---------------------------------------------------
  free  energy   TOTEN  =      -670.69362956 eV

  energy  without entropy=     -670.69362956  energy(sigma->0) =     -670.69362956
 


--------------------------------------------------------------------------------------------------------


    POTLOK:  cpu time    0.1491: real time    0.1497


--------------------------------------------------------------------------------------------------------


 stress matrix after NEB project (eV)
     -7.07550     -0.06454     -0.27694
     -0.06454      2.27291     -0.11208
     -0.27694     -0.11208     -3.46639
  FORCES: max atom, RMS     0.179678    0.065599
  FORCE total and by dimension    0.560482    0.150832
  Stress total and by dimension    8.211667    7.075498
     LOOP+:  cpu time  243.9234: real time  247.2408
    4ORBIT:  cpu time    0.0000: real time    0.0000
 


 total charge     
 
# of ion       s       p       d       tot
------------------------------------------
    1        0.864   1.784   0.000   2.648
    2        0.864   1.780   0.000   2.644
    3        0.864   1.786   0.000   2.650
    4        0.866   1.785   0.000   2.651
    5        0.864   1.785   0.000   2.649
    6        0.864   1.781   0.000   2.645
    7        0.864   1.782   0.000   2.647
    8        0.864   1.783   0.000   2.647
    9        0.865   1.786   0.000   2.650
   10        0.865   1.783   0.000   2.647
   11        0.863   1.780   0.000   2.643
   12        0.864   1.779   0.000   2.643
   13        0.864   1.783   0.000   2.647
   14        0.865   1.785   0.000   2.650
   15        0.862   1.780   0.000   2.643
   16        0.863   1.768   0.000   2.631
   17        0.863   1.777   0.000   2.640
   18        0.863   1.766   0.000   2.629
   19        0.865   1.787   0.000   2.652
   20        0.865   1.779   0.000   2.644
   21        0.865   1.789   0.000   2.654
   22        0.866   1.788   0.000   2.654
   23        0.865   1.788   0.000   2.653
   24        0.866   1.789   0.000   2.655
   25        0.866   1.797   0.000   2.662
   26        0.867   1.795   0.000   2.661
   27        0.864   1.800   0.000   2.664
   28        0.861   1.772   0.000   2.633
   29        0.855   1.749   0.000   2.604
   30        0.866   1.584   0.000   2.451
   31        0.867   1.787   0.000   2.654
   32        0.885   1.700   0.000   2.585
   33        0.866   1.789   0.000   2.655
   34        0.868   1.792   0.000   2.661
   35        0.865   1.790   0.000   2.656
   36        0.867   1.792   0.000   2.659
   37        0.867   1.796   0.000   2.662
   38        0.868   1.795   0.000   2.663
   39        0.866   1.806   0.000   2.672
   40        0.870   1.801   0.000   2.671
   41        1.223   2.713   0.000   3.937
   42        0.868   1.763   0.000   2.631
   43        0.867   1.778   0.000   2.645
   44        0.870   1.772   0.000   2.642
   45        0.866   1.795   0.000   2.661
   46        0.868   1.794   0.000   2.662
   47        0.867   1.795   0.000   2.662
   48        0.866   1.783   0.000   2.649
   49        0.867   1.801   0.000   2.668
   50        0.865   1.786   0.000   2.652
   51        0.869   1.807   0.000   2.676
   52        0.865   1.789   0.000   2.653
   53        0.866   1.663   0.000   2.529
   54        0.856   1.738   0.000   2.594
   55        0.881   1.717   0.000   2.599
   56        0.868   1.779   0.000   2.647
   57        0.869   1.797   0.000   2.666
   58        0.867   1.786   0.000   2.654
   59        0.865   1.790   0.000   2.655
   60        0.866   1.786   0.000   2.652
   61        0.865   1.788   0.000   2.653
   62        0.865   1.787   0.000   2.652
   63        0.865   1.785   0.000   2.650
   64        0.865   1.785   0.000   2.650
   65        0.863   1.771   0.000   2.633
   66        0.863   1.776   0.000   2.639
   67        0.864   1.772   0.000   2.637
   68        0.863   1.774   0.000   2.637
   69        0.865   1.781   0.000   2.646
   70        0.865   1.784   0.000   2.650
   71        0.421   6.479   4.345  11.245
   72        0.980   1.545   0.000   2.525
   73        1.626   3.526   0.000   5.152
--------------------------------------------------
tot         63.980 136.906   4.345 205.231
 


 magnetization (x)
 
# of ion       s       p       d       tot
------------------------------------------
    1        0.000   0.003   0.000   0.004
    2       -0.000  -0.003   0.000  -0.003
    3        0.000   0.006   0.000   0.006
    4       -0.000  -0.005   0.000  -0.006
    5        0.000   0.003   0.000   0.004
    6       -0.000  -0.006   0.000  -0.007
    7        0.000   0.003   0.000   0.004
    8       -0.000  -0.003   0.000  -0.004
    9        0.000   0.006   0.000   0.006
   10       -0.000  -0.003   0.000  -0.004
   11        0.000   0.007   0.000   0.007
   12       -0.000  -0.005   0.000  -0.005
   13        0.000   0.007   0.000   0.008
   14       -0.000  -0.003   0.000  -0.004
   15        0.000   0.005   0.000   0.005
   16       -0.001  -0.006   0.000  -0.006
   17        0.000   0.005   0.000   0.006
   18       -0.001  -0.013   0.000  -0.014
   19        0.000   0.006   0.000   0.007
   20       -0.001  -0.007   0.000  -0.008
   21        0.000   0.005   0.000   0.005
   22       -0.001  -0.006   0.000  -0.007
   23        0.000   0.007   0.000   0.007
   24       -0.000  -0.003   0.000  -0.004
   25        0.000   0.002   0.000   0.003
   26       -0.000  -0.004   0.000  -0.005
   27        0.000   0.002   0.000   0.002
   28       -0.000  -0.002   0.000  -0.002
   29        0.001   0.012   0.000   0.013
   30       -0.006  -0.034   0.000  -0.040
   31        0.002   0.019   0.000   0.021
   32       -0.007  -0.042   0.000  -0.049
   33        0.001   0.013   0.000   0.014
   34       -0.000  -0.006   0.000  -0.006
   35        0.001   0.009   0.000   0.009
   36       -0.000  -0.004   0.000  -0.004
   37        0.000   0.003   0.000   0.004
   38       -0.000  -0.003   0.000  -0.003
   39        0.000   0.005   0.000   0.006
   40       -0.000  -0.003   0.000  -0.003
   41        0.001   0.003   0.000   0.004
   42        0.000  -0.003   0.000  -0.002
   43        0.002   0.022   0.000   0.024
   44        0.000  -0.006   0.000  -0.006
   45        0.000   0.003   0.000   0.003
   46       -0.000  -0.006   0.000  -0.007
   47        0.000   0.007   0.000   0.007
   48       -0.000  -0.004   0.000  -0.005
   49        0.000   0.003   0.000   0.003
   50       -0.000  -0.006   0.000  -0.006
   51        0.000   0.002   0.000   0.002
   52       -0.000  -0.002   0.000  -0.003
   53       -0.004  -0.009   0.000  -0.014
   54       -0.000  -0.001   0.000  -0.001
   55       -0.002   0.002   0.000  -0.000
   56        0.000   0.001   0.000   0.001
   57        0.001   0.004   0.000   0.005
   58       -0.000  -0.001   0.000  -0.001
   59        0.000   0.003   0.000   0.003
   60       -0.000  -0.003   0.000  -0.003
   61        0.000   0.003   0.000   0.004
   62       -0.000  -0.004   0.000  -0.004
   63        0.000   0.005   0.000   0.006
   64       -0.000  -0.003   0.000  -0.003
   65       -0.000   0.001   0.000   0.001
   66       -0.000  -0.004   0.000  -0.005
   67        0.001   0.009   0.000   0.010
   68       -0.000  -0.004   0.000  -0.004
   69        0.000   0.006   0.000   0.006
   70       -0.000  -0.003   0.000  -0.004
   71        0.007   0.013   0.842   0.862
   72       -0.003   0.010   0.000   0.008
   73        0.000   0.035   0.000   0.036
--------------------------------------------------
tot         -0.008   0.040   0.842   0.874
 
 BZINTS: Fermi energy: -2.272068;303.000000 electrons
         Band energy:***********;  BLOECHL correction:  0.000000

 total amount of memory used by VASP MPI-rank0   115989. kBytes
=======================================================================

   base      :      30000. kBytes
   nonl-proj :      27264. kBytes
   fftplans  :       4700. kBytes
   grid      :      15193. kBytes
   one-center:        217. kBytes
   wavefun   :      38615. kBytes
 
  
  
 General timing and accounting informations for this job:
 ========================================================
  
                  Total CPU time used (sec):      261.300
                            User time (sec):      253.144
                          System time (sec):        8.156
                         Elapsed time (sec):      273.370
  
                   Maximum memory used (kb):      472080.
                   Average memory used (kb):           0.
  
                          Minor page faults:      1398090
                          Major page faults:            0
                 Voluntary context switches:         9485
