       N       E                     dE             d eps       ncg     rms          rms(c)
DAV:   1     0.251081898181E+04    0.25108E+04   -0.11188E+05  4376   0.106E+03
DAV:   2    -0.244842060048E+03   -0.27557E+04   -0.26317E+04  5488   0.278E+02
DAV:   3    -0.702887024398E+03   -0.45804E+03   -0.45454E+03  4584   0.120E+02
DAV:   4    -0.719263167534E+03   -0.16376E+02   -0.16241E+02  4680   0.279E+01
DAV:   5    -0.719801427340E+03   -0.53826E+00   -0.53654E+00  5272   0.424E+00    0.477E+01
DAV:   6    -0.720361301948E+03   -0.55987E+00   -0.89383E+01  4848   0.277E+01    0.105E+02
DAV:   7    -0.683576866174E+03    0.36784E+02   -0.45296E+01  5208   0.371E+01    0.421E+01
DAV:   8    -0.679030760228E+03    0.45461E+01   -0.57018E+01  5448   0.354E+01    0.310E+01
DAV:   9    -0.662382013469E+03    0.16649E+02   -0.30569E+01  4640   0.161E+01    0.136E+01
DAV:  10    -0.661947221372E+03    0.43479E+00   -0.14762E+01  4856   0.115E+01    0.122E+01
DAV:  11    -0.661867575095E+03    0.79646E-01   -0.39288E+00  5000   0.517E+00    0.109E+01
DAV:  12    -0.661894787628E+03   -0.27213E-01   -0.91111E-01  4816   0.191E+00    0.827E+00
DAV:  13    -0.662050634833E+03   -0.15585E+00   -0.62039E-01  4440   0.184E+00    0.571E+00
DAV:  14    -0.662000481336E+03    0.50153E-01   -0.15701E-01  4632   0.898E-01    0.423E+00
DAV:  15    -0.661993510932E+03    0.69704E-02   -0.61355E-02  4760   0.609E-01    0.369E+00
DAV:  16    -0.661986906539E+03    0.66044E-02   -0.20138E-02  4840   0.317E-01    0.306E+00
DAV:  17    -0.661965975919E+03    0.20931E-01   -0.12083E-02  4952   0.312E-01    0.235E+00
DAV:  18    -0.661950643894E+03    0.15332E-01   -0.15790E-02  5184   0.372E-01    0.152E+00
DAV:  19    -0.661946461264E+03    0.41826E-02   -0.73770E-03  5024   0.225E-01    0.891E-01
DAV:  20    -0.661947287764E+03   -0.82650E-03   -0.16133E-03  4440   0.133E-01    0.830E-01
DAV:  21    -0.661946817031E+03    0.47073E-03   -0.43786E-04  3536   0.618E-02    0.665E-01
DAV:  22    -0.661945904301E+03    0.91273E-03   -0.67564E-04  3664   0.824E-02    0.409E-01
DAV:  23    -0.661945782139E+03    0.12216E-03   -0.18113E-04  3128   0.330E-02    0.296E-01
DAV:  24    -0.661945741870E+03    0.40269E-04   -0.10969E-04  3000   0.334E-02
   1 F= -.66837058E+03 E0= -.66837058E+03  d E =0.000000E+00  mag=    -1.0147
