 vasp.5.4.4.18Apr17-6-g9f103f2a35 (build Jan 14 2022 15:04:31) complex          
  
 executed on             LinuxIFC date 2023.01.27  22:54:36
 running on   48 total cores
 distrk:  each k-point on   48 cores,    1 groups
 distr:  one band on NCORES_PER_BAND=  12 cores,    4 groups


--------------------------------------------------------------------------------------------------------


 INCAR:
 POTCAR:    PAW_PBE C 08Apr2002                   
 POTCAR:    PAW_PBE N 08Apr2002                   
 POTCAR:    PAW_PBE C 08Apr2002                   
 POTCAR:    PAW_PBE Cr_pv 02Aug2007               
 POTCAR:    PAW_PBE C 08Apr2002                   
 POTCAR:    PAW_PBE O 08Apr2002                   
 POTCAR:    PAW_PBE C 08Apr2002                   
   SHA256 =  253f7b50bb8d59471dbedb8285d89021f4a42ed1a2c5d38a03a736e69125dd95 C/
   COPYR  = (c) Copyright 08Apr2002 Georg Kresse                                
   COPYR  = This file is part of the software VASP. Any use, copying, and all ot
   COPYR  = If you do not have a valid VASP license, you may not use, copy or di
   VRHFIN =C: s2p2                                                              
   LEXCH  = PE                                                                  
   EATOM  =   147.1560 eV,   10.8157 Ry                                         
                                                                                
   TITEL  = PAW_PBE C 08Apr2002                                                 
   LULTRA =        F    use ultrasoft PP ?                                      
   IUNSCR =        1    unscreen: 0-lin 1-nonlin 2-no                           
   RPACOR =    1.200    partial core radius                                     
   POMASS =   12.011; ZVAL   =    4.000    mass and valenz                      
   RCORE  =    1.500    outmost cutoff radius                                   
   RWIGS  =    1.630; RWIGS  =    0.863    wigner-seitz radius (au A)           
   ENMAX  =  400.000; ENMIN  =  300.000 eV                                      
   ICORE  =        2    local potential                                         
   LCOR   =        T    correct aug charges                                     
   LPAW   =        T    paw PP                                                  
   EAUG   =  644.873                                                            
   DEXC   =    0.000                                                            
   RMAX   =    1.529    core radius for proj-oper                               
   RAUG   =    1.300    factor for augmentation sphere                          
   RDEP   =    1.501    radius for radial grids                                 
   RDEPT  =    1.300    core radius for aug-charge                              
                                                                                
   Atomic configuration                                                         
    4 entries                                                                   
     n  l   j            E        occ.                                          
     1  0  0.50      -273.3789   2.0000                                         
     2  0  0.50       -13.7508   2.0000                                         
     2  1  0.50        -5.2854   2.0000                                         
     3  2  1.50        -5.4423   0.0000                                         
   Description                                                                  
     l       E           TYP  RCUT    TYP  RCUT                                 
     0    -13.7508458     23  1.200                                             
     0     -8.2022199     23  1.200                                             
     1     -5.2854383     23  1.500                                             
     1     34.0145650     23  1.500                                             
     2     -5.4423304      7  1.500                                             
  local pseudopotential read in
  partial core-charges read in
  partial kinetic energy density read in
  atomic valenz-charges read in
  non local Contribution for L=           0  read in
    real space projection operators read in
  non local Contribution for L=           0  read in
    real space projection operators read in
  non local Contribution for L=           1  read in
    real space projection operators read in
  non local Contribution for L=           1  read in
    real space projection operators read in
    PAW grid and wavefunctions read in
 
   number of l-projection  operators is LMAX  =           4
   number of lm-projection operators is LMMAX =           8
 
 POTCAR:    PAW_PBE N 08Apr2002                   
   SHA256 =  e053789ff3a61a86a1b75d8a110fcc91f86041011e7b0817c7c99e4e8a6349d7 N/
   COPYR  = (c) Copyright 08Apr2002 Georg Kresse                                
   COPYR  = This file is part of the software VASP. Any use, copying, and all ot
   COPYR  = If you do not have a valid VASP license, you may not use, copy or di
   VRHFIN =N: s2p3                                                              
   LEXCH  = PE                                                                  
   EATOM  =   264.5486 eV,   19.4438 Ry                                         
                                                                                
   TITEL  = PAW_PBE N 08Apr2002                                                 
   LULTRA =        F    use ultrasoft PP ?                                      
   IUNSCR =        1    unscreen: 0-lin 1-nonlin 2-no                           
   RPACOR =    1.200    partial core radius                                     
   POMASS =   14.001; ZVAL   =    5.000    mass and valenz                      
   RCORE  =    1.500    outmost cutoff radius                                   
   RWIGS  =    1.400; RWIGS  =    0.741    wigner-seitz radius (au A)           
   ENMAX  =  400.000; ENMIN  =  300.000 eV                                      
   ICORE  =        2    local potential                                         
   LCOR   =        T    correct aug charges                                     
   LPAW   =        T    paw PP                                                  
   EAUG   =  627.112                                                            
   DEXC   =    0.000                                                            
   RMAX   =    1.529    core radius for proj-oper                               
   RAUG   =    1.300    factor for augmentation sphere                          
   RDEP   =    1.514    radius for radial grids                                 
   RDEPT  =    1.338    core radius for aug-charge                              
                                                                                
   Atomic configuration                                                         
    4 entries                                                                   
     n  l   j            E        occ.                                          
     1  0  0.50      -384.7179   2.0000                                         
     2  0  0.50       -18.5828   2.0000                                         
     2  1  0.50        -7.0898   3.0000                                         
     3  2  1.50        -6.8029   0.0000                                         
   Description                                                                  
     l       E           TYP  RCUT    TYP  RCUT                                 
     0    -18.5828119     23  1.200                                             
     0    -13.5018863     23  1.200                                             
     1     -7.0897853     23  1.500                                             
     1      9.5240782     23  1.500                                             
     2     -6.8029130      7  1.500                                             
  local pseudopotential read in
  partial core-charges read in
  partial kinetic energy density read in
  atomic valenz-charges read in
  non local Contribution for L=           0  read in
    real space projection operators read in
  non local Contribution for L=           0  read in
    real space projection operators read in
  non local Contribution for L=           1  read in
    real space projection operators read in
  non local Contribution for L=           1  read in
    real space projection operators read in
    PAW grid and wavefunctions read in
 
   number of l-projection  operators is LMAX  =           4
   number of lm-projection operators is LMMAX =           8
 
 POTCAR:    PAW_PBE C 08Apr2002                   
   SHA256 =  253f7b50bb8d59471dbedb8285d89021f4a42ed1a2c5d38a03a736e69125dd95 C/
   COPYR  = (c) Copyright 08Apr2002 Georg Kresse                                
   COPYR  = This file is part of the software VASP. Any use, copying, and all ot
   COPYR  = If you do not have a valid VASP license, you may not use, copy or di
   VRHFIN =C: s2p2                                                              
   LEXCH  = PE                                                                  
   EATOM  =   147.1560 eV,   10.8157 Ry                                         
                                                                                
   TITEL  = PAW_PBE C 08Apr2002                                                 
   LULTRA =        F    use ultrasoft PP ?                                      
   IUNSCR =        1    unscreen: 0-lin 1-nonlin 2-no                           
   RPACOR =    1.200    partial core radius                                     
   POMASS =   12.011; ZVAL   =    4.000    mass and valenz                      
   RCORE  =    1.500    outmost cutoff radius                                   
   RWIGS  =    1.630; RWIGS  =    0.863    wigner-seitz radius (au A)           
   ENMAX  =  400.000; ENMIN  =  300.000 eV                                      
   ICORE  =        2    local potential                                         
   LCOR   =        T    correct aug charges                                     
   LPAW   =        T    paw PP                                                  
   EAUG   =  644.873                                                            
   DEXC   =    0.000                                                            
   RMAX   =    1.529    core radius for proj-oper                               
   RAUG   =    1.300    factor for augmentation sphere                          
   RDEP   =    1.501    radius for radial grids                                 
   RDEPT  =    1.300    core radius for aug-charge                              
                                                                                
   Atomic configuration                                                         
    4 entries                                                                   
     n  l   j            E        occ.                                          
     1  0  0.50      -273.3789   2.0000                                         
     2  0  0.50       -13.7508   2.0000                                         
     2  1  0.50        -5.2854   2.0000                                         
     3  2  1.50        -5.4423   0.0000                                         
   Description                                                                  
     l       E           TYP  RCUT    TYP  RCUT                                 
     0    -13.7508458     23  1.200                                             
     0     -8.2022199     23  1.200                                             
     1     -5.2854383     23  1.500                                             
     1     34.0145650     23  1.500                                             
     2     -5.4423304      7  1.500                                             
  local pseudopotential read in
  partial core-charges read in
  partial kinetic energy density read in
  atomic valenz-charges read in
  non local Contribution for L=           0  read in
    real space projection operators read in
  non local Contribution for L=           0  read in
    real space projection operators read in
  non local Contribution for L=           1  read in
    real space projection operators read in
  non local Contribution for L=           1  read in
    real space projection operators read in
    PAW grid and wavefunctions read in
 
   number of l-projection  operators is LMAX  =           4
   number of lm-projection operators is LMMAX =           8
 
 POTCAR:    PAW_PBE Cr_pv 02Aug2007               
   SHA256 =  c9a7df34d3cdbacf1090e328ef39c0b420964e11c23f63548d1ac9dd218cdba0 Cr
   COPYR  = (c) Copyright 02Aug2007 Georg Kresse                                
   COPYR  = This file is part of the software VASP. Any use, copying, and all ot
   COPYR  = If you do not have a valid VASP license, you may not use, copy or di
   VRHFIN =Cr : p6d5s1                                                          
   LEXCH  = PE                                                                  
   EATOM  =  1647.9177 eV,  121.1185 Ry                                         
                                                                                
   TITEL  = PAW_PBE Cr_pv 02Aug2007                                             
   LULTRA =        F    use ultrasoft PP ?                                      
   IUNSCR =        1    unscreen: 0-lin 1-nonlin 2-no                           
   RPACOR =    2.080    partial core radius                                     
   POMASS =   51.996; ZVAL   =   12.000    mass and valenz                      
   RCORE  =    2.300    outmost cutoff radius                                   
   RWIGS  =    2.500; RWIGS  =    1.323    wigner-seitz radius (au A)           
   ENMAX  =  265.681; ENMIN  =  199.261 eV                                      
   ICORE  =        3    local potential                                         
   LCOR   =        T    correct aug charges                                     
   LPAW   =        T    paw PP                                                  
   EAUG   =  519.424                                                            
   DEXC   =    0.000                                                            
   RMAX   =    2.356    core radius for proj-oper                               
   RAUG   =    1.300    factor for augmentation sphere                          
   RDEP   =    2.447    radius for radial grids                                 
   RDEPT  =    1.882    core radius for aug-charge                              
                                                                                
   Atomic configuration                                                         
    8 entries                                                                   
     n  l   j            E        occ.                                          
     1  0  0.50     -5880.4963   2.0000                                         
     2  0  0.50      -667.0865   2.0000                                         
     2  1  1.50      -560.6250   6.0000                                         
     3  0  0.50       -73.9860   2.0000                                         
     3  1  1.50       -45.4378   6.0000                                         
     3  2  2.50        -2.9137   5.0000                                         
     4  0  0.50        -4.0071   1.0000                                         
     4  3  2.50        -1.3606   0.0000                                         
   Description                                                                  
     l       E           TYP  RCUT    TYP  RCUT                                 
     1    -45.4377911     23  2.000                                             
     1      1.3605826     23  2.000                                             
     2     -2.9136672     23  2.300                                             
     2     -4.2742498     23  2.300                                             
     0     -4.0071320     23  2.300                                             
     0      9.4498803     23  2.300                                             
     3      2.7211652     23  2.300                                             
  local pseudopotential read in
  partial core-charges read in
  partial kinetic energy density read in
  atomic valenz-charges read in
  non local Contribution for L=           1  read in
    real space projection operators read in
  non local Contribution for L=           1  read in
    real space projection operators read in
  non local Contribution for L=           2  read in
    real space projection operators read in
  non local Contribution for L=           2  read in
    real space projection operators read in
  non local Contribution for L=           0  read in
    real space projection operators read in
  non local Contribution for L=           0  read in
    real space projection operators read in
    PAW grid and wavefunctions read in
 
   number of l-projection  operators is LMAX  =           6
   number of lm-projection operators is LMMAX =          18
 
 POTCAR:    PAW_PBE C 08Apr2002                   
   SHA256 =  253f7b50bb8d59471dbedb8285d89021f4a42ed1a2c5d38a03a736e69125dd95 C/
   COPYR  = (c) Copyright 08Apr2002 Georg Kresse                                
   COPYR  = This file is part of the software VASP. Any use, copying, and all ot
   COPYR  = If you do not have a valid VASP license, you may not use, copy or di
   VRHFIN =C: s2p2                                                              
   LEXCH  = PE                                                                  
   EATOM  =   147.1560 eV,   10.8157 Ry                                         
                                                                                
   TITEL  = PAW_PBE C 08Apr2002                                                 
   LULTRA =        F    use ultrasoft PP ?                                      
   IUNSCR =        1    unscreen: 0-lin 1-nonlin 2-no                           
   RPACOR =    1.200    partial core radius                                     
   POMASS =   12.011; ZVAL   =    4.000    mass and valenz                      
   RCORE  =    1.500    outmost cutoff radius                                   
   RWIGS  =    1.630; RWIGS  =    0.863    wigner-seitz radius (au A)           
   ENMAX  =  400.000; ENMIN  =  300.000 eV                                      
   ICORE  =        2    local potential                                         
   LCOR   =        T    correct aug charges                                     
   LPAW   =        T    paw PP                                                  
   EAUG   =  644.873                                                            
   DEXC   =    0.000                                                            
   RMAX   =    1.529    core radius for proj-oper                               
   RAUG   =    1.300    factor for augmentation sphere                          
   RDEP   =    1.501    radius for radial grids                                 
   RDEPT  =    1.300    core radius for aug-charge                              
                                                                                
   Atomic configuration                                                         
    4 entries                                                                   
     n  l   j            E        occ.                                          
     1  0  0.50      -273.3789   2.0000                                         
     2  0  0.50       -13.7508   2.0000                                         
     2  1  0.50        -5.2854   2.0000                                         
     3  2  1.50        -5.4423   0.0000                                         
   Description                                                                  
     l       E           TYP  RCUT    TYP  RCUT                                 
     0    -13.7508458     23  1.200                                             
     0     -8.2022199     23  1.200                                             
     1     -5.2854383     23  1.500                                             
     1     34.0145650     23  1.500                                             
     2     -5.4423304      7  1.500                                             
  local pseudopotential read in
  partial core-charges read in
  partial kinetic energy density read in
  atomic valenz-charges read in
  non local Contribution for L=           0  read in
    real space projection operators read in
  non local Contribution for L=           0  read in
    real space projection operators read in
  non local Contribution for L=           1  read in
    real space projection operators read in
  non local Contribution for L=           1  read in
    real space projection operators read in
    PAW grid and wavefunctions read in
 
   number of l-projection  operators is LMAX  =           4
   number of lm-projection operators is LMMAX =           8
 
 POTCAR:    PAW_PBE O 08Apr2002                   
   SHA256 =  818f92134a0a090dccd8ba1447fa70422a3b330e708bb4f08108d8ae51209ddf O/
   COPYR  = (c) Copyright 08Apr2002 Georg Kresse                                
   COPYR  = This file is part of the software VASP. Any use, copying, and all ot
   COPYR  = If you do not have a valid VASP license, you may not use, copy or di
   VRHFIN =O: s2p4                                                              
   LEXCH  = PE                                                                  
   EATOM  =   432.3788 eV,   31.7789 Ry                                         
                                                                                
   TITEL  = PAW_PBE O 08Apr2002                                                 
   LULTRA =        F    use ultrasoft PP ?                                      
   IUNSCR =        1    unscreen: 0-lin 1-nonlin 2-no                           
   RPACOR =    1.200    partial core radius                                     
   POMASS =   16.000; ZVAL   =    6.000    mass and valenz                      
   RCORE  =    1.520    outmost cutoff radius                                   
   RWIGS  =    1.550; RWIGS  =    0.820    wigner-seitz radius (au A)           
   ENMAX  =  400.000; ENMIN  =  300.000 eV                                      
   ICORE  =        2    local potential                                         
   LCOR   =        T    correct aug charges                                     
   LPAW   =        T    paw PP                                                  
   EAUG   =  605.392                                                            
   DEXC   =    0.000                                                            
   RMAX   =    1.553    core radius for proj-oper                               
   RAUG   =    1.300    factor for augmentation sphere                          
   RDEP   =    1.550    radius for radial grids                                 
   RDEPT  =    1.329    core radius for aug-charge                              
                                                                                
   Atomic configuration                                                         
    4 entries                                                                   
     n  l   j            E        occ.                                          
     1  0  0.50      -514.6923   2.0000                                         
     2  0  0.50       -23.9615   2.0000                                         
     2  1  0.50        -9.0305   4.0000                                         
     3  2  1.50        -9.5241   0.0000                                         
   Description                                                                  
     l       E           TYP  RCUT    TYP  RCUT                                 
     0    -23.9615318     23  1.200                                             
     0     -9.5240782     23  1.200                                             
     1     -9.0304911     23  1.520                                             
     1      8.1634956     23  1.520                                             
     2     -9.5240782      7  1.500                                             
  local pseudopotential read in
  partial core-charges read in
  partial kinetic energy density read in
  kinetic energy density of atom read in
  atomic valenz-charges read in
  non local Contribution for L=           0  read in
    real space projection operators read in
  non local Contribution for L=           0  read in
    real space projection operators read in
  non local Contribution for L=           1  read in
    real space projection operators read in
  non local Contribution for L=           1  read in
    real space projection operators read in
    PAW grid and wavefunctions read in
 
   number of l-projection  operators is LMAX  =           4
   number of lm-projection operators is LMMAX =           8
 

 ----------------------------------------------------------------------------- 
|                                                                             |
|  ADVICE TO THIS USER RUNNING 'VASP/VAMP'   (HEAR YOUR MASTER'S VOICE ...):  |
|                                                                             |
|      You have a (more or less) 'large supercell' and for larger cells       |
|      it might be more efficient to use real space projection opertators     |
|      So try LREAL= Auto  in the INCAR   file.                               |
|      Mind:          For very  accurate calculation you might also keep the  |
|      reciprocal projection scheme          (i.e. LREAL=.FALSE.)             |
|                                                                             |
 ----------------------------------------------------------------------------- 

  PAW_PBE C 08Apr2002                   :
 energy of atom  1       EATOM= -147.1560
 kinetic energy error for atom=    0.0132 (will be added to EATOM!!)
  PAW_PBE N 08Apr2002                   :
 energy of atom  2       EATOM= -264.5486
 kinetic energy error for atom=    0.0298 (will be added to EATOM!!)
  PAW_PBE C 08Apr2002                   :
 energy of atom  3       EATOM= -147.1560
 kinetic energy error for atom=    0.0132 (will be added to EATOM!!)
  PAW_PBE Cr_pv 02Aug2007               :
 energy of atom  4       EATOM=-1647.9177
 kinetic energy error for atom=    0.0134 (will be added to EATOM!!)
  PAW_PBE C 08Apr2002                   :
 energy of atom  5       EATOM= -147.1560
 kinetic energy error for atom=    0.0132 (will be added to EATOM!!)
  PAW_PBE O 08Apr2002                   :
 energy of atom  6       EATOM= -432.3788
 kinetic energy error for atom=    0.0458 (will be added to EATOM!!)
 
 
 POSCAR: POSCAR-clean                            
  positions in cartesian coordinates
  No initial velocities read in
 exchange correlation table for  LEXCH =        8
   RHO(1)=    0.500       N(1)  =     2000
   RHO(2)=  100.500       N(2)  =     4000

 VTST: version 3.2, (02/03/18)

 CHAIN: initializing optimizer
 
 OPT: Using VASP Dynamics algorithm
 CHAIN: Read ICHAIN            0
 
 POSCAR: POSCAR-clean                            
  positions in cartesian coordinates
  No initial velocities read in
 


--------------------------------------------------------------------------------------------------------


 ion  position               nearest neighbor table
   1  0.000  0.000  0.484-   2 1.42  60 1.42  70 1.43
   2  0.056  0.112  0.484-   1 1.42  13 1.43  15 1.43
   3  0.167  0.001  0.484-   4 1.42  60 1.43  62 1.43
   4  0.223  0.113  0.485-   3 1.42  15 1.42  17 1.43
   5  0.334  0.001  0.483-   6 1.42  64 1.42  62 1.43
   6  0.390  0.113  0.484-  19 1.42   5 1.42  17 1.43
   7  0.500  0.998  0.484-  64 1.42   8 1.43  66 1.43
   8  0.556  0.110  0.484-  21 1.42   7 1.43  19 1.44
   9  0.665  0.997  0.485-  66 1.42  10 1.43  68 1.43
  10  0.721  0.109  0.484-  21 1.42   9 1.43  23 1.43
  11  0.832  0.998  0.484-  12 1.42  70 1.42  68 1.43
  12  0.888  0.110  0.483-  11 1.42  23 1.42  13 1.43
  13  0.999  0.166  0.484-  14 1.42   2 1.43  12 1.43
  14  0.055  0.277  0.484-  13 1.42  25 1.42  27 1.43
  15  0.168  0.169  0.485-   4 1.42  16 1.43   2 1.43
  16  0.224  0.281  0.487-  27 1.42  15 1.43  29 1.45
  17  0.335  0.169  0.485-  18 1.42   4 1.43   6 1.43
  18  0.390  0.280  0.487-  17 1.42  31 1.43  29 1.44
  19  0.500  0.167  0.484-   6 1.42  20 1.42   8 1.44
  20  0.556  0.278  0.485-  19 1.42  33 1.43  31 1.43
  21  0.666  0.165  0.484-   8 1.42  10 1.42  22 1.42
  22  0.722  0.277  0.485-  35 1.42  21 1.42  33 1.42
  23  0.832  0.165  0.483-  24 1.42  12 1.42  10 1.43
  24  0.888  0.277  0.484-  23 1.42  25 1.43  35 1.43
  25  0.999  0.333  0.484-  14 1.42  26 1.43  24 1.43
  26  0.055  0.444  0.484-  39 1.42  37 1.42  25 1.43
  27  0.166  0.334  0.486-  28 1.42  16 1.42  14 1.43
  28  0.221  0.445  0.488-  41 1.42  27 1.42  39 1.42
  29  0.337  0.339  0.491-  30 1.43  18 1.44  16 1.45
  30  0.391  0.451  0.499-  41 1.41  29 1.43  71 2.05
  31  0.501  0.335  0.485-  32 1.41  18 1.43  20 1.43
  32  0.558  0.445  0.488-  31 1.41  43 1.42  71 1.90
  33  0.667  0.333  0.487-  34 1.42  22 1.42  20 1.43
  34  0.724  0.444  0.491-  33 1.42  45 1.42  43 1.42
  35  0.833  0.333  0.485-  36 1.42  22 1.42  24 1.43
  36  0.889  0.444  0.486-  45 1.42  35 1.42  37 1.42
  37  1.000  0.500  0.484-  38 1.42  26 1.42  36 1.42
  38  0.055  0.611  0.484-  37 1.42  49 1.42  47 1.42
  39  0.166  0.501  0.486-  26 1.42  40 1.42  28 1.42
  40  0.221  0.612  0.486-  49 1.41  39 1.42  51 1.43
  41  0.331  0.500  0.494-  30 1.41  28 1.42  42 1.43
  42  0.386  0.612  0.494-  51 1.41  53 1.41  41 1.43
  43  0.668  0.499  0.491-  32 1.42  34 1.42  44 1.44  71 2.50
  44  0.725  0.612  0.491-  55 1.42  57 1.42  43 1.44  71 2.50
  45  0.834  0.500  0.490-  36 1.42  34 1.42  46 1.42
  46  0.890  0.611  0.489-  47 1.42  57 1.42  45 1.42
  47  0.001  0.667  0.486-  46 1.42  48 1.42  38 1.42
  48  0.056  0.779  0.484-  47 1.42  59 1.43  61 1.43
  49  0.166  0.667  0.484-  40 1.41  50 1.42  38 1.42
  50  0.223  0.778  0.484-  49 1.42  61 1.43  63 1.43
  51  0.333  0.668  0.488-  42 1.41  52 1.41  40 1.43
  52  0.389  0.779  0.486-  65 1.40  51 1.41  63 1.43
  53  0.496  0.662  0.501-  42 1.41  54 1.41  71 2.08
  54  0.552  0.773  0.492-  53 1.41  65 1.44  67 1.44
  55  0.668  0.665  0.488-  56 1.41  44 1.42  71 1.90
  56  0.720  0.776  0.485-  55 1.41  67 1.43  69 1.44
  57  0.835  0.667  0.491-  58 1.42  46 1.42  44 1.42
  58  0.889  0.778  0.487-  57 1.42  59 1.43  69 1.43
  59  0.001  0.834  0.485-  60 1.42  48 1.43  58 1.43
  60  0.056  0.945  0.484-  59 1.42   1 1.42   3 1.43
  61  0.167  0.834  0.483-  62 1.42  50 1.43  48 1.43
  62  0.223  0.946  0.483-  61 1.42   5 1.43   3 1.43
  63  0.334  0.834  0.484-  64 1.42  52 1.43  50 1.43
  64  0.389  0.945  0.484-  63 1.42   7 1.42   5 1.42
  65  0.499  0.831  0.487-  52 1.40  66 1.41  54 1.44
  66  0.554  0.942  0.485-  65 1.41   9 1.42   7 1.43
  67  0.664  0.831  0.487-  68 1.41  56 1.43  54 1.44
  68  0.721  0.942  0.485-  67 1.41   9 1.43  11 1.43
  69  0.833  0.833  0.485-  70 1.42  58 1.43  56 1.44
  70  0.888  0.944  0.484-  69 1.42  11 1.42   1 1.43
  71  0.542  0.555  0.535-  55 1.90  32 1.90  30 2.05  53 2.08  43 2.50  44 2.50
  72  0.542  0.555  0.934-  73 1.16
  73  0.492  0.498  0.990-  72 1.16
 

IMPORTANT INFORMATION: All symmetrisations will be switched off!
NOSYMM: (Re-)initialisation of all symmetry stuff for point group C_1.

 
 
 KPOINTS: K-Points                                

Automatic generation of k-mesh.
Space group operators:
 irot       det(A)        alpha          n_x          n_y          n_z        tau_x        tau_y        tau_z
    1     1.000000     0.000001     1.000000     0.000000     0.000000     0.000000     0.000000     0.000000
 
 Subroutine IBZKPT returns following result:
 ===========================================
 
 Found      5 irreducible k-points:
 
 Following reciprocal coordinates:
            Coordinates               Weight
  0.000000  0.000000  0.000000      1.000000
  0.333333  0.000000  0.000000      2.000000
 -0.000000  0.333333  0.000000      2.000000
  0.333333  0.333333  0.000000      2.000000
 -0.333333  0.333333  0.000000      2.000000
 
 Following cartesian coordinates:
            Coordinates               Weight
  0.000000  0.000000  0.000000      1.000000
  0.022441  0.013064  0.000000      2.000000
  0.000017  0.026128  0.000000      2.000000
  0.022459  0.039192  0.000000      2.000000
 -0.022424  0.013064  0.000000      2.000000
 
 TETIRR: Found     24 inequivalent tetrahedra from       54


--------------------------------------------------------------------------------------------------------




 Dimension of arrays:
   k-points           NKPTS =      5   k-points in BZ     NKDIM =      5   number of bands    NBANDS=    192
   number of dos      NEDOS =   4000   number of ions     NIONS =     73
   non local maximal  LDIM  =      6   non local SUM 2l+1 LMDIM =     18
   total plane-waves  NPLWV = 512000
   max r-space proj   IRMAX =      1   max aug-charges    IRDMAX=   6464
   dimension x,y,z NGX =    80 NGY =   80 NGZ =   80
   dimension x,y,z NGXF=   160 NGYF=  160 NGZF=  160
   support grid    NGXF=   160 NGYF=  160 NGZF=  160
   ions per type =              64   1   5   1   1   1
   NGX,Y,Z   is equivalent  to a cutoff of   8.95,  9.01,  8.87 a.u.
   NGXF,Y,Z  is equivalent  to a cutoff of  17.90, 18.01, 17.73 a.u.

 SYSTEM =  unknown system                          
 POSCAR =  POSCAR-clean                            

 Startparameter for this run:
   NWRITE =      2    write-flag & timer
   PREC   = normal    normal or accurate (medium, high low for compatibility)
   ISTART =      0    job   : 0-new  1-cont  2-samecut
   ICHARG =      2    charge: 1-file 2-atom 10-const
   ISPIN  =      2    spin polarized calculation?
   LNONCOLLINEAR =      F non collinear calculations
   LSORBIT =      F    spin-orbit coupling
   INIWAV =      1    electr: 0-lowe 1-rand  2-diag
   LASPH  =      F    aspherical Exc in radial PAW
   METAGGA=      F    non-selfconsistent MetaGGA calc.

 Electronic Relaxation 1
   ENCUT  =  440.0 eV  32.34 Ry    5.69 a.u.  25.41 25.26 25.66*2*pi/ulx,y,z
   ENINI  =  440.0     initial cutoff
   ENAUG  =  644.9 eV  augmentation charge cutoff
   NELM   =    100;   NELMIN=  2; NELMDL= -5     # of ELM steps 
   EDIFF  = 0.1E-03   stopping-criterion for ELM
   LREAL  =      F    real-space projection
   NLSPLINE    = F    spline interpolate recip. space projectors
   LCOMPAT=      F    compatible to vasp.4.4
   GGA_COMPAT  = T    GGA compatible to vasp.4.4-vasp.4.6
   LMAXPAW     = -100 max onsite density
   LMAXMIX     =    2 max onsite mixed and CHGCAR
   VOSKOWN=      0    Vosko Wilk Nusair interpolation
   ROPT   =    0.00000   0.00000   0.00000   0.00000
   ROPT   =    0.00000   0.00000
 Ionic relaxation
   EDIFFG = -.1E-01   stopping-criterion for IOM
   NSW    =      0    number of steps for IOM
   NBLOCK =      1;   KBLOCK =      1    inner block; outer block 
   IBRION =     -1    ionic relax: 0-MD 1-quasi-New 2-CG
   NFREE  =      0    steps in history (QN), initial steepest desc. (CG)
   ISIF   =      2    stress and relaxation
   IWAVPR =     10    prediction:  0-non 1-charg 2-wave 3-comb
   ISYM   =      0    0-nonsym 1-usesym 2-fastsym
   LCORR  =      T    Harris-Foulkes like correction to forces

   POTIM  = 0.5000    time-step for ionic-motion
   TEIN   =    0.0    initial temperature
   TEBEG  =    0.0;   TEEND  =   0.0 temperature during run
   SMASS  =  -3.00    Nose mass-parameter (am)
   estimated Nose-frequenzy (Omega)   =  0.10E-29 period in steps =****** mass=  -0.505E-26a.u.
   SCALEE = 1.0000    scale energy and forces
   NPACO  =    256;   APACO  = 16.0  distance and # of slots for P.C.
   PSTRESS=    0.0 pullay stress

  Mass of Ions in am
   POMASS =  12.01 14.00 12.01 52.00 12.01 16.00
  Ionic Valenz
   ZVAL   =   4.00  5.00  4.00 12.00  4.00  6.00
  Atomic Wigner-Seitz radii
   RWIGS  =  -1.00 -1.00 -1.00 -1.00 -1.00 -1.00
  virtual crystal weights 
   VCA    =   1.00  1.00  1.00  1.00  1.00  1.00
   NELECT =     303.0000    total number of electrons
   NUPDOWN=      -1.0000    fix difference up-down

 DOS related values:
   EMIN   = -14.00;   EMAX   =  6.00  energy-range for DOS
   EFERMI =   0.00
   ISMEAR =    -5;   SIGMA  =   0.20  broadening in eV -4-tet -1-fermi 0-gaus

 Electronic relaxation 2 (details)
   IALGO  =     38    algorithm
   LDIAG  =      T    sub-space diagonalisation (order eigenvalues)
   LSUBROT=      F    optimize rotation matrix (better conditioning)
   TURBO    =      0    0=normal 1=particle mesh
   IRESTART =      0    0=no restart 2=restart with 2 vectors
   NREBOOT  =      0    no. of reboots
   NMIN     =      0    reboot dimension
   EREF     =   0.00    reference energy to select bands
   IMIX   =      4    mixing-type and parameters
     AMIX     =   0.25;   BMIX     =  0.00
     AMIX_MAG =   1.00;   BMIX_MAG =  0.00
     AMIN     =   0.10
     WC   =   100.;   INIMIX=   1;  MIXPRE=   1;  MAXMIX= -45

 Intra band minimization:
   WEIMIN = 0.0000     energy-eigenvalue tresh-hold
   EBREAK =  0.13E-06  absolut break condition
   DEPER  =   0.30     relativ break condition  

   TIME   =   0.40     timestep for ELM

  volume/ion in A,a.u.               =      38.95       262.87
  Fermi-wavevector in a.u.,A,eV,Ry     =   0.776132  1.466677  8.195894  0.602381
  Thomas-Fermi vector in A             =   1.878546
 
 Write flags
   LWAVE        =      F    write WAVECAR
   LDOWNSAMPLE  =      F    k-point downsampling of WAVECAR
   LCHARG       =      F    write CHGCAR
   LVTOT        =      F    write LOCPOT, total local potential
   LVHAR        =      F    write LOCPOT, Hartree potential only
   LELF         =      F    write electronic localiz. function (ELF)
   LORBIT       =     11    0 simple, 1 ext, 2 COOP (PROOUT), +10 PAW based schemes


 Dipole corrections
   LMONO  =      F    monopole corrections only (constant potential shift)
   LDIPOL =      F    correct potential (dipole corrections)
   IDIPOL =      0    1-x, 2-y, 3-z, 4-all directions 
   EPSILON=  1.0000000 bulk dielectric constant

 Exchange correlation treatment:
   GGA     =    --    GGA type
   LEXCH   =     8    internal setting for exchange type
   VOSKOWN=      0    Vosko Wilk Nusair interpolation
   LHFCALC =     F    Hartree Fock is set to
   LHFONE  =     F    Hartree Fock one center treatment
   AEXX    =    0.0000 exact exchange contribution

 Linear response parameters
   LEPSILON=     F    determine dielectric tensor
   LRPA    =     F    only Hartree local field effects (RPA)
   LNABLA  =     F    use nabla operator in PAW spheres
   LVEL    =     F    velocity operator in full k-point grid
   LINTERFAST=   F  fast interpolation
   KINTER  =     0    interpolate to denser k-point grid
   CSHIFT  =0.1000    complex shift for real part using Kramers Kronig
   OMEGAMAX=  -1.0    maximum frequency
   DEG_THRESHOLD= 0.2000000E-02 threshold for treating states as degnerate
   RTIME   =   -0.100 relaxation time in fs
  (WPLASMAI=    0.000 imaginary part of plasma frequency in eV, 0.658/RTIME)
   DFIELD  = 0.0000000 0.0000000 0.0000000 field for delta impulse in time
 
 Orbital magnetization related:
   ORBITALMAG=     F  switch on orbital magnetization
   LCHIMAG   =     F  perturbation theory with respect to B field
   DQ        =  0.001000  dq finite difference perturbation B field
   LLRAUG    =     F  two centre corrections for induced B field



--------------------------------------------------------------------------------------------------------


 Static calculation
 charge density and potential will be updated during run
 spin polarized calculation
 Variant of blocked Davidson
 Davidson routine will perform the subspace rotation
 perform sub-space diagonalisation
    after iterative eigenvector-optimisation
 modified Broyden-mixing scheme, WC =      100.0
 initial mixing is a Kerker type mixing with AMIX =  0.2500 and BMIX =      0.0001
 Hartree-type preconditioning will be used
 using additional bands           40
 reciprocal scheme for non local part
 use partial core corrections
 calculate Harris-corrections to forces 
   (improved forces if not selfconsistent)
 use gradient corrections 
 use of overlap-Matrix (Vanderbilt PP)
 Fermi weights with tetrahedron method with Bloechl corrections


--------------------------------------------------------------------------------------------------------


  energy-cutoff  :      440.00
  volume of cell :     2843.54
      direct lattice vectors                 reciprocal lattice vectors
    14.859192569 -0.009793846  0.000000000     0.067324240  0.039191913  0.000000000
    -7.429596285 12.762630739  0.000000000     0.000051664  0.078383827  0.000000000
     0.000000000  0.000000000 15.000000000     0.000000000  0.000000000  0.066666667

  length of vectors
    14.859195797 14.767655343 15.000000000     0.077900958  0.078383844  0.066666667


 
 k-points in units of 2pi/SCALE and weight: K-Points                                
   0.00000000  0.00000000  0.00000000       0.111
   0.02244141  0.01306397  0.00000000       0.222
   0.00001722  0.02612794  0.00000000       0.222
   0.02245863  0.03919191  0.00000000       0.222
  -0.02242419  0.01306397  0.00000000       0.222
 
 k-points in reciprocal lattice and weights: K-Points                                
   0.00000000  0.00000000  0.00000000       0.111
   0.33333333  0.00000000  0.00000000       0.222
  -0.00000000  0.33333333  0.00000000       0.222
   0.33333333  0.33333333  0.00000000       0.222
  -0.33333333  0.33333333  0.00000000       0.222
 
 position of ions in fractional coordinates (direct lattice) 
   0.00025434  0.00042874  0.48418585
   0.05615806  0.11196974  0.48414645
   0.16738800  0.00144094  0.48371553
   0.22300820  0.11283665  0.48452106
   0.33377058  0.00106100  0.48337554
   0.38956220  0.11255033  0.48376003
   0.49950648  0.99835813  0.48434502
   0.55553462  0.11010199  0.48437764
   0.66483631  0.99724581  0.48482310
   0.72073715  0.10904482  0.48388527
   0.83221026  0.99849160  0.48367716
   0.88799146  0.11001140  0.48329693
   0.99935146  0.16626111  0.48373938
   0.05489138  0.27747782  0.48422582
   0.16786304  0.16862353  0.48483242
   0.22411227  0.28075896  0.48698718
   0.33453934  0.16912330  0.48478049
   0.39006656  0.28029883  0.48705382
   0.50024183  0.16654680  0.48428460
   0.55601194  0.27801638  0.48499407
   0.66622098  0.16531084  0.48428882
   0.72215653  0.27688526  0.48538601
   0.83229886  0.16514313  0.48336818
   0.88821519  0.27667417  0.48353689
   0.99933818  0.33271916  0.48369748
   0.05494982  0.44446272  0.48405262
   0.16622806  0.33368396  0.48632890
   0.22053019  0.44467580  0.48788039
   0.33669531  0.33923675  0.49081030
   0.39109493  0.45089437  0.49854309
   0.50107556  0.33475378  0.48515133
   0.55800986  0.44522481  0.48842245
   0.66714869  0.33269764  0.48728354
   0.72372722  0.44378262  0.49128983
   0.83302045  0.33253841  0.48487160
   0.88893741  0.44401391  0.48593895
   0.99991786  0.50002115  0.48441843
   0.05548832  0.61133645  0.48432289
   0.16556656  0.50054029  0.48557917
   0.22113119  0.61190097  0.48553692
   0.33057737  0.50014367  0.49353434
   0.38609870  0.61186940  0.49415166
   0.66828123  0.49912638  0.49106977
   0.72460579  0.61193444  0.49050552
   0.83434999  0.49978107  0.48959359
   0.89007191  0.61137807  0.48933328
   0.00050711  0.66716217  0.48563420
   0.05606241  0.77854328  0.48447333
   0.16629830  0.66713169  0.48400353
   0.22267194  0.77843710  0.48371860
   0.33254583  0.66774932  0.48795832
   0.38929636  0.77853319  0.48646800
   0.49560731  0.66242744  0.50065756
   0.55217271  0.77277274  0.49224109
   0.66768643  0.66534359  0.48760014
   0.72035458  0.77566651  0.48504643
   0.83531917  0.66723810  0.49058235
   0.88947417  0.77824243  0.48658566
   0.00063060  0.83411077  0.48487945
   0.05616331  0.94545303  0.48402317
   0.16738287  0.83429153  0.48340950
   0.22268670  0.94552560  0.48331778
   0.33397587  0.83413610  0.48437680
   0.38869538  0.94511406  0.48390068
   0.49866926  0.83120815  0.48732650
   0.55422432  0.94180458  0.48518191
   0.66442511  0.83114919  0.48749195
   0.72080969  0.94191913  0.48499471
   0.83260229  0.83262818  0.48463994
   0.88849167  0.94391211  0.48408937
   0.54169515  0.55534282  0.53526885
   0.54169515  0.55534282  0.93393551
   0.49163593  0.49843182  0.99029133
 
 position of ions in cartesian coordinates  (Angst):
   0.00059395  0.00546933  7.26278782
   0.00257351  1.42847838  7.26219672
   2.47654496  0.01675083  7.25573294
   2.47539099  1.43790844  7.26781589
   4.95167851  0.01027227  7.25063306
   4.95237617  1.43262303  7.25640043
   0.00486513 12.73678405  7.26517529
   7.43678260  1.39975028  7.26566461
   2.46979701 12.72096872  7.27234652
   9.89941313  1.38464004  7.25827900
   4.94758303 12.73522898  7.25515747
  12.37749572  1.39533809  7.24945393
  13.61430291  2.11214161  7.25609073
  -1.24590667  3.54080938  7.26338731
   1.24150449  2.15043587  7.27248623
   1.24420169  3.58102806  7.30480763
   3.71446658  2.15518180  7.27170739
   3.71356697  3.57353020  7.30580724
   6.19581421  2.12067602  7.26426902
   6.19633900  3.54277485  7.27491107
   8.67131306  2.10327631  7.26433228
   8.67351730  3.52671165  7.28079022
  11.14034228  2.09950941  7.25052268
  11.14258315  3.52239121  7.25305341
  12.37738941  4.23658440  7.25546220
  -2.48566866  5.67197535  7.26078936
  -0.00912244  4.25705721  7.29493357
  -0.02686109  5.67307320  7.31820582
   2.48262829  4.32625584  7.36215448
   2.46139176  5.75076801  7.47814641
   4.95849272  4.26743147  7.27726991
   4.98373538  5.67677478  7.32633678
   7.44148167  4.23956321  7.30925311
   7.45687639  5.65674560  7.36934747
   9.90738508  4.23590646  7.27307401
   9.91004810  5.65807943  7.28908418
  11.14301669  6.37179230  7.26627650
  -3.71747137  7.80171798  7.26484336
  -1.25862686  6.38658931  7.28368760
  -1.26034622  7.80730039  7.28305386
   1.19624724  6.37991139  7.40301511
   1.19117229  7.80528177  7.41227489
   6.22181195  6.36362065  7.36604656
   6.22063112  7.80279658  7.35758278
   8.68459554  6.37034981  7.34390390
   8.68345777  7.79407527  7.33999925
  -4.94921028  8.51473941  7.28451294
  -4.95122010  9.93571129  7.26709998
  -2.48546069  8.51272667  7.26005289
  -2.47474806  9.93272440  7.25577907
  -0.01974533  8.51898111  7.31937475
   0.00044229  9.93231893  7.29701993
   2.44275595  8.44946295  7.50986346
   2.46345122  9.85720522  7.38361639
   4.97804693  8.48499531  7.31400206
   4.94099835  9.89249024  7.27569649
   7.45485874  8.50753251  7.35873518
   7.43484090  9.92370939  7.29878487
  -6.18773605 10.64544153  7.27319182
  -6.18979283 12.06591785  7.26034755
  -3.71127499 10.64611540  7.25114250
  -3.71592895 12.06521311  7.24976667
  -1.23468271 10.64250011  7.26565198
  -1.24611637 12.05833488  7.25851027
   1.23428157 10.60351886  7.30989754
   1.23809810 12.01447611  7.27772867
   3.69771772 10.60114291  7.31237927
   3.71257113 12.01430650  7.27492060
   6.18570656 10.61837161  7.26959917
   6.18938291 12.03810001  7.26134054
   3.92317962  7.08233001  8.02903272
   3.92317962  7.08233001 14.00903272
   3.60216568  6.35648632 14.85436991
 


--------------------------------------------------------------------------------------------------------


 k-point  1 :   0.0000 0.0000 0.0000  plane waves:   59587
 k-point  2 :   0.3333 0.0000 0.0000  plane waves:   59569
 k-point  3 :  -0.0000 0.3333 0.0000  plane waves:   59626
 k-point  4 :   0.3333 0.3333 0.0000  plane waves:   59635
 k-point  5 :  -0.3333 0.3333 0.0000  plane waves:   59560

 maximum and minimum number of plane-waves per node :      4992     4935

 maximum number of plane-waves:     59635
 maximum index in each direction: 
   IXMAX=   25   IYMAX=   25   IZMAX=   25
   IXMIN=  -25   IYMIN=  -25   IZMIN=  -25


 parallel 3D FFT for wavefunctions:
    minimum data exchange during FFTs selected (reduces bandwidth)
 parallel 3D FFT for charge:
    minimum data exchange during FFTs selected (reduces bandwidth)


 total amount of memory used by VASP MPI-rank0   116305. kBytes
=======================================================================

   base      :      30000. kBytes
   nonl-proj :      27396. kBytes
   fftplans  :       4700. kBytes
   grid      :      15193. kBytes
   one-center:        217. kBytes
   wavefun   :      38799. kBytes
 
     INWAV:  cpu time    0.0000: real time    0.0000
 Broyden mixing: mesh for mixing (old mesh)
   NGX = 51   NGY = 51   NGZ = 51
  (NGX  =160   NGY  =160   NGZ  =160)
  gives a total of 132651 points

 initial charge density was supplied:
 charge density of overlapping atoms calculated
 number of electron     303.0000000 magnetization       2.0000000
 keeping initial charge density in first step


--------------------------------------------------------------------------------------------------------


 Maximum index for augmentation-charges          178 (set IRDMAX)


--------------------------------------------------------------------------------------------------------


 First call to EWALD:  gamma=   0.125
 Maximum number of real-space cells 3x 3x 3
 Maximum number of reciprocal cells 3x 3x 3

    FEWALD:  cpu time    0.0039: real time    0.0040


--------------------------------------- Iteration      1(   1)  ---------------------------------------


    POTLOK:  cpu time    0.2633: real time    0.2937
    SETDIJ:  cpu time    0.0088: real time    0.0095
     EDDAV:  cpu time   11.3478: real time   11.4600
 BZINTS: Fermi energy:  7.948625;303.000000 electrons
         Band energy:***********;  BLOECHL correction: -0.018630
       DOS:  cpu time    0.1084: real time    0.1087
    --------------------------------------------
      LOOP:  cpu time   11.7283: real time   11.8720

 eigenvalue-minimisations  :  4416
 total energy-change (2. order) : 0.2492728E+04  (-0.1121851E+05)
 number of electron     303.0000000 magnetization       2.0000000
 augmentation part      303.0000000 magnetization       2.0000000

 Free energy of the ion-electron system (eV)
  ---------------------------------------------------
  alpha Z        PSCENC =       167.22946921
  Ewald energy   TEWEN  =     28932.88187988
  -Hartree energ DENC   =    -38611.64602025
  -exchange      EXHF   =         0.00000000
  -V(xc)+E(xc)   XCENC  =      1022.15436197
  PAW double counting   =      9455.23336183    -9546.47664214
  entropy T*S    EENTRO =         0.00000000
  eigenvalues    EBANDS =     -1571.40149049
  atomic energy  EATOM  =     12644.75315347
  Solvation  Ediel_sol  =         0.00000000
  ---------------------------------------------------
  free energy    TOTEN  =      2492.72807349 eV

  energy without entropy =     2492.72807349  energy(sigma->0) =     2492.72807349


--------------------------------------------------------------------------------------------------------




--------------------------------------- Iteration      1(   2)  ---------------------------------------


     EDDAV:  cpu time   14.8782: real time   15.1313
 BZINTS: Fermi energy: -1.481087;303.000000 electrons
         Band energy:***********;  BLOECHL correction: -0.047300
       DOS:  cpu time    0.0114: real time    0.0114
    --------------------------------------------
      LOOP:  cpu time   14.8895: real time   15.1427

 eigenvalue-minimisations  :  5464
 total energy-change (2. order) :-0.2738688E+04  (-0.2618042E+04)
 number of electron     303.0000000 magnetization       2.0000000
 augmentation part      303.0000000 magnetization       2.0000000

 Free energy of the ion-electron system (eV)
  ---------------------------------------------------
  alpha Z        PSCENC =       167.22946921
  Ewald energy   TEWEN  =     28932.88187988
  -Hartree energ DENC   =    -38611.64602025
  -exchange      EXHF   =         0.00000000
  -V(xc)+E(xc)   XCENC  =      1022.15436197
  PAW double counting   =      9455.23336183    -9546.47664214
  entropy T*S    EENTRO =         0.00000000
  eigenvalues    EBANDS =     -4310.08955603
  atomic energy  EATOM  =     12644.75315347
  Solvation  Ediel_sol  =         0.00000000
  ---------------------------------------------------
  free energy    TOTEN  =      -245.95999205 eV

  energy without entropy =     -245.95999205  energy(sigma->0) =     -245.95999205


--------------------------------------------------------------------------------------------------------




--------------------------------------- Iteration      1(   3)  ---------------------------------------


     EDDAV:  cpu time   12.9067: real time   13.0966
 BZINTS: Fermi energy: -4.560341;303.000000 electrons
         Band energy:***********;  BLOECHL correction: -0.050786
       DOS:  cpu time    0.0115: real time    0.0116
    --------------------------------------------
      LOOP:  cpu time   12.9183: real time   13.1082

 eigenvalue-minimisations  :  4616
 total energy-change (2. order) :-0.4558012E+03  (-0.4519919E+03)
 number of electron     303.0000000 magnetization       2.0000000
 augmentation part      303.0000000 magnetization       2.0000000

 Free energy of the ion-electron system (eV)
  ---------------------------------------------------
  alpha Z        PSCENC =       167.22946921
  Ewald energy   TEWEN  =     28932.88187988
  -Hartree energ DENC   =    -38611.64602025
  -exchange      EXHF   =         0.00000000
  -V(xc)+E(xc)   XCENC  =      1022.15436197
  PAW double counting   =      9455.23336183    -9546.47664214
  entropy T*S    EENTRO =         0.00000000
  eigenvalues    EBANDS =     -4765.89073054
  atomic energy  EATOM  =     12644.75315347
  Solvation  Ediel_sol  =         0.00000000
  ---------------------------------------------------
  free energy    TOTEN  =      -701.76116657 eV

  energy without entropy =     -701.76116657  energy(sigma->0) =     -701.76116657


--------------------------------------------------------------------------------------------------------




--------------------------------------- Iteration      1(   4)  ---------------------------------------


     EDDAV:  cpu time   13.0004: real time   13.3204
 BZINTS: Fermi energy: -4.714194;303.000000 electrons
         Band energy:***********;  BLOECHL correction: -0.044621
       DOS:  cpu time    0.0113: real time    0.0113
    --------------------------------------------
      LOOP:  cpu time   13.0117: real time   13.3317

 eigenvalue-minimisations  :  4672
 total energy-change (2. order) :-0.1647383E+02  (-0.1632978E+02)
 number of electron     303.0000000 magnetization       2.0000000
 augmentation part      303.0000000 magnetization       2.0000000

 Free energy of the ion-electron system (eV)
  ---------------------------------------------------
  alpha Z        PSCENC =       167.22946921
  Ewald energy   TEWEN  =     28932.88187988
  -Hartree energ DENC   =    -38611.64602025
  -exchange      EXHF   =         0.00000000
  -V(xc)+E(xc)   XCENC  =      1022.15436197
  PAW double counting   =      9455.23336183    -9546.47664214
  entropy T*S    EENTRO =         0.00000000
  eigenvalues    EBANDS =     -4782.36456073
  atomic energy  EATOM  =     12644.75315347
  Solvation  Ediel_sol  =         0.00000000
  ---------------------------------------------------
  free energy    TOTEN  =      -718.23499675 eV

  energy without entropy =     -718.23499675  energy(sigma->0) =     -718.23499675


--------------------------------------------------------------------------------------------------------




--------------------------------------- Iteration      1(   5)  ---------------------------------------


     EDDAV:  cpu time   14.1374: real time   14.3286
 BZINTS: Fermi energy: -4.722661;303.000000 electrons
         Band energy:***********;  BLOECHL correction: -0.044020
       DOS:  cpu time    0.0112: real time    0.0112
    CHARGE:  cpu time    0.1930: real time    0.1979
    MIXING:  cpu time    0.0032: real time    0.0053
    --------------------------------------------
      LOOP:  cpu time   14.3449: real time   14.5431

 eigenvalue-minimisations  :  5232
 total energy-change (2. order) :-0.5379080E+00  (-0.5362761E+00)
 number of electron     302.9999984 magnetization       0.0202910
 augmentation part       12.3982194 magnetization       0.0712729

 Broyden mixing:
  rms(total) = 0.47839E+01    rms(broyden)= 0.47833E+01
  rms(prec ) = 0.55202E+01
  weight for this iteration     100.00

 Free energy of the ion-electron system (eV)
  ---------------------------------------------------
  alpha Z        PSCENC =       167.22946921
  Ewald energy   TEWEN  =     28932.88187988
  -Hartree energ DENC   =    -38611.64602025
  -exchange      EXHF   =         0.00000000
  -V(xc)+E(xc)   XCENC  =      1022.15436197
  PAW double counting   =      9455.23336183    -9546.47664214
  entropy T*S    EENTRO =         0.00000000
  eigenvalues    EBANDS =     -4782.90246877
  atomic energy  EATOM  =     12644.75315347
  Solvation  Ediel_sol  =         0.00000000
  ---------------------------------------------------
  free energy    TOTEN  =      -718.77290480 eV

  energy without entropy =     -718.77290480  energy(sigma->0) =     -718.77290480


--------------------------------------------------------------------------------------------------------




--------------------------------------- Iteration      1(   6)  ---------------------------------------


    POTLOK:  cpu time    0.1407: real time    0.1440
    SETDIJ:  cpu time    0.0103: real time    0.0103
     EDDAV:  cpu time   12.8791: real time   13.1378
 BZINTS: Fermi energy: -5.568016;303.000000 electrons
         Band energy:***********;  BLOECHL correction: -0.026204
       DOS:  cpu time    0.0111: real time    0.0112
    CHARGE:  cpu time    0.2060: real time    0.2121
    MIXING:  cpu time    0.0033: real time    0.0042
    --------------------------------------------
      LOOP:  cpu time   13.2506: real time   13.5196

 eigenvalue-minimisations  :  4912
 total energy-change (2. order) : 0.1037331E+01  (-0.8223176E+01)
 number of electron     303.0000009 magnetization       0.0174843
 augmentation part       18.0099922 magnetization       0.0421473

 Broyden mixing:
  rms(total) = 0.74825E+01    rms(broyden)= 0.74822E+01
  rms(prec ) = 0.85505E+01
  weight for this iteration     100.00

 eigenvalues of (default mixing * dielectric matrix)
  average eigenvalue GAMMA=   0.2775
  0.2775

 Free energy of the ion-electron system (eV)
  ---------------------------------------------------
  alpha Z        PSCENC =       167.22946921
  Ewald energy   TEWEN  =     28932.88187988
  -Hartree energ DENC   =    -38982.95645432
  -exchange      EXHF   =         0.00000000
  -V(xc)+E(xc)   XCENC  =      1034.92603785
  PAW double counting   =     13245.15054694   -13336.42619880
  entropy T*S    EENTRO =         0.00000000
  eigenvalues    EBANDS =     -4423.29400784
  atomic energy  EATOM  =     12644.75315347
  Solvation  Ediel_sol  =         0.00000000
  ---------------------------------------------------
  free energy    TOTEN  =      -717.73557360 eV

  energy without entropy =     -717.73557360  energy(sigma->0) =     -717.73557360


--------------------------------------------------------------------------------------------------------




--------------------------------------- Iteration      1(   7)  ---------------------------------------


    POTLOK:  cpu time    0.1398: real time    0.1455
    SETDIJ:  cpu time    0.0102: real time    0.0102
     EDDAV:  cpu time   13.2255: real time   13.3505
 BZINTS: Fermi energy: -4.179425;303.000000 electrons
         Band energy:***********;  BLOECHL correction: -0.029845
       DOS:  cpu time    0.0115: real time    0.0115
    CHARGE:  cpu time    0.1673: real time    0.1706
    MIXING:  cpu time    0.0036: real time    0.0038
    --------------------------------------------
      LOOP:  cpu time   13.5578: real time   13.6922

 eigenvalue-minimisations  :  5104
 total energy-change (2. order) : 0.4394684E+02  (-0.7000336E+01)
 number of electron     303.0000002 magnetization       0.4964420
 augmentation part       14.4996215 magnetization       0.3136990

 Broyden mixing:
  rms(total) = 0.26550E+01    rms(broyden)= 0.26546E+01
  rms(prec ) = 0.29318E+01
  weight for this iteration     100.00

 eigenvalues of (default mixing * dielectric matrix)
  average eigenvalue GAMMA=   0.6466
  0.9810  0.3121

 Free energy of the ion-electron system (eV)
  ---------------------------------------------------
  alpha Z        PSCENC =       167.22946921
  Ewald energy   TEWEN  =     28932.88187988
  -Hartree energ DENC   =    -39124.68743598
  -exchange      EXHF   =         0.00000000
  -V(xc)+E(xc)   XCENC  =      1039.33465956
  PAW double counting   =     14444.50707404   -14540.24184571
  entropy T*S    EENTRO =         0.00000000
  eigenvalues    EBANDS =     -4237.56568387
  atomic energy  EATOM  =     12644.75315347
  Solvation  Ediel_sol  =         0.00000000
  ---------------------------------------------------
  free energy    TOTEN  =      -673.78872939 eV

  energy without entropy =     -673.78872939  energy(sigma->0) =     -673.78872939


--------------------------------------------------------------------------------------------------------




--------------------------------------- Iteration      1(   8)  ---------------------------------------


    POTLOK:  cpu time    0.1421: real time    0.1448
    SETDIJ:  cpu time    0.0309: real time    0.0310
     EDDAV:  cpu time   13.1556: real time   13.3259
 BZINTS: Fermi energy: -2.494702;303.000000 electrons
         Band energy:***********;  BLOECHL correction: -0.024430
       DOS:  cpu time    0.0115: real time    0.0116
    CHARGE:  cpu time    0.1641: real time    0.1658
    MIXING:  cpu time    0.0032: real time    0.0032
    --------------------------------------------
      LOOP:  cpu time   13.5074: real time   13.6822

 eigenvalue-minimisations  :  4992
 total energy-change (2. order) : 0.3725895E+01  (-0.3586849E+01)
 number of electron     302.9999986 magnetization       0.1782944
 augmentation part       12.2478596 magnetization       0.1363586

 Broyden mixing:
  rms(total) = 0.26067E+01    rms(broyden)= 0.26063E+01
  rms(prec ) = 0.30685E+01
  weight for this iteration     100.00

 eigenvalues of (default mixing * dielectric matrix)
  average eigenvalue GAMMA=   1.1445
  2.6400  0.3967  0.3967

 Free energy of the ion-electron system (eV)
  ---------------------------------------------------
  alpha Z        PSCENC =       167.22946921
  Ewald energy   TEWEN  =     28932.88187988
  -Hartree energ DENC   =    -39415.93457297
  -exchange      EXHF   =         0.00000000
  -V(xc)+E(xc)   XCENC  =      1049.16413937
  PAW double counting   =     18135.88323742   -18234.82910376
  entropy T*S    EENTRO =         0.00000000
  eigenvalues    EBANDS =     -3949.21103722
  atomic energy  EATOM  =     12644.75315347
  Solvation  Ediel_sol  =         0.00000000
  ---------------------------------------------------
  free energy    TOTEN  =      -670.06283460 eV

  energy without entropy =     -670.06283460  energy(sigma->0) =     -670.06283460


--------------------------------------------------------------------------------------------------------




--------------------------------------- Iteration      1(   9)  ---------------------------------------


    POTLOK:  cpu time    0.1435: real time    0.1459
    SETDIJ:  cpu time    0.0102: real time    0.0102
     EDDAV:  cpu time   12.4233: real time   12.5507
 BZINTS: Fermi energy: -2.757554;303.000000 electrons
         Band energy:***********;  BLOECHL correction: -0.081833
       DOS:  cpu time    0.0107: real time    0.0108
    CHARGE:  cpu time    0.1648: real time    0.1656
    MIXING:  cpu time    0.0036: real time    0.0037
    --------------------------------------------
      LOOP:  cpu time   12.7562: real time   12.8870

 eigenvalue-minimisations  :  4608
 total energy-change (2. order) : 0.6174267E+01  (-0.2413634E+01)
 number of electron     303.0000008 magnetization      -0.0793514
 augmentation part       14.8195131 magnetization      -0.1584855

 Broyden mixing:
  rms(total) = 0.19108E+01    rms(broyden)= 0.19098E+01
  rms(prec ) = 0.24129E+01
  weight for this iteration     100.00

 eigenvalues of (default mixing * dielectric matrix)
  average eigenvalue GAMMA=   1.1262
  2.9369  0.8633  0.3522  0.3522

 Free energy of the ion-electron system (eV)
  ---------------------------------------------------
  alpha Z        PSCENC =       167.22946921
  Ewald energy   TEWEN  =     28932.88187988
  -Hartree energ DENC   =    -39837.26973559
  -exchange      EXHF   =         0.00000000
  -V(xc)+E(xc)   XCENC  =      1064.54863602
  PAW double counting   =     26002.26727521   -26104.59044446
  entropy T*S    EENTRO =         0.00000000
  eigenvalues    EBANDS =     -3533.70880137
  atomic energy  EATOM  =     12644.75315347
  Solvation  Ediel_sol  =         0.00000000
  ---------------------------------------------------
  free energy    TOTEN  =      -663.88856762 eV

  energy without entropy =     -663.88856762  energy(sigma->0) =     -663.88856762


--------------------------------------------------------------------------------------------------------




--------------------------------------- Iteration      1(  10)  ---------------------------------------


    POTLOK:  cpu time    0.2023: real time    0.2050
    SETDIJ:  cpu time    0.0104: real time    0.0105
     EDDAV:  cpu time   13.4986: real time   13.6061
 BZINTS: Fermi energy: -1.279356;303.000000 electrons
         Band energy:***********;  BLOECHL correction: -0.058594
       DOS:  cpu time    0.0115: real time    0.0115
    CHARGE:  cpu time    0.1635: real time    0.1639
    MIXING:  cpu time    0.0037: real time    0.0038
    --------------------------------------------
      LOOP:  cpu time   13.8901: real time   14.0008

 eigenvalue-minimisations  :  5296
 total energy-change (2. order) : 0.1603790E+01  (-0.1812184E+01)
 number of electron     302.9999997 magnetization      -0.2787297
 augmentation part       12.6129876 magnetization      -0.1343252

 Broyden mixing:
  rms(total) = 0.11037E+01    rms(broyden)= 0.11026E+01
  rms(prec ) = 0.13187E+01
  weight for this iteration     100.00

 eigenvalues of (default mixing * dielectric matrix)
  average eigenvalue GAMMA=   1.2264
  3.4704  1.2979  0.6916  0.3361  0.3361

 Free energy of the ion-electron system (eV)
  ---------------------------------------------------
  alpha Z        PSCENC =       167.22946921
  Ewald energy   TEWEN  =     28932.88187988
  -Hartree energ DENC   =    -39869.59783555
  -exchange      EXHF   =         0.00000000
  -V(xc)+E(xc)   XCENC  =      1065.83135807
  PAW double counting   =     28195.52176880   -28298.27806080
  entropy T*S    EENTRO =         0.00000000
  eigenvalues    EBANDS =     -3500.62651077
  atomic energy  EATOM  =     12644.75315347
  Solvation  Ediel_sol  =         0.00000000
  ---------------------------------------------------
  free energy    TOTEN  =      -662.28477767 eV

  energy without entropy =     -662.28477767  energy(sigma->0) =     -662.28477767


--------------------------------------------------------------------------------------------------------




--------------------------------------- Iteration      1(  11)  ---------------------------------------


    POTLOK:  cpu time    0.1368: real time    0.1391
    SETDIJ:  cpu time    0.0098: real time    0.0098
     EDDAV:  cpu time   13.5365: real time   13.6561
 BZINTS: Fermi energy: -1.906870;303.000000 electrons
         Band energy:***********;  BLOECHL correction: -0.000382
       DOS:  cpu time    0.0105: real time    0.0105
    CHARGE:  cpu time    0.1627: real time    0.1643
    MIXING:  cpu time    0.0033: real time    0.0034
    --------------------------------------------
      LOOP:  cpu time   13.8595: real time   13.9833

 eigenvalue-minimisations  :  5320
 total energy-change (2. order) : 0.5871949E+00  (-0.1170522E+00)
 number of electron     303.0000003 magnetization      -0.9025759
 augmentation part       13.4318725 magnetization      -0.4010781

 Broyden mixing:
  rms(total) = 0.67765E+00    rms(broyden)= 0.67696E+00
  rms(prec ) = 0.69643E+00
  weight for this iteration     100.00

 eigenvalues of (default mixing * dielectric matrix)
  average eigenvalue GAMMA=   1.1938
  3.4990  1.6687  0.9713  0.3448  0.3448  0.3341

 Free energy of the ion-electron system (eV)
  ---------------------------------------------------
  alpha Z        PSCENC =       167.22946921
  Ewald energy   TEWEN  =     28932.88187988
  -Hartree energ DENC   =    -39842.13916970
  -exchange      EXHF   =         0.00000000
  -V(xc)+E(xc)   XCENC  =      1065.18011429
  PAW double counting   =     29965.65895858   -30067.76563124
  entropy T*S    EENTRO =         0.00000000
  eigenvalues    EBANDS =     -3527.49635723
  atomic energy  EATOM  =     12644.75315347
  Solvation  Ediel_sol  =         0.00000000
  ---------------------------------------------------
  free energy    TOTEN  =      -661.69758275 eV

  energy without entropy =     -661.69758275  energy(sigma->0) =     -661.69758275


--------------------------------------------------------------------------------------------------------




--------------------------------------- Iteration      1(  12)  ---------------------------------------


    POTLOK:  cpu time    0.1120: real time    0.1152
    SETDIJ:  cpu time    0.0089: real time    0.0099
     EDDAV:  cpu time   12.5490: real time   12.6691
 BZINTS: Fermi energy: -2.097022;303.000000 electrons
         Band energy:***********;  BLOECHL correction:  0.000000
       DOS:  cpu time    0.0070: real time    0.0071
    CHARGE:  cpu time    0.1619: real time    0.1633
    MIXING:  cpu time    0.0040: real time    0.0040
    --------------------------------------------
      LOOP:  cpu time   12.8428: real time   12.9684

 eigenvalue-minimisations  :  4704
 total energy-change (2. order) :-0.2707573E+00  (-0.4354257E-01)
 number of electron     303.0000003 magnetization      -0.8605025
 augmentation part       13.6643844 magnetization      -0.5278476

 Broyden mixing:
  rms(total) = 0.60871E+00    rms(broyden)= 0.60855E+00
  rms(prec ) = 0.68147E+00
  weight for this iteration     100.00

 eigenvalues of (default mixing * dielectric matrix)
  average eigenvalue GAMMA=   1.2451
  3.6129  2.0209  1.0794  0.6651  0.6651  0.3362  0.3362

 Free energy of the ion-electron system (eV)
  ---------------------------------------------------
  alpha Z        PSCENC =       167.22946921
  Ewald energy   TEWEN  =     28932.88187988
  -Hartree energ DENC   =    -39804.02935967
  -exchange      EXHF   =         0.00000000
  -V(xc)+E(xc)   XCENC  =      1064.09619981
  PAW double counting   =     30840.04358696   -30941.51433801
  entropy T*S    EENTRO =         0.00000000
  eigenvalues    EBANDS =     -3565.42893167
  atomic energy  EATOM  =     12644.75315347
  Solvation  Ediel_sol  =         0.00000000
  ---------------------------------------------------
  free energy    TOTEN  =      -661.96834001 eV

  energy without entropy =     -661.96834001  energy(sigma->0) =     -661.96834001


--------------------------------------------------------------------------------------------------------




--------------------------------------- Iteration      1(  13)  ---------------------------------------


    POTLOK:  cpu time    0.1470: real time    0.1492
    SETDIJ:  cpu time    0.0081: real time    0.0082
     EDDAV:  cpu time   13.2675: real time   13.4059
 BZINTS: Fermi energy: -2.162021;303.000000 electrons
         Band energy:***********;  BLOECHL correction:  0.000000
       DOS:  cpu time    0.0060: real time    0.0061
    CHARGE:  cpu time    0.1616: real time    0.1637
    MIXING:  cpu time    0.0041: real time    0.0043
    --------------------------------------------
      LOOP:  cpu time   13.5944: real time   13.7374

 eigenvalue-minimisations  :  5080
 total energy-change (2. order) :-0.4978411E-01  (-0.2885861E-01)
 number of electron     303.0000002 magnetization      -0.8994653
 augmentation part       13.5990567 magnetization      -0.7531552

 Broyden mixing:
  rms(total) = 0.39724E+00    rms(broyden)= 0.39715E+00
  rms(prec ) = 0.45521E+00
  weight for this iteration     100.00

 eigenvalues of (default mixing * dielectric matrix)
  average eigenvalue GAMMA=   1.2437
  3.6724  1.6594  1.6594  0.8878  0.8878  0.3367  0.3367  0.5096

 Free energy of the ion-electron system (eV)
  ---------------------------------------------------
  alpha Z        PSCENC =       167.22946921
  Ewald energy   TEWEN  =     28932.88187988
  -Hartree energ DENC   =    -39777.89679211
  -exchange      EXHF   =         0.00000000
  -V(xc)+E(xc)   XCENC  =      1063.48199675
  PAW double counting   =     31621.58591749   -31722.65377637
  entropy T*S    EENTRO =         0.00000000
  eigenvalues    EBANDS =     -3591.39997245
  atomic energy  EATOM  =     12644.75315347
  Solvation  Ediel_sol  =         0.00000000
  ---------------------------------------------------
  free energy    TOTEN  =      -662.01812412 eV

  energy without entropy =     -662.01812412  energy(sigma->0) =     -662.01812412


--------------------------------------------------------------------------------------------------------




--------------------------------------- Iteration      1(  14)  ---------------------------------------


    POTLOK:  cpu time    0.1474: real time    0.1497
    SETDIJ:  cpu time    0.0099: real time    0.0103
     EDDAV:  cpu time   11.9026: real time   12.0151
 BZINTS: Fermi energy: -2.161962;303.000000 electrons
         Band energy:***********;  BLOECHL correction:  0.000000
       DOS:  cpu time    0.0057: real time    0.0060
    CHARGE:  cpu time    0.1622: real time    0.1628
    MIXING:  cpu time    0.0041: real time    0.0041
    --------------------------------------------
      LOOP:  cpu time   12.2320: real time   12.3481

 eigenvalue-minimisations  :  4488
 total energy-change (2. order) :-0.1703575E-01  (-0.7587303E-02)
 number of electron     303.0000001 magnetization      -0.9009769
 augmentation part       13.5807314 magnetization      -0.8236442

 Broyden mixing:
  rms(total) = 0.34437E+00    rms(broyden)= 0.34433E+00
  rms(prec ) = 0.39782E+00
  weight for this iteration     100.00

 eigenvalues of (default mixing * dielectric matrix)
  average eigenvalue GAMMA=   1.3172
  3.6273  2.1204  2.1204  1.0057  1.0057  0.3364  0.3364  0.7096  0.5929

 Free energy of the ion-electron system (eV)
  ---------------------------------------------------
  alpha Z        PSCENC =       167.22946921
  Ewald energy   TEWEN  =     28932.88187988
  -Hartree energ DENC   =    -39777.98723861
  -exchange      EXHF   =         0.00000000
  -V(xc)+E(xc)   XCENC  =      1063.53822627
  PAW double counting   =     31754.09167874   -31855.10006349
  entropy T*S    EENTRO =         0.00000000
  eigenvalues    EBANDS =     -3591.44226534
  atomic energy  EATOM  =     12644.75315347
  Solvation  Ediel_sol  =         0.00000000
  ---------------------------------------------------
  free energy    TOTEN  =      -662.03515987 eV

  energy without entropy =     -662.03515987  energy(sigma->0) =     -662.03515987


--------------------------------------------------------------------------------------------------------




--------------------------------------- Iteration      1(  15)  ---------------------------------------


    POTLOK:  cpu time    0.1355: real time    0.1376
    SETDIJ:  cpu time    0.0097: real time    0.0097
     EDDAV:  cpu time   12.6024: real time   12.7450
 BZINTS: Fermi energy: -2.156727;303.000000 electrons
         Band energy:***********;  BLOECHL correction:  0.000000
       DOS:  cpu time    0.0049: real time    0.0049
    CHARGE:  cpu time    0.1624: real time    0.1629
    MIXING:  cpu time    0.0045: real time    0.0045
    --------------------------------------------
      LOOP:  cpu time   12.9193: real time   13.0647

 eigenvalue-minimisations  :  4792
 total energy-change (2. order) :-0.1147258E-02  (-0.4565664E-02)
 number of electron     303.0000001 magnetization      -0.9464027
 augmentation part       13.5467285 magnetization      -0.9488823

 Broyden mixing:
  rms(total) = 0.26550E+00    rms(broyden)= 0.26546E+00
  rms(prec ) = 0.31331E+00
  weight for this iteration     100.00

 eigenvalues of (default mixing * dielectric matrix)
  average eigenvalue GAMMA=   1.3678
  3.6268  2.4040  2.4040  1.1840  1.1840  0.8279  0.8279  0.3365  0.3365  0.5469

 Free energy of the ion-electron system (eV)
  ---------------------------------------------------
  alpha Z        PSCENC =       167.22946921
  Ewald energy   TEWEN  =     28932.88187988
  -Hartree energ DENC   =    -39780.42453677
  -exchange      EXHF   =         0.00000000
  -V(xc)+E(xc)   XCENC  =      1063.68499510
  PAW double counting   =     31747.26127066   -31848.23706659
  entropy T*S    EENTRO =         0.00000000
  eigenvalues    EBANDS =     -3589.18547210
  atomic energy  EATOM  =     12644.75315347
  Solvation  Ediel_sol  =         0.00000000
  ---------------------------------------------------
  free energy    TOTEN  =      -662.03630713 eV

  energy without entropy =     -662.03630713  energy(sigma->0) =     -662.03630713


--------------------------------------------------------------------------------------------------------




--------------------------------------- Iteration      1(  16)  ---------------------------------------


    POTLOK:  cpu time    0.1897: real time    0.1924
    SETDIJ:  cpu time    0.0100: real time    0.0100
     EDDAV:  cpu time   12.7696: real time   12.9027
 BZINTS: Fermi energy: -2.165791;303.000000 electrons
         Band energy:***********;  BLOECHL correction:  0.000000
       DOS:  cpu time    0.0047: real time    0.0047
    CHARGE:  cpu time    0.1833: real time    0.1867
    MIXING:  cpu time    0.0045: real time    0.0047
    --------------------------------------------
      LOOP:  cpu time   13.1618: real time   13.3012

 eigenvalue-minimisations  :  4920
 total energy-change (2. order) : 0.1503639E-01  (-0.2484232E-02)
 number of electron     303.0000000 magnetization      -0.9729675
 augmentation part       13.4976696 magnetization      -1.0235905

 Broyden mixing:
  rms(total) = 0.17868E+00    rms(broyden)= 0.17864E+00
  rms(prec ) = 0.21307E+00
  weight for this iteration     100.00

 eigenvalues of (default mixing * dielectric matrix)
  average eigenvalue GAMMA=   1.3748
  3.6803  2.3423  2.3423  1.8881  1.1872  0.8406  0.8406  0.3365  0.3365  0.7705
  0.5586

 Free energy of the ion-electron system (eV)
  ---------------------------------------------------
  alpha Z        PSCENC =       167.22946921
  Ewald energy   TEWEN  =     28932.88187988
  -Hartree energ DENC   =    -39778.33809301
  -exchange      EXHF   =         0.00000000
  -V(xc)+E(xc)   XCENC  =      1063.68125594
  PAW double counting   =     31791.72677646   -31892.63134334
  entropy T*S    EENTRO =         0.00000000
  eigenvalues    EBANDS =     -3591.32436936
  atomic energy  EATOM  =     12644.75315347
  Solvation  Ediel_sol  =         0.00000000
  ---------------------------------------------------
  free energy    TOTEN  =      -662.02127074 eV

  energy without entropy =     -662.02127074  energy(sigma->0) =     -662.02127074


[...]
   0.743E+01 0.835E+00 0.926E+01   -.778E+01 -.116E+01 -.924E+01   0.372E+00 0.364E+00 -.155E-01   -.382E-02 0.443E-02 -.178E-02
   0.237E+02 0.133E+02 0.235E+01   -.223E+02 -.140E+02 -.243E+01   -.148E+01 0.751E+00 0.123E+00   -.396E-01 -.106E-01 -.165E-01
   0.233E+02 -.898E+00 -.463E+00   -.218E+02 0.296E+00 0.541E+00   -.150E+01 0.548E+00 -.310E-01   -.396E-01 0.199E-01 -.165E-01
   -.446E+02 0.150E+02 0.147E+02   0.446E+02 -.159E+02 -.162E+02   -.788E-02 0.855E+00 0.142E+01   0.546E-01 -.233E-01 -.232E-01
   -.441E+02 -.156E+02 0.177E+02   0.442E+02 0.164E+02 -.191E+02   -.788E-02 -.833E+00 0.135E+01   0.532E-01 0.244E-01 -.234E-01
   -.114E+02 0.955E+00 -.773E+01   0.114E+02 -.943E+00 0.787E+01   0.293E-01 -.148E-04 -.135E+00   0.813E-02 -.174E-02 -.378E-02
   -.110E+02 -.168E+01 -.695E+01   0.110E+02 0.165E+01 0.709E+01   0.540E-01 0.497E-02 -.136E+00   0.831E-02 0.190E-02 -.376E-02
   -.534E+01 -.277E+01 0.546E+01   0.526E+01 0.276E+01 -.552E+01   0.114E+00 -.771E-05 0.823E-01   0.370E-02 0.209E-02 -.189E-02
   -.320E+01 -.481E+01 0.683E+01   0.309E+01 0.482E+01 -.680E+01   0.168E+00 0.198E-01 -.915E-02   0.448E-02 0.177E-02 -.158E-02
   0.737E+01 -.140E+01 0.105E+02   -.754E+01 0.122E+01 -.106E+02   0.140E+00 0.188E+00 0.438E-01   0.501E-03 0.417E-02 -.125E-02
   0.575E+01 -.388E+01 0.895E+01   -.627E+01 0.358E+01 -.892E+01   0.517E+00 0.296E+00 -.255E-01   0.183E-02 0.292E-02 -.118E-02
   0.202E+02 0.299E+01 0.876E+01   -.200E+02 -.470E+01 -.896E+01   -.231E+00 0.167E+01 0.229E+00   -.935E-02 0.877E-02 -.356E-02
   0.309E+02 0.300E+01 0.741E+01   -.360E+02 -.610E+01 -.746E+01   0.513E+01 0.312E+01 0.617E-01   -.614E-02 0.575E-02 -.247E-02
   -.810E+01 -.173E+02 -.136E+02   0.155E+02 0.114E+02 0.153E+02   -.738E+01 0.578E+01 -.169E+01   -.691E-01 0.732E-01 -.383E-01
   -.176E+02 -.711E+01 -.315E+01   0.229E+02 0.232E+01 0.365E+01   -.530E+01 0.474E+01 -.532E+00   -.145E-01 0.239E-01 -.104E-01
   0.147E+01 -.544E+02 0.769E+02   -.784E+01 0.515E+02 -.772E+02   0.644E+01 0.292E+01 0.281E+00   0.597E-01 0.891E-01 -.516E-01
   -.368E+01 -.253E+02 0.313E+02   0.376E+01 0.245E+02 -.316E+02   -.884E-01 0.778E+00 0.279E+00   0.725E-02 0.279E-01 -.125E-01
   -.185E+02 -.853E+01 -.973E+01   0.184E+02 0.844E+01 0.997E+01   0.355E-02 0.179E-01 -.264E+00   0.140E-01 0.669E-02 -.669E-02
   -.859E+01 -.131E+02 0.502E+01   0.851E+01 0.131E+02 -.509E+01   0.111E+00 0.260E-01 0.719E-01   0.592E-02 0.598E-02 -.377E-02
   -.442E+01 -.412E+01 0.596E+01   0.434E+01 0.413E+01 -.597E+01   0.453E-01 -.178E-01 0.158E-01   0.430E-02 0.217E-02 -.193E-02
   -.221E+01 -.388E+01 0.680E+01   0.222E+01 0.389E+01 -.683E+01   0.110E-01 -.464E-02 0.257E-01   0.231E-02 0.649E-03 -.155E-02
   0.174E+01 -.157E+00 0.906E+01   -.198E+01 0.173E+00 -.909E+01   0.189E+00 -.464E-01 0.426E-01   0.308E-02 0.153E-02 -.116E-02
   0.268E+01 -.196E+01 0.799E+01   -.286E+01 0.201E+01 -.798E+01   0.192E+00 -.387E-01 -.645E-02   0.285E-02 -.241E-03 -.122E-02
   0.131E+02 -.847E+00 0.820E+01   -.144E+02 0.123E+01 -.825E+01   0.128E+01 -.359E+00 0.443E-01   0.137E-03 0.153E-02 -.141E-02
   0.891E+01 -.732E+01 0.723E+01   -.961E+01 0.773E+01 -.725E+01   0.737E+00 -.421E+00 0.173E-01   0.597E-03 -.782E-03 -.132E-02
   -.201E+01 -.102E+02 0.884E+01   0.411E+01 0.915E+01 -.909E+01   -.210E+01 0.103E+01 0.245E+00   -.787E-02 0.103E-01 -.357E-02
   0.233E+01 -.313E+02 0.785E+01   -.216E+01 0.372E+02 -.798E+01   -.186E+00 -.595E+01 0.135E+00   -.191E-02 0.412E-02 -.182E-02
   -.372E+01 -.974E+01 0.968E+01   0.476E+01 0.948E+01 -.947E+01   -.103E+01 0.278E+00 -.212E+00   -.424E-02 0.203E-01 -.776E-02
   -.633E+01 -.145E+02 0.892E+01   0.699E+01 0.144E+02 -.894E+01   -.698E+00 0.960E-01 0.374E-01   -.354E-02 0.483E-02 -.257E-02
   -.516E+01 -.104E+02 0.150E+02   0.492E+01 0.102E+02 -.152E+02   0.217E+00 0.157E+00 0.152E+00   0.301E-02 0.963E-02 -.406E-02
   -.570E+01 -.948E+01 0.850E+01   0.583E+01 0.942E+01 -.852E+01   -.790E-01 0.852E-01 0.599E-02   -.428E-03 0.369E-02 -.208E-02
   0.489E+02 0.155E+01 -.570E+03   -.564E+02 -.183E+01 0.554E+03   0.719E+01 0.342E+00 0.164E+02   0.121E-01 0.471E-02 -.915E-01
   -.638E+02 -.144E+03 0.101E+03   0.711E+02 0.160E+03 -.120E+03   -.774E+01 -.175E+02 0.204E+02   -.404E-03 -.363E-03 0.806E-02
   0.558E+02 0.127E+03 -.148E+03   -.715E+02 -.162E+03 0.190E+03   0.162E+02 0.366E+02 -.426E+02   -.640E-03 -.950E-03 0.614E-02
 -----------------------------------------------------------------------------------------------
   -.109E+02 -.198E+02 0.552E+01   -.426E-13 0.114E-12 -.256E-12   0.109E+02 0.198E+02 -.498E+01   0.413E-01 -.929E-04 -.525E+00
 
 
 POSITION                                       TOTAL-FORCE (eV/Angst)
 -----------------------------------------------------------------------------------
      0.00059      0.00547      7.26279        -0.029346     -0.020698     -0.013149
      0.00257      1.42848      7.26220        -0.005863      0.015302     -0.008404
      2.47654      0.01675      7.25573        -0.015209     -0.034503      0.001032
      2.47539      1.43791      7.26782         0.055269      0.006376     -0.006307
      4.95168      0.01027      7.25063        -0.036092     -0.005644     -0.003011
      4.95238      1.43262      7.25640        -0.013770     -0.023535     -0.008146
      0.00487     12.73678      7.26518        -0.032957     -0.024714     -0.003473
      7.43678      1.39975      7.26566        -0.002851      0.028423     -0.008936
      2.46980     12.72097      7.27235         0.042993     -0.008692     -0.001396
      9.89941      1.38464      7.25828         0.039129      0.040919      0.006468
      4.94758     12.73523      7.25516         0.004626      0.032024     -0.009340
     12.37750      1.39534      7.24945         0.019374     -0.010951     -0.002526
     13.61430      2.11214      7.25609         0.006630     -0.024379     -0.005507
     -1.24591      3.54081      7.26339         0.041130      0.013740     -0.001995
      1.24150      2.15044      7.27249        -0.028818      0.013070      0.013910
      1.24420      3.58103      7.30481         0.043817     -0.015545     -0.005259
      3.71447      2.15518      7.27171        -0.035414     -0.003040      0.009973
      3.71357      3.57353      7.30581        -0.013663      0.026093     -0.004356
      6.19581      2.12068      7.26427         0.040709     -0.013499     -0.009015
      6.19634      3.54277      7.27491         0.001810      0.029482     -0.019535
      8.67131      2.10328      7.26433        -0.007238     -0.011608      0.003057
      8.67352      3.52671      7.28079         0.003000      0.001684      0.000539
     11.14034      2.09951      7.25052        -0.052862     -0.005009      0.004418
     11.14258      3.52239      7.25305        -0.017386      0.033217      0.014593
     12.37739      4.23658      7.25546        -0.037363      0.017735      0.006465
     -2.48567      5.67198      7.26079        -0.003429     -0.039212      0.000181
     -0.00912      4.25706      7.29493        -0.071804     -0.008741      0.008087
     -0.02686      5.67307      7.31821         0.012102      0.027908      0.021011
      2.48263      4.32626      7.36215         0.028630     -0.007449     -0.045956
      2.46139      5.75077      7.47815        -0.021983     -0.020120      0.004715
      4.95849      4.26743      7.27727        -0.033996      0.043805      0.016435
      4.98374      5.67677      7.32634         0.135371     -0.112918     -0.101571
      7.44148      4.23956      7.30925        -0.003920     -0.027334     -0.004014
      7.45688      5.65675      7.36935        -0.068861      0.072014     -0.021778
      9.90739      4.23591      7.27307         0.053524     -0.024315      0.017330
      9.91005      5.65808      7.28908         0.070000      0.009039      0.015919
     11.14302      6.37179      7.26628        -0.054622     -0.015074      0.010250
     -3.71747      7.80172      7.26484        -0.011109      0.012174      0.009805
     -1.25863      6.38659      7.28369        -0.002741     -0.036075     -0.004043
     -1.26035      7.80730      7.28305         0.021678      0.039450     -0.004089
      1.19625      6.37991      7.40302        -0.035442     -0.002955      0.025278
      1.19117      7.80528      7.41227        -0.028347     -0.034073      0.027808
      6.22181      6.36362      7.36605         0.124019     -0.008071     -0.059882
      6.22063      7.80280      7.35758         0.153954      0.019043     -0.054504
      8.68460      6.37035      7.34390         0.009116      0.010350      0.001750
      8.68346      7.79408      7.34000         0.039977     -0.022352      0.004362
     -4.94921      8.51474      7.28451         0.039645     -0.006341      0.024315
     -4.95122      9.93571      7.26710         0.064974      0.028079      0.018866
     -2.48546      8.51273      7.26005        -0.028433      0.018894     -0.003206
     -2.47475      9.93272      7.25578        -0.005371     -0.002577      0.007184
     -0.01975      8.51898      7.31937        -0.022371     -0.030384      0.028576
      0.00044      9.93232      7.29702         0.011518      0.020773      0.007091
      2.44276      8.44946      7.50986         0.008504      0.022725     -0.008334
      2.46345      9.85721      7.38362         0.004186     -0.024765     -0.040591
      4.97805      8.48500      7.31400         0.113397      0.053328     -0.065922
      4.94100      9.89249      7.27570        -0.005686     -0.035208     -0.000279
      7.45486      8.50753      7.35874        -0.100746     -0.067918     -0.024282
      7.43484      9.92371      7.29878         0.031145      0.043113     -0.003485
     -6.18774     10.64544      7.27319        -0.030775     -0.008767      0.002530
     -6.18979     12.06592      7.26035         0.021990      0.014613     -0.001035
     -3.71127     10.64612      7.25114        -0.042354     -0.028219      0.013515
     -3.71593     12.06521      7.24977         0.012734      0.005801      0.000914
     -1.23468     10.64250      7.26565        -0.015536      0.022481     -0.005348
     -1.24612     12.05833      7.25851         0.043601     -0.007641     -0.003736
      1.23428     10.60352      7.30990        -0.006198      0.024508     -0.009220
      1.23810     12.01448      7.27773        -0.013194     -0.040850      0.010502
      3.69772     10.60114      7.31238         0.002630      0.027635     -0.012046
      3.71257     12.01431      7.27492        -0.038639     -0.021137      0.009310
      6.18571     10.61837      7.26960        -0.021528     -0.032456     -0.012263
      6.18938     12.03810      7.26134         0.046061      0.029165     -0.008220
      3.92318      7.08233      8.02903        -0.350746      0.065113      0.264995
      3.92318      7.08233     14.00903        -0.489172     -1.105080      1.268083
      3.60217      6.35649     14.85437         0.488591      1.103776     -1.275110
 -----------------------------------------------------------------------------------
    total drift:                                0.003332     -0.000451      0.007945


--------------------------------------------------------------------------------------------------------



  FREE ENERGIE OF THE ION-ELECTRON SYSTEM (eV)
  ---------------------------------------------------
  free  energy   TOTEN  =      -668.40942011 eV

  energy  without entropy=     -668.40942011  energy(sigma->0) =     -668.40942011
 


--------------------------------------------------------------------------------------------------------


    POTLOK:  cpu time    0.1477: real time    0.1483


--------------------------------------------------------------------------------------------------------


 stress matrix after NEB project (eV)
     -8.58653     -0.53597      0.16995
     -0.53597     -1.45590      0.94811
      0.16995      0.94811     -4.39644
  FORCES: max atom, RMS     1.755833    0.300540
  FORCE total and by dimension    2.567814    1.275110
  Stress total and by dimension    9.879624    8.586530
     LOOP+:  cpu time  309.0523: real time  312.7337
    4ORBIT:  cpu time    0.0000: real time    0.0000
 


 total charge     
 
# of ion       s       p       d       tot
------------------------------------------
    1        0.863   1.781   0.000   2.644
    2        0.864   1.776   0.000   2.640
    3        0.864   1.784   0.000   2.648
    4        0.865   1.782   0.000   2.646
    5        0.864   1.789   0.000   2.653
    6        0.864   1.784   0.000   2.648
    7        0.862   1.788   0.000   2.650
    8        0.863   1.781   0.000   2.643
    9        0.861   1.792   0.000   2.653
   10        0.863   1.780   0.000   2.643
   11        0.863   1.788   0.000   2.651
   12        0.865   1.782   0.000   2.647
   13        0.864   1.786   0.000   2.650
   14        0.866   1.786   0.000   2.652
   15        0.862   1.777   0.000   2.639
   16        0.863   1.763   0.000   2.626
   17        0.863   1.778   0.000   2.641
   18        0.865   1.776   0.000   2.640
   19        0.864   1.784   0.000   2.647
   20        0.865   1.776   0.000   2.641
   21        0.865   1.791   0.000   2.656
   22        0.865   1.789   0.000   2.654
   23        0.863   1.785   0.000   2.648
   24        0.865   1.783   0.000   2.648
   25        0.864   1.787   0.000   2.651
   26        0.866   1.790   0.000   2.657
   27        0.866   1.790   0.000   2.656
   28        0.870   1.796   0.000   2.666
   29        0.859   1.746   0.000   2.605
   30        0.870   1.657   0.000   2.527
   31        0.866   1.778   0.000   2.643
   32        0.879   1.709   0.000   2.588
   33        0.866   1.788   0.000   2.654
   34        0.868   1.793   0.000   2.661
   35        0.865   1.788   0.000   2.653
   36        0.866   1.791   0.000   2.658
   37        0.866   1.791   0.000   2.658
   38        0.866   1.792   0.000   2.658
   39        0.866   1.792   0.000   2.659
   40        0.866   1.793   0.000   2.658
   41        0.877   1.789   0.000   2.665
   42        0.879   1.786   0.000   2.665
   43        0.868   1.776   0.000   2.644
   44        0.868   1.776   0.000   2.644
   45        0.867   1.794   0.000   2.660
   46        0.866   1.794   0.000   2.660
   47        0.867   1.792   0.000   2.659
   48        0.864   1.786   0.000   2.650
   49        0.867   1.798   0.000   2.665
   50        0.863   1.786   0.000   2.649
   51        0.868   1.805   0.000   2.673
   52        0.855   1.756   0.000   2.611
   53        0.871   1.676   0.000   2.547
   54        0.852   1.709   0.000   2.561
   55        0.878   1.710   0.000   2.588
   56        0.863   1.770   0.000   2.633
   57        0.869   1.793   0.000   2.662
   58        0.865   1.785   0.000   2.650
   59        0.865   1.787   0.000   2.651
   60        0.865   1.786   0.000   2.652
   61        0.864   1.784   0.000   2.648
   62        0.865   1.786   0.000   2.651
   63        0.863   1.795   0.000   2.657
   64        0.867   1.789   0.000   2.656
   65        1.211   2.680   0.000   3.891
   66        0.852   1.746   0.000   2.598
   67        0.861   1.783   0.000   2.644
   68        0.865   1.780   0.000   2.645
   69        0.863   1.773   0.000   2.636
   70        0.864   1.781   0.000   2.646
   71        0.381   6.317   4.317  11.016
   72        1.036   1.403   0.000   2.439
   73        1.637   3.515   0.000   5.152
--------------------------------------------------
tot         63.963 136.548   4.317 204.828
 


 magnetization (x)
 
# of ion       s       p       d       tot
------------------------------------------
    1       -0.000  -0.000   0.000  -0.001
    2        0.000   0.002   0.000   0.002
    3       -0.000  -0.001   0.000  -0.001
    4        0.001   0.009   0.000   0.009
    5       -0.000  -0.001   0.000  -0.002
    6        0.001   0.012   0.000   0.012
    7       -0.000  -0.001   0.000  -0.001
    8        0.000   0.002   0.000   0.002
    9        0.000   0.007   0.000   0.007
   10        0.000   0.002   0.000   0.003
   11        0.000   0.006   0.000   0.006
   12        0.000   0.003   0.000   0.003
   13       -0.000  -0.000   0.000  -0.000
   14        0.000   0.005   0.000   0.005
   15       -0.000  -0.000   0.000  -0.000
   16        0.001   0.008   0.000   0.009
   17       -0.001  -0.006   0.000  -0.007
   18        0.002   0.027   0.000   0.029
   19       -0.000  -0.001   0.000  -0.001
   20        0.001   0.007   0.000   0.008
   21       -0.000  -0.002   0.000  -0.002
   22        0.000   0.007   0.000   0.007
   23        0.000   0.005   0.000   0.005
   24       -0.000  -0.000   0.000  -0.000
   25        0.000   0.004   0.000   0.004
   26        0.000   0.005   0.000   0.005
   27       -0.000  -0.003   0.000  -0.003
   28        0.000   0.003   0.000   0.004
   29       -0.001  -0.009   0.000  -0.009
   30        0.012   0.071   0.000   0.083
   31       -0.002  -0.014   0.000  -0.016
   32        0.014   0.088   0.000   0.102
   33       -0.000  -0.003   0.000  -0.003
   34        0.000   0.002   0.000   0.002
   35        0.000   0.006   0.000   0.006
   36        0.000   0.003   0.000   0.003
   37       -0.000  -0.000   0.000  -0.000
   38        0.000   0.002   0.000   0.002
   39        0.000   0.004   0.000   0.004
   40        0.000   0.008   0.000   0.008
   41       -0.001   0.002   0.000   0.001
   42       -0.000   0.014   0.000   0.014
   43       -0.000   0.009   0.000   0.008
   44       -0.000   0.014   0.000   0.013
   45        0.000   0.004   0.000   0.005
   46        0.001   0.010   0.000   0.011
   47       -0.000  -0.001   0.000  -0.001
   48        0.001   0.009   0.000   0.010
   49       -0.000  -0.001   0.000  -0.001
   50        0.001   0.012   0.000   0.013
   51        0.000   0.002   0.000   0.002
   52        0.000   0.002   0.000   0.002
   53        0.012   0.059   0.000   0.070
   54       -0.000  -0.006   0.000  -0.006
   55        0.014   0.080   0.000   0.094
   56       -0.001  -0.009   0.000  -0.010
   57       -0.000  -0.000   0.000  -0.001
   58       -0.000  -0.001   0.000  -0.001
   59        0.000   0.002   0.000   0.002
   60        0.000   0.003   0.000   0.004
   61       -0.000  -0.003   0.000  -0.003
   62        0.000   0.008   0.000   0.008
   63       -0.000   0.000   0.000   0.000
   64        0.000   0.003   0.000   0.003
   65        0.001   0.004   0.000   0.004
   66        0.000   0.005   0.000   0.005
   67        0.001   0.023   0.000   0.025
   68       -0.001  -0.004   0.000  -0.005
   69        0.001   0.004   0.000   0.004
   70        0.000   0.003   0.000   0.003
   71       -0.033   0.004  -1.742  -1.771
   72        0.000   0.000   0.000   0.000
   73        0.000  -0.000   0.000   0.000
--------------------------------------------------
tot          0.024   0.506  -1.742  -1.212
 
 BZINTS: Fermi energy: -2.114529;303.000000 electrons
         Band energy:***********;  BLOECHL correction:  0.000000

 total amount of memory used by VASP MPI-rank0   116305. kBytes
=======================================================================

   base      :      30000. kBytes
   nonl-proj :      27396. kBytes
   fftplans  :       4700. kBytes
   grid      :      15193. kBytes
   one-center:        217. kBytes
   wavefun   :      38799. kBytes
 
  
  
 General timing and accounting informations for this job:
 ========================================================
  
                  Total CPU time used (sec):      327.290
                            User time (sec):      318.362
                          System time (sec):        8.928
                         Elapsed time (sec):      340.072
  
                   Maximum memory used (kb):      474260.
                   Average memory used (kb):           0.
  
                          Minor page faults:      1651653
                          Major page faults:            0
                 Voluntary context switches:         9183
