 vasp.5.4.4.18Apr17-6-g9f103f2a35 (build Jan 14 2022 15:04:31) complex          
  
 executed on             LinuxIFC date 2023.01.27  22:54:35
 running on   48 total cores
 distrk:  each k-point on   48 cores,    1 groups
 distr:  one band on NCORES_PER_BAND=  12 cores,    4 groups


--------------------------------------------------------------------------------------------------------


 INCAR:
 POTCAR:    PAW_PBE C 08Apr2002                   
 POTCAR:    PAW_PBE N 08Apr2002                   
 POTCAR:    PAW_PBE C 08Apr2002                   
 POTCAR:    PAW_PBE Cr_pv 02Aug2007               
 POTCAR:    PAW_PBE C 08Apr2002                   
 POTCAR:    PAW_PBE O 08Apr2002                   
 POTCAR:    PAW_PBE C 08Apr2002                   
   SHA256 =  253f7b50bb8d59471dbedb8285d89021f4a42ed1a2c5d38a03a736e69125dd95 C/
   COPYR  = (c) Copyright 08Apr2002 Georg Kresse                                
   COPYR  = This file is part of the software VASP. Any use, copying, and all ot
   COPYR  = If you do not have a valid VASP license, you may not use, copy or di
   VRHFIN =C: s2p2                                                              
   LEXCH  = PE                                                                  
   EATOM  =   147.1560 eV,   10.8157 Ry                                         
                                                                                
   TITEL  = PAW_PBE C 08Apr2002                                                 
   LULTRA =        F    use ultrasoft PP ?                                      
   IUNSCR =        1    unscreen: 0-lin 1-nonlin 2-no                           
   RPACOR =    1.200    partial core radius                                     
   POMASS =   12.011; ZVAL   =    4.000    mass and valenz                      
   RCORE  =    1.500    outmost cutoff radius                                   
   RWIGS  =    1.630; RWIGS  =    0.863    wigner-seitz radius (au A)           
   ENMAX  =  400.000; ENMIN  =  300.000 eV                                      
   ICORE  =        2    local potential                                         
   LCOR   =        T    correct aug charges                                     
   LPAW   =        T    paw PP                                                  
   EAUG   =  644.873                                                            
   DEXC   =    0.000                                                            
   RMAX   =    1.529    core radius for proj-oper                               
   RAUG   =    1.300    factor for augmentation sphere                          
   RDEP   =    1.501    radius for radial grids                                 
   RDEPT  =    1.300    core radius for aug-charge                              
                                                                                
   Atomic configuration                                                         
    4 entries                                                                   
     n  l   j            E        occ.                                          
     1  0  0.50      -273.3789   2.0000                                         
     2  0  0.50       -13.7508   2.0000                                         
     2  1  0.50        -5.2854   2.0000                                         
     3  2  1.50        -5.4423   0.0000                                         
   Description                                                                  
     l       E           TYP  RCUT    TYP  RCUT                                 
     0    -13.7508458     23  1.200                                             
     0     -8.2022199     23  1.200                                             
     1     -5.2854383     23  1.500                                             
     1     34.0145650     23  1.500                                             
     2     -5.4423304      7  1.500                                             
  local pseudopotential read in
  partial core-charges read in
  partial kinetic energy density read in
  atomic valenz-charges read in
  non local Contribution for L=           0  read in
    real space projection operators read in
  non local Contribution for L=           0  read in
    real space projection operators read in
  non local Contribution for L=           1  read in
    real space projection operators read in
  non local Contribution for L=           1  read in
    real space projection operators read in
    PAW grid and wavefunctions read in
 
   number of l-projection  operators is LMAX  =           4
   number of lm-projection operators is LMMAX =           8
 
 POTCAR:    PAW_PBE N 08Apr2002                   
   SHA256 =  e053789ff3a61a86a1b75d8a110fcc91f86041011e7b0817c7c99e4e8a6349d7 N/
   COPYR  = (c) Copyright 08Apr2002 Georg Kresse                                
   COPYR  = This file is part of the software VASP. Any use, copying, and all ot
   COPYR  = If you do not have a valid VASP license, you may not use, copy or di
   VRHFIN =N: s2p3                                                              
   LEXCH  = PE                                                                  
   EATOM  =   264.5486 eV,   19.4438 Ry                                         
                                                                                
   TITEL  = PAW_PBE N 08Apr2002                                                 
   LULTRA =        F    use ultrasoft PP ?                                      
   IUNSCR =        1    unscreen: 0-lin 1-nonlin 2-no                           
   RPACOR =    1.200    partial core radius                                     
   POMASS =   14.001; ZVAL   =    5.000    mass and valenz                      
   RCORE  =    1.500    outmost cutoff radius                                   
   RWIGS  =    1.400; RWIGS  =    0.741    wigner-seitz radius (au A)           
   ENMAX  =  400.000; ENMIN  =  300.000 eV                                      
   ICORE  =        2    local potential                                         
   LCOR   =        T    correct aug charges                                     
   LPAW   =        T    paw PP                                                  
   EAUG   =  627.112                                                            
   DEXC   =    0.000                                                            
   RMAX   =    1.529    core radius for proj-oper                               
   RAUG   =    1.300    factor for augmentation sphere                          
   RDEP   =    1.514    radius for radial grids                                 
   RDEPT  =    1.338    core radius for aug-charge                              
                                                                                
   Atomic configuration                                                         
    4 entries                                                                   
     n  l   j            E        occ.                                          
     1  0  0.50      -384.7179   2.0000                                         
     2  0  0.50       -18.5828   2.0000                                         
     2  1  0.50        -7.0898   3.0000                                         
     3  2  1.50        -6.8029   0.0000                                         
   Description                                                                  
     l       E           TYP  RCUT    TYP  RCUT                                 
     0    -18.5828119     23  1.200                                             
     0    -13.5018863     23  1.200                                             
     1     -7.0897853     23  1.500                                             
     1      9.5240782     23  1.500                                             
     2     -6.8029130      7  1.500                                             
  local pseudopotential read in
  partial core-charges read in
  partial kinetic energy density read in
  atomic valenz-charges read in
  non local Contribution for L=           0  read in
    real space projection operators read in
  non local Contribution for L=           0  read in
    real space projection operators read in
  non local Contribution for L=           1  read in
    real space projection operators read in
  non local Contribution for L=           1  read in
    real space projection operators read in
    PAW grid and wavefunctions read in
 
   number of l-projection  operators is LMAX  =           4
   number of lm-projection operators is LMMAX =           8
 
 POTCAR:    PAW_PBE C 08Apr2002                   
   SHA256 =  253f7b50bb8d59471dbedb8285d89021f4a42ed1a2c5d38a03a736e69125dd95 C/
   COPYR  = (c) Copyright 08Apr2002 Georg Kresse                                
   COPYR  = This file is part of the software VASP. Any use, copying, and all ot
   COPYR  = If you do not have a valid VASP license, you may not use, copy or di
   VRHFIN =C: s2p2                                                              
   LEXCH  = PE                                                                  
   EATOM  =   147.1560 eV,   10.8157 Ry                                         
                                                                                
   TITEL  = PAW_PBE C 08Apr2002                                                 
   LULTRA =        F    use ultrasoft PP ?                                      
   IUNSCR =        1    unscreen: 0-lin 1-nonlin 2-no                           
   RPACOR =    1.200    partial core radius                                     
   POMASS =   12.011; ZVAL   =    4.000    mass and valenz                      
   RCORE  =    1.500    outmost cutoff radius                                   
   RWIGS  =    1.630; RWIGS  =    0.863    wigner-seitz radius (au A)           
   ENMAX  =  400.000; ENMIN  =  300.000 eV                                      
   ICORE  =        2    local potential                                         
   LCOR   =        T    correct aug charges                                     
   LPAW   =        T    paw PP                                                  
   EAUG   =  644.873                                                            
   DEXC   =    0.000                                                            
   RMAX   =    1.529    core radius for proj-oper                               
   RAUG   =    1.300    factor for augmentation sphere                          
   RDEP   =    1.501    radius for radial grids                                 
   RDEPT  =    1.300    core radius for aug-charge                              
                                                                                
   Atomic configuration                                                         
    4 entries                                                                   
     n  l   j            E        occ.                                          
     1  0  0.50      -273.3789   2.0000                                         
     2  0  0.50       -13.7508   2.0000                                         
     2  1  0.50        -5.2854   2.0000                                         
     3  2  1.50        -5.4423   0.0000                                         
   Description                                                                  
     l       E           TYP  RCUT    TYP  RCUT                                 
     0    -13.7508458     23  1.200                                             
     0     -8.2022199     23  1.200                                             
     1     -5.2854383     23  1.500                                             
     1     34.0145650     23  1.500                                             
     2     -5.4423304      7  1.500                                             
  local pseudopotential read in
  partial core-charges read in
  partial kinetic energy density read in
  atomic valenz-charges read in
  non local Contribution for L=           0  read in
    real space projection operators read in
  non local Contribution for L=           0  read in
    real space projection operators read in
  non local Contribution for L=           1  read in
    real space projection operators read in
  non local Contribution for L=           1  read in
    real space projection operators read in
    PAW grid and wavefunctions read in
 
   number of l-projection  operators is LMAX  =           4
   number of lm-projection operators is LMMAX =           8
 
 POTCAR:    PAW_PBE Cr_pv 02Aug2007               
   SHA256 =  c9a7df34d3cdbacf1090e328ef39c0b420964e11c23f63548d1ac9dd218cdba0 Cr
   COPYR  = (c) Copyright 02Aug2007 Georg Kresse                                
   COPYR  = This file is part of the software VASP. Any use, copying, and all ot
   COPYR  = If you do not have a valid VASP license, you may not use, copy or di
   VRHFIN =Cr : p6d5s1                                                          
   LEXCH  = PE                                                                  
   EATOM  =  1647.9177 eV,  121.1185 Ry                                         
                                                                                
   TITEL  = PAW_PBE Cr_pv 02Aug2007                                             
   LULTRA =        F    use ultrasoft PP ?                                      
   IUNSCR =        1    unscreen: 0-lin 1-nonlin 2-no                           
   RPACOR =    2.080    partial core radius                                     
   POMASS =   51.996; ZVAL   =   12.000    mass and valenz                      
   RCORE  =    2.300    outmost cutoff radius                                   
   RWIGS  =    2.500; RWIGS  =    1.323    wigner-seitz radius (au A)           
   ENMAX  =  265.681; ENMIN  =  199.261 eV                                      
   ICORE  =        3    local potential                                         
   LCOR   =        T    correct aug charges                                     
   LPAW   =        T    paw PP                                                  
   EAUG   =  519.424                                                            
   DEXC   =    0.000                                                            
   RMAX   =    2.356    core radius for proj-oper                               
   RAUG   =    1.300    factor for augmentation sphere                          
   RDEP   =    2.447    radius for radial grids                                 
   RDEPT  =    1.882    core radius for aug-charge                              
                                                                                
   Atomic configuration                                                         
    8 entries                                                                   
     n  l   j            E        occ.                                          
     1  0  0.50     -5880.4963   2.0000                                         
     2  0  0.50      -667.0865   2.0000                                         
     2  1  1.50      -560.6250   6.0000                                         
     3  0  0.50       -73.9860   2.0000                                         
     3  1  1.50       -45.4378   6.0000                                         
     3  2  2.50        -2.9137   5.0000                                         
     4  0  0.50        -4.0071   1.0000                                         
     4  3  2.50        -1.3606   0.0000                                         
   Description                                                                  
     l       E           TYP  RCUT    TYP  RCUT                                 
     1    -45.4377911     23  2.000                                             
     1      1.3605826     23  2.000                                             
     2     -2.9136672     23  2.300                                             
     2     -4.2742498     23  2.300                                             
     0     -4.0071320     23  2.300                                             
     0      9.4498803     23  2.300                                             
     3      2.7211652     23  2.300                                             
  local pseudopotential read in
  partial core-charges read in
  partial kinetic energy density read in
  atomic valenz-charges read in
  non local Contribution for L=           1  read in
    real space projection operators read in
  non local Contribution for L=           1  read in
    real space projection operators read in
  non local Contribution for L=           2  read in
    real space projection operators read in
  non local Contribution for L=           2  read in
    real space projection operators read in
  non local Contribution for L=           0  read in
    real space projection operators read in
  non local Contribution for L=           0  read in
    real space projection operators read in
    PAW grid and wavefunctions read in
 
   number of l-projection  operators is LMAX  =           6
   number of lm-projection operators is LMMAX =          18
 
 POTCAR:    PAW_PBE C 08Apr2002                   
   SHA256 =  253f7b50bb8d59471dbedb8285d89021f4a42ed1a2c5d38a03a736e69125dd95 C/
   COPYR  = (c) Copyright 08Apr2002 Georg Kresse                                
   COPYR  = This file is part of the software VASP. Any use, copying, and all ot
   COPYR  = If you do not have a valid VASP license, you may not use, copy or di
   VRHFIN =C: s2p2                                                              
   LEXCH  = PE                                                                  
   EATOM  =   147.1560 eV,   10.8157 Ry                                         
                                                                                
   TITEL  = PAW_PBE C 08Apr2002                                                 
   LULTRA =        F    use ultrasoft PP ?                                      
   IUNSCR =        1    unscreen: 0-lin 1-nonlin 2-no                           
   RPACOR =    1.200    partial core radius                                     
   POMASS =   12.011; ZVAL   =    4.000    mass and valenz                      
   RCORE  =    1.500    outmost cutoff radius                                   
   RWIGS  =    1.630; RWIGS  =    0.863    wigner-seitz radius (au A)           
   ENMAX  =  400.000; ENMIN  =  300.000 eV                                      
   ICORE  =        2    local potential                                         
   LCOR   =        T    correct aug charges                                     
   LPAW   =        T    paw PP                                                  
   EAUG   =  644.873                                                            
   DEXC   =    0.000                                                            
   RMAX   =    1.529    core radius for proj-oper                               
   RAUG   =    1.300    factor for augmentation sphere                          
   RDEP   =    1.501    radius for radial grids                                 
   RDEPT  =    1.300    core radius for aug-charge                              
                                                                                
   Atomic configuration                                                         
    4 entries                                                                   
     n  l   j            E        occ.                                          
     1  0  0.50      -273.3789   2.0000                                         
     2  0  0.50       -13.7508   2.0000                                         
     2  1  0.50        -5.2854   2.0000                                         
     3  2  1.50        -5.4423   0.0000                                         
   Description                                                                  
     l       E           TYP  RCUT    TYP  RCUT                                 
     0    -13.7508458     23  1.200                                             
     0     -8.2022199     23  1.200                                             
     1     -5.2854383     23  1.500                                             
     1     34.0145650     23  1.500                                             
     2     -5.4423304      7  1.500                                             
  local pseudopotential read in
  partial core-charges read in
  partial kinetic energy density read in
  atomic valenz-charges read in
  non local Contribution for L=           0  read in
    real space projection operators read in
  non local Contribution for L=           0  read in
    real space projection operators read in
  non local Contribution for L=           1  read in
    real space projection operators read in
  non local Contribution for L=           1  read in
    real space projection operators read in
    PAW grid and wavefunctions read in
 
   number of l-projection  operators is LMAX  =           4
   number of lm-projection operators is LMMAX =           8
 
 POTCAR:    PAW_PBE O 08Apr2002                   
   SHA256 =  818f92134a0a090dccd8ba1447fa70422a3b330e708bb4f08108d8ae51209ddf O/
   COPYR  = (c) Copyright 08Apr2002 Georg Kresse                                
   COPYR  = This file is part of the software VASP. Any use, copying, and all ot
   COPYR  = If you do not have a valid VASP license, you may not use, copy or di
   VRHFIN =O: s2p4                                                              
   LEXCH  = PE                                                                  
   EATOM  =   432.3788 eV,   31.7789 Ry                                         
                                                                                
   TITEL  = PAW_PBE O 08Apr2002                                                 
   LULTRA =        F    use ultrasoft PP ?                                      
   IUNSCR =        1    unscreen: 0-lin 1-nonlin 2-no                           
   RPACOR =    1.200    partial core radius                                     
   POMASS =   16.000; ZVAL   =    6.000    mass and valenz                      
   RCORE  =    1.520    outmost cutoff radius                                   
   RWIGS  =    1.550; RWIGS  =    0.820    wigner-seitz radius (au A)           
   ENMAX  =  400.000; ENMIN  =  300.000 eV                                      
   ICORE  =        2    local potential                                         
   LCOR   =        T    correct aug charges                                     
   LPAW   =        T    paw PP                                                  
   EAUG   =  605.392                                                            
   DEXC   =    0.000                                                            
   RMAX   =    1.553    core radius for proj-oper                               
   RAUG   =    1.300    factor for augmentation sphere                          
   RDEP   =    1.550    radius for radial grids                                 
   RDEPT  =    1.329    core radius for aug-charge                              
                                                                                
   Atomic configuration                                                         
    4 entries                                                                   
     n  l   j            E        occ.                                          
     1  0  0.50      -514.6923   2.0000                                         
     2  0  0.50       -23.9615   2.0000                                         
     2  1  0.50        -9.0305   4.0000                                         
     3  2  1.50        -9.5241   0.0000                                         
   Description                                                                  
     l       E           TYP  RCUT    TYP  RCUT                                 
     0    -23.9615318     23  1.200                                             
     0     -9.5240782     23  1.200                                             
     1     -9.0304911     23  1.520                                             
     1      8.1634956     23  1.520                                             
     2     -9.5240782      7  1.500                                             
  local pseudopotential read in
  partial core-charges read in
  partial kinetic energy density read in
  kinetic energy density of atom read in
  atomic valenz-charges read in
  non local Contribution for L=           0  read in
    real space projection operators read in
  non local Contribution for L=           0  read in
    real space projection operators read in
  non local Contribution for L=           1  read in
    real space projection operators read in
  non local Contribution for L=           1  read in
    real space projection operators read in
    PAW grid and wavefunctions read in
 
   number of l-projection  operators is LMAX  =           4
   number of lm-projection operators is LMMAX =           8
 

 ----------------------------------------------------------------------------- 
|                                                                             |
|  ADVICE TO THIS USER RUNNING 'VASP/VAMP'   (HEAR YOUR MASTER'S VOICE ...):  |
|                                                                             |
|      You have a (more or less) 'large supercell' and for larger cells       |
|      it might be more efficient to use real space projection opertators     |
|      So try LREAL= Auto  in the INCAR   file.                               |
|      Mind:          For very  accurate calculation you might also keep the  |
|      reciprocal projection scheme          (i.e. LREAL=.FALSE.)             |
|                                                                             |
 ----------------------------------------------------------------------------- 

  PAW_PBE C 08Apr2002                   :
 energy of atom  1       EATOM= -147.1560
 kinetic energy error for atom=    0.0132 (will be added to EATOM!!)
  PAW_PBE N 08Apr2002                   :
 energy of atom  2       EATOM= -264.5486
 kinetic energy error for atom=    0.0298 (will be added to EATOM!!)
  PAW_PBE C 08Apr2002                   :
 energy of atom  3       EATOM= -147.1560
 kinetic energy error for atom=    0.0132 (will be added to EATOM!!)
  PAW_PBE Cr_pv 02Aug2007               :
 energy of atom  4       EATOM=-1647.9177
 kinetic energy error for atom=    0.0134 (will be added to EATOM!!)
  PAW_PBE C 08Apr2002                   :
 energy of atom  5       EATOM= -147.1560
 kinetic energy error for atom=    0.0132 (will be added to EATOM!!)
  PAW_PBE O 08Apr2002                   :
 energy of atom  6       EATOM= -432.3788
 kinetic energy error for atom=    0.0458 (will be added to EATOM!!)
 
 
 POSCAR: POSCAR-clean                            
  positions in cartesian coordinates
  No initial velocities read in
 exchange correlation table for  LEXCH =        8
   RHO(1)=    0.500       N(1)  =     2000
   RHO(2)=  100.500       N(2)  =     4000

 VTST: version 3.2, (02/03/18)

 CHAIN: initializing optimizer
 
 OPT: Using VASP Dynamics algorithm
 CHAIN: Read ICHAIN            0
 
 POSCAR: POSCAR-clean                            
  positions in cartesian coordinates
  No initial velocities read in
 


--------------------------------------------------------------------------------------------------------


 ion  position               nearest neighbor table
   1  1.000  1.000  0.484-   2 1.42  60 1.43  70 1.44
   2  0.056  0.111  0.484-   1 1.42  13 1.42  15 1.43
   3  0.168  0.002  0.483-   4 1.42  62 1.43  60 1.43
   4  0.224  0.113  0.484-   3 1.42  15 1.42  17 1.43
   5  0.335  0.002  0.484-   6 1.42  62 1.43  64 1.43
   6  0.390  0.113  0.484-   5 1.42  19 1.42  17 1.44
   7  0.501  0.999  0.484-  66 1.42   8 1.42  64 1.42
   8  0.556  0.111  0.484-   7 1.42  21 1.42  19 1.44
   9  0.665  0.997  0.484-  66 1.41  10 1.42  68 1.43
  10  0.721  0.108  0.484-   9 1.42  21 1.43  23 1.43
  11  0.832  0.998  0.484-  12 1.42  70 1.43  68 1.44
  12  0.888  0.109  0.484-  11 1.42  23 1.42  13 1.43
  13  0.999  0.165  0.484-  14 1.42   2 1.42  12 1.43
  14  0.054  0.277  0.484-  13 1.42  25 1.42  27 1.43
  15  0.167  0.168  0.484-   4 1.42  16 1.42   2 1.43
  16  0.223  0.280  0.486-  27 1.42  15 1.42  29 1.44
  17  0.335  0.170  0.485-  18 1.42   4 1.43   6 1.44
  18  0.391  0.281  0.488-  17 1.42  31 1.44  29 1.44
  19  0.501  0.167  0.484-   6 1.42  20 1.43   8 1.44
  20  0.557  0.279  0.486-  33 1.42  19 1.43  31 1.44
  21  0.667  0.166  0.483-  22 1.41   8 1.42  10 1.43
  22  0.722  0.277  0.484-  21 1.41  35 1.42  33 1.43
  23  0.832  0.164  0.484-  12 1.42  24 1.42  10 1.43
  24  0.888  0.276  0.484-  35 1.42  23 1.42  25 1.43
  25  0.999  0.332  0.484-  14 1.42  24 1.43  26 1.43
  26  0.055  0.444  0.485-  39 1.42  37 1.42  25 1.43
  27  0.165  0.333  0.486-  28 1.42  16 1.42  14 1.43
  28  0.219  0.444  0.488-  41 1.41  27 1.42  39 1.42
  29  0.335  0.338  0.489-  30 1.42  18 1.44  16 1.44
  30  0.388  0.449  0.495-  41 1.41  29 1.42  71 2.00
  31  0.503  0.338  0.489-  32 1.42  18 1.44  20 1.44
  32  0.561  0.448  0.496-  43 1.41  31 1.42  71 2.00
  33  0.668  0.333  0.486-  34 1.42  20 1.42  22 1.43
  34  0.725  0.444  0.487-  43 1.41  33 1.42  45 1.42
  35  0.833  0.332  0.484-  24 1.42  36 1.42  22 1.42
  36  0.889  0.444  0.484-  45 1.41  37 1.42  35 1.42
  37  0.000  0.500  0.484-  26 1.42  36 1.42  38 1.42
  38  0.056  0.611  0.484-  49 1.42  47 1.42  37 1.42
  39  0.165  0.500  0.486-  26 1.42  28 1.42  40 1.42
  40  0.221  0.612  0.486-  49 1.41  39 1.42  51 1.42
  41  0.329  0.500  0.491-  30 1.41  28 1.41  42 1.44
  42  0.385  0.612  0.491-  51 1.41  53 1.41  41 1.44
  43  0.670  0.499  0.491-  32 1.41  34 1.41  44 1.44
  44  0.727  0.612  0.491-  55 1.41  57 1.41  43 1.44
  45  0.835  0.500  0.486-  36 1.41  34 1.42  46 1.42
  46  0.891  0.611  0.486-  47 1.42  57 1.42  45 1.42
  47  0.001  0.667  0.484-  46 1.42  38 1.42  48 1.42
  48  0.057  0.779  0.484-  59 1.42  47 1.42  61 1.42
  49  0.166  0.667  0.485-  40 1.41  38 1.42  50 1.43
  50  0.223  0.779  0.484-  63 1.42  61 1.42  49 1.43
  51  0.332  0.668  0.488-  42 1.41  52 1.42  40 1.42
  52  0.389  0.779  0.486-  65 1.42  63 1.42  51 1.42
  53  0.495  0.664  0.496-  42 1.41  54 1.42  71 2.00
  54  0.553  0.774  0.490-  53 1.42  65 1.44  67 1.44
  55  0.668  0.662  0.495-  44 1.41  56 1.42  71 1.99
  56  0.720  0.773  0.489-  55 1.42  67 1.43  69 1.45
  57  0.836  0.667  0.487-  44 1.41  58 1.42  46 1.42
  58  0.890  0.778  0.486-  57 1.42  69 1.42  59 1.43
  59  0.001  0.835  0.484-  60 1.42  48 1.42  58 1.43
  60  0.057  0.946  0.483-  59 1.42   1 1.43   3 1.43
  61  0.168  0.835  0.484-  62 1.42  50 1.42  48 1.42
  62  0.224  0.946  0.484-  61 1.42   3 1.43   5 1.43
  63  0.333  0.834  0.484-  64 1.42  50 1.42  52 1.42
  64  0.390  0.945  0.484-  63 1.42   7 1.42   5 1.43
  65  0.499  0.833  0.486-  66 1.41  52 1.42  54 1.44
  66  0.555  0.943  0.484-  65 1.41   9 1.41   7 1.42
  67  0.665  0.830  0.488-  68 1.42  56 1.43  54 1.44
  68  0.720  0.941  0.485-  67 1.42   9 1.43  11 1.44
  69  0.833  0.832  0.486-  70 1.42  58 1.42  56 1.45
  70  0.888  0.943  0.484-  69 1.42  11 1.43   1 1.44
  71  0.528  0.556  0.541-  55 1.99  30 2.00  32 2.00  53 2.00
  72  0.528  0.556  0.939-  73 1.16
  73  0.478  0.499  0.996-  72 1.16
 

IMPORTANT INFORMATION: All symmetrisations will be switched off!
NOSYMM: (Re-)initialisation of all symmetry stuff for point group C_1.

 
 
 KPOINTS: K-Points                                

Automatic generation of k-mesh.
Space group operators:
 irot       det(A)        alpha          n_x          n_y          n_z        tau_x        tau_y        tau_z
    1     1.000000     0.000000     1.000000     0.000000     0.000000     0.000000     0.000000     0.000000
 
 Subroutine IBZKPT returns following result:
 ===========================================
 
 Found      5 irreducible k-points:
 
 Following reciprocal coordinates:
            Coordinates               Weight
  0.000000  0.000000  0.000000      1.000000
  0.333333  0.000000  0.000000      2.000000
  0.000000  0.333333  0.000000      2.000000
  0.333333  0.333333  0.000000      2.000000
 -0.333333  0.333333  0.000000      2.000000
 
 Following cartesian coordinates:
            Coordinates               Weight
  0.000000  0.000000  0.000000      1.000000
  0.022433  0.013066  0.000000      2.000000
 -0.000001  0.026131  0.000000      2.000000
  0.022431  0.039197  0.000000      2.000000
 -0.022434  0.013066  0.000000      2.000000
 
 TETIRR: Found     24 inequivalent tetrahedra from       54


--------------------------------------------------------------------------------------------------------




 Dimension of arrays:
   k-points           NKPTS =      5   k-points in BZ     NKDIM =      5   number of bands    NBANDS=    192
   number of dos      NEDOS =   4000   number of ions     NIONS =     73
   non local maximal  LDIM  =      6   non local SUM 2l+1 LMDIM =     18
   total plane-waves  NPLWV = 512000
   max r-space proj   IRMAX =      1   max aug-charges    IRDMAX=   6465
   dimension x,y,z NGX =    80 NGY =   80 NGZ =   80
   dimension x,y,z NGXF=   160 NGYF=  160 NGZF=  160
   support grid    NGXF=   160 NGYF=  160 NGZF=  160
   ions per type =              65   1   4   1   1   1
   NGX,Y,Z   is equivalent  to a cutoff of   8.95,  9.01,  8.87 a.u.
   NGXF,Y,Z  is equivalent  to a cutoff of  17.90, 18.02, 17.73 a.u.

 SYSTEM =  unknown system                          
 POSCAR =  POSCAR-clean                            

 Startparameter for this run:
   NWRITE =      2    write-flag & timer
   PREC   = normal    normal or accurate (medium, high low for compatibility)
   ISTART =      0    job   : 0-new  1-cont  2-samecut
   ICHARG =      2    charge: 1-file 2-atom 10-const
   ISPIN  =      2    spin polarized calculation?
   LNONCOLLINEAR =      F non collinear calculations
   LSORBIT =      F    spin-orbit coupling
   INIWAV =      1    electr: 0-lowe 1-rand  2-diag
   LASPH  =      F    aspherical Exc in radial PAW
   METAGGA=      F    non-selfconsistent MetaGGA calc.

 Electronic Relaxation 1
   ENCUT  =  440.0 eV  32.34 Ry    5.69 a.u.  25.41 25.25 25.66*2*pi/ulx,y,z
   ENINI  =  440.0     initial cutoff
   ENAUG  =  644.9 eV  augmentation charge cutoff
   NELM   =    100;   NELMIN=  2; NELMDL= -5     # of ELM steps 
   EDIFF  = 0.1E-03   stopping-criterion for ELM
   LREAL  =      F    real-space projection
   NLSPLINE    = F    spline interpolate recip. space projectors
   LCOMPAT=      F    compatible to vasp.4.4
   GGA_COMPAT  = T    GGA compatible to vasp.4.4-vasp.4.6
   LMAXPAW     = -100 max onsite density
   LMAXMIX     =    2 max onsite mixed and CHGCAR
   VOSKOWN=      0    Vosko Wilk Nusair interpolation
   ROPT   =    0.00000   0.00000   0.00000   0.00000
   ROPT   =    0.00000   0.00000
 Ionic relaxation
   EDIFFG = -.1E-01   stopping-criterion for IOM
   NSW    =      0    number of steps for IOM
   NBLOCK =      1;   KBLOCK =      1    inner block; outer block 
   IBRION =     -1    ionic relax: 0-MD 1-quasi-New 2-CG
   NFREE  =      0    steps in history (QN), initial steepest desc. (CG)
   ISIF   =      2    stress and relaxation
   IWAVPR =     10    prediction:  0-non 1-charg 2-wave 3-comb
   ISYM   =      0    0-nonsym 1-usesym 2-fastsym
   LCORR  =      T    Harris-Foulkes like correction to forces

   POTIM  = 0.5000    time-step for ionic-motion
   TEIN   =    0.0    initial temperature
   TEBEG  =    0.0;   TEEND  =   0.0 temperature during run
   SMASS  =  -3.00    Nose mass-parameter (am)
   estimated Nose-frequenzy (Omega)   =  0.10E-29 period in steps =****** mass=  -0.505E-26a.u.
   SCALEE = 1.0000    scale energy and forces
   NPACO  =    256;   APACO  = 16.0  distance and # of slots for P.C.
   PSTRESS=    0.0 pullay stress

  Mass of Ions in am
   POMASS =  12.01 14.00 12.01 52.00 12.01 16.00
  Ionic Valenz
   ZVAL   =   4.00  5.00  4.00 12.00  4.00  6.00
  Atomic Wigner-Seitz radii
   RWIGS  =  -1.00 -1.00 -1.00 -1.00 -1.00 -1.00
  virtual crystal weights 
   VCA    =   1.00  1.00  1.00  1.00  1.00  1.00
   NELECT =     303.0000    total number of electrons
   NUPDOWN=      -1.0000    fix difference up-down

 DOS related values:
   EMIN   = -14.00;   EMAX   =  6.00  energy-range for DOS
   EFERMI =   0.00
   ISMEAR =    -5;   SIGMA  =   0.20  broadening in eV -4-tet -1-fermi 0-gaus

 Electronic relaxation 2 (details)
   IALGO  =     38    algorithm
   LDIAG  =      T    sub-space diagonalisation (order eigenvalues)
   LSUBROT=      F    optimize rotation matrix (better conditioning)
   TURBO    =      0    0=normal 1=particle mesh
   IRESTART =      0    0=no restart 2=restart with 2 vectors
   NREBOOT  =      0    no. of reboots
   NMIN     =      0    reboot dimension
   EREF     =   0.00    reference energy to select bands
   IMIX   =      4    mixing-type and parameters
     AMIX     =   0.25;   BMIX     =  0.00
     AMIX_MAG =   1.00;   BMIX_MAG =  0.00
     AMIN     =   0.10
     WC   =   100.;   INIMIX=   1;  MIXPRE=   1;  MAXMIX= -45

 Intra band minimization:
   WEIMIN = 0.0000     energy-eigenvalue tresh-hold
   EBREAK =  0.13E-06  absolut break condition
   DEPER  =   0.30     relativ break condition  

   TIME   =   0.40     timestep for ELM

  volume/ion in A,a.u.               =      38.95       262.83
  Fermi-wavevector in a.u.,A,eV,Ry     =   0.776169  1.466747  8.196669  0.602438
  Thomas-Fermi vector in A             =   1.878590
 
 Write flags
   LWAVE        =      F    write WAVECAR
   LDOWNSAMPLE  =      F    k-point downsampling of WAVECAR
   LCHARG       =      F    write CHGCAR
   LVTOT        =      F    write LOCPOT, total local potential
   LVHAR        =      F    write LOCPOT, Hartree potential only
   LELF         =      F    write electronic localiz. function (ELF)
   LORBIT       =     11    0 simple, 1 ext, 2 COOP (PROOUT), +10 PAW based schemes


 Dipole corrections
   LMONO  =      F    monopole corrections only (constant potential shift)
   LDIPOL =      F    correct potential (dipole corrections)
   IDIPOL =      0    1-x, 2-y, 3-z, 4-all directions 
   EPSILON=  1.0000000 bulk dielectric constant

 Exchange correlation treatment:
   GGA     =    --    GGA type
   LEXCH   =     8    internal setting for exchange type
   VOSKOWN=      0    Vosko Wilk Nusair interpolation
   LHFCALC =     F    Hartree Fock is set to
   LHFONE  =     F    Hartree Fock one center treatment
   AEXX    =    0.0000 exact exchange contribution

 Linear response parameters
   LEPSILON=     F    determine dielectric tensor
   LRPA    =     F    only Hartree local field effects (RPA)
   LNABLA  =     F    use nabla operator in PAW spheres
   LVEL    =     F    velocity operator in full k-point grid
   LINTERFAST=   F  fast interpolation
   KINTER  =     0    interpolate to denser k-point grid
   CSHIFT  =0.1000    complex shift for real part using Kramers Kronig
   OMEGAMAX=  -1.0    maximum frequency
   DEG_THRESHOLD= 0.2000000E-02 threshold for treating states as degnerate
   RTIME   =   -0.100 relaxation time in fs
  (WPLASMAI=    0.000 imaginary part of plasma frequency in eV, 0.658/RTIME)
   DFIELD  = 0.0000000 0.0000000 0.0000000 field for delta impulse in time
 
 Orbital magnetization related:
   ORBITALMAG=     F  switch on orbital magnetization
   LCHIMAG   =     F  perturbation theory with respect to B field
   DQ        =  0.001000  dq finite difference perturbation B field
   LLRAUG    =     F  two centre corrections for induced B field



--------------------------------------------------------------------------------------------------------


 Static calculation
 charge density and potential will be updated during run
 spin polarized calculation
 Variant of blocked Davidson
 Davidson routine will perform the subspace rotation
 perform sub-space diagonalisation
    after iterative eigenvector-optimisation
 modified Broyden-mixing scheme, WC =      100.0
 initial mixing is a Kerker type mixing with AMIX =  0.2500 and BMIX =      0.0001
 Hartree-type preconditioning will be used
 using additional bands           40
 reciprocal scheme for non local part
 use partial core corrections
 calculate Harris-corrections to forces 
   (improved forces if not selfconsistent)
 use gradient corrections 
 use of overlap-Matrix (Vanderbilt PP)
 Fermi weights with tetrahedron method with Bloechl corrections


--------------------------------------------------------------------------------------------------------


  energy-cutoff  :      440.00
  volume of cell :     2843.14
      direct lattice vectors                 reciprocal lattice vectors
    14.858866394  0.000814954  0.000000000     0.067297735  0.039196617  0.000000000
    -7.429433197 12.755795407  0.000000000    -0.000004300  0.078393234  0.000000000
     0.000000000  0.000000000 15.000000000     0.000000000  0.000000000  0.066666667

  length of vectors
    14.858866416 14.761666372 15.000000000     0.077880421  0.078393234  0.066666667


 
 k-points in units of 2pi/SCALE and weight: K-Points                                
   0.00000000  0.00000000  0.00000000       0.111
   0.02243258  0.01306554  0.00000000       0.222
  -0.00000143  0.02613108  0.00000000       0.222
   0.02243115  0.03919662  0.00000000       0.222
  -0.02243401  0.01306554  0.00000000       0.222
 
 k-points in reciprocal lattice and weights: K-Points                                
   0.00000000  0.00000000  0.00000000       0.111
   0.33333333  0.00000000  0.00000000       0.222
   0.00000000  0.33333333  0.00000000       0.222
   0.33333333  0.33333333  0.00000000       0.222
  -0.33333333  0.33333333  0.00000000       0.222
 
 position of ions in fractional coordinates (direct lattice) 
   0.99990485  0.99987919  0.48360148
   0.05569933  0.11134290  0.48367281
   0.16817017  0.00199541  0.48349473
   0.22360039  0.11337745  0.48420657
   0.33502491  0.00208812  0.48369258
   0.39022512  0.11321272  0.48434238
   0.50056087  0.99931758  0.48374506
   0.55607865  0.11059685  0.48365012
   0.66471704  0.99732424  0.48420065
   0.72051283  0.10839711  0.48350397
   0.83166098  0.99790827  0.48431717
   0.88761702  0.10911479  0.48369580
   0.99900335  0.16549255  0.48377291
   0.05431373  0.27670409  0.48444181
   0.16742515  0.16810077  0.48430742
   0.22309025  0.27974459  0.48603795
   0.33531077  0.17016747  0.48535295
   0.39082356  0.28131712  0.48844894
   0.50083099  0.16731445  0.48437338
   0.55683190  0.27921176  0.48598364
   0.66675739  0.16565551  0.48349048
   0.72245990  0.27651587  0.48397158
   0.83200961  0.16420216  0.48357574
   0.88788425  0.27590259  0.48371435
   0.99893491  0.33204319  0.48426945
   0.05452655  0.44385283  0.48471425
   0.16548975  0.33297170  0.48598844
   0.21937909  0.44405029  0.48776184
   0.33540014  0.33791122  0.48934634
   0.38779931  0.44877608  0.49511698
   0.50278726  0.33757373  0.48948772
   0.56121284  0.44838360  0.49568447
   0.66756802  0.33272724  0.48561645
   0.72477514  0.44378936  0.48727677
   0.83336267  0.33209917  0.48386038
   0.88947545  0.44369527  0.48419615
   0.00013550  0.49983559  0.48420835
   0.05586220  0.61129919  0.48422136
   0.16483273  0.50008219  0.48631194
   0.22068110  0.61166455  0.48626992
   0.32920145  0.49955050  0.49122805
   0.38538894  0.61223920  0.49118770
   0.67046269  0.49920550  0.49127974
   0.72673020  0.61189040  0.49119155
   0.83544642  0.49976604  0.48553494
   0.89117337  0.61129779  0.48552861
   0.00137201  0.66737480  0.48421643
   0.05679384  0.77903515  0.48386360
   0.16641390  0.66729966  0.48472762
   0.22268863  0.77903281  0.48425684
   0.33164444  0.66785742  0.48758115
   0.38882243  0.77928962  0.48590570
   0.49465485  0.66361557  0.49567770
   0.55317489  0.77446821  0.48954404
   0.66789754  0.66237246  0.49546892
   0.72025079  0.77340476  0.48944092
   0.83649936  0.66729470  0.48719909
   0.89037984  0.77840218  0.48559620
   0.00144619  0.83453438  0.48397887
   0.05672925  0.94571257  0.48348035
   0.16774295  0.83501741  0.48369510
   0.22369140  0.94631861  0.48356393
   0.33312742  0.83429095  0.48441263
   0.38996969  0.94538794  0.48378778
   0.49948909  0.83263197  0.48608320
   0.55488060  0.94316299  0.48433600
   0.66516623  0.82975085  0.48843253
   0.71960092  0.94070581  0.48529998
   0.83274262  0.83165924  0.48598914
   0.88798240  0.94312218  0.48437980
   0.52792011  0.55588943  0.54050584
   0.52792011  0.55588943  0.93917251
   0.47786598  0.49898958  0.99552832
 
 position of ions in cartesian coordinates  (Angst):
   7.42891701 12.75506922  7.25402224
   0.00041433  1.42031258  7.25509211
   2.48399332  0.02559003  7.25242092
   2.48011818  1.44640176  7.26309855
   4.96257680  0.02690863  7.25538870
   4.95719665  1.44443629  7.26513569
   0.01340389 12.74749849  7.25617588
   7.44102641  1.41120400  7.25475187
   2.46738783 12.72220570  7.26300981
   9.90067470  1.38327860  7.25255956
   4.94364661 12.72979152  7.26475753
  12.37832173  1.39256927  7.25543702
  13.61454141  2.11180329  7.25659359
  -1.24871405  3.52962496  7.26662718
   1.23885452  2.14439550  7.26461123
   1.23652443  3.56854656  7.29056926
   3.71809014  2.17089471  7.28029432
   3.71716828  3.58874212  7.32673408
   6.19872928  2.13463700  7.26560073
   6.19950571  3.56202193  7.28975455
   8.67653234  2.11361120  7.25235720
   8.68057895  3.52776868  7.25957375
  11.14279060  2.09520723  7.25363605
  11.14315351  3.52008062  7.25571525
  12.37614770  4.23628904  7.26404170
  -2.48737215  5.66174029  7.27071374
  -0.01480091  4.24745380  7.28982653
  -0.03931743  5.66439346  7.31642766
   2.47317709  4.31059967  7.34019508
   2.42810624  5.72481189  7.42675472
   4.96286724  4.30643118  7.34231579
   5.00775055  5.71994685  7.43526708
   7.44732920  4.24474469  7.28424672
   7.47223348  5.66147696  7.30915150
   9.91551594  4.23686825  7.25790563
   9.92019248  5.66041102  7.26294220
  -3.71148173  6.37580060  7.26312521
  -3.71155754  7.79765294  7.26332035
  -1.26609972  6.37908048  7.29467910
  -1.26524994  7.80244776  7.29404882
   1.18018333  6.37243228  7.36842068
   1.17785255  7.80991207  7.36781556
   6.25350164  6.36830965  7.36919607
   6.25238810  7.80574106  7.36787324
   8.70080831  6.37559423  7.28302404
   8.70022996  7.79831583  7.28292918
  -4.93782994  8.51289755  7.26324641
  -4.94389754  9.93725922  7.25795396
  -2.48493633  8.51207358  7.27091425
  -2.47887163  9.93736459  7.26385256
  -0.03394162  8.51932290  7.31371719
  -0.01221967  9.94077581  7.28858551
   2.41972275  8.46534758  7.43516543
   2.46569199  9.87940884  7.34316065
   5.00314839  8.44963191  7.43203375
   4.95615127  9.86597988  7.34161377
   7.47181083  8.51255644  7.30798631
   7.44694809  9.92986456  7.28394296
  -6.17862871 10.64515104  7.25968307
  -6.18317601 12.06336225  7.25220527
  -3.71123606 10.65144800  7.25542648
  -3.70681026 12.07122888  7.25345898
  -1.24841303 10.64231619  7.26618944
  -1.22918902 12.05949291  7.25681672
   1.23585799 10.62129018  7.29124799
   1.23773034 12.03124630  7.26503998
   3.71903764 10.58467418  7.32648794
   3.70354302 12.00003727  7.27949963
   6.19485455 10.60915377  7.28983714
   6.18754862 12.03099727  7.26569698
   3.71435104  7.09124206  8.10758760
   3.71435104  7.09124206 14.08758760
   3.39333709  6.36539837 14.93292478
 


--------------------------------------------------------------------------------------------------------


 k-point  1 :   0.0000 0.0000 0.0000  plane waves:   59589
 k-point  2 :   0.3333 0.0000 0.0000  plane waves:   59566
 k-point  3 :   0.0000 0.3333 0.0000  plane waves:   59614
 k-point  4 :   0.3333 0.3333 0.0000  plane waves:   59640
 k-point  5 :  -0.3333 0.3333 0.0000  plane waves:   59560

 maximum and minimum number of plane-waves per node :      4998     4939

 maximum number of plane-waves:     59640
 maximum index in each direction: 
   IXMAX=   25   IYMAX=   25   IZMAX=   25
   IXMIN=  -25   IYMIN=  -25   IZMIN=  -25


 parallel 3D FFT for wavefunctions:
    minimum data exchange during FFTs selected (reduces bandwidth)
 parallel 3D FFT for charge:
    minimum data exchange during FFTs selected (reduces bandwidth)


 total amount of memory used by VASP MPI-rank0   116147. kBytes
=======================================================================

   base      :      30000. kBytes
   nonl-proj :      27330. kBytes
   fftplans  :       4700. kBytes
   grid      :      15193. kBytes
   one-center:        217. kBytes
   wavefun   :      38707. kBytes
 
     INWAV:  cpu time    0.0000: real time    0.0000
 Broyden mixing: mesh for mixing (old mesh)
   NGX = 51   NGY = 51   NGZ = 51
  (NGX  =160   NGY  =160   NGZ  =160)
  gives a total of 132651 points

 initial charge density was supplied:
 charge density of overlapping atoms calculated
 number of electron     303.0000000 magnetization       2.0000000
 keeping initial charge density in first step


--------------------------------------------------------------------------------------------------------


 Maximum index for augmentation-charges          177 (set IRDMAX)


--------------------------------------------------------------------------------------------------------


 First call to EWALD:  gamma=   0.125
 Maximum number of real-space cells 3x 3x 3
 Maximum number of reciprocal cells 3x 3x 3

    FEWALD:  cpu time    0.0041: real time    0.0043


--------------------------------------- Iteration      1(   1)  ---------------------------------------


    POTLOK:  cpu time    0.2137: real time    0.2416
    SETDIJ:  cpu time    0.0086: real time    0.0097
     EDDAV:  cpu time   11.4242: real time   11.5243
 BZINTS: Fermi energy:  7.958898;303.000000 electrons
         Band energy:***********;  BLOECHL correction: -0.022771
       DOS:  cpu time    0.1088: real time    0.1094
    --------------------------------------------
      LOOP:  cpu time   11.7553: real time   11.8850

 eigenvalue-minimisations  :  4376
 total energy-change (2. order) : 0.2510819E+04  (-0.1118845E+05)
 number of electron     303.0000000 magnetization       2.0000000
 augmentation part      303.0000000 magnetization       2.0000000

 Free energy of the ion-electron system (eV)
  ---------------------------------------------------
  alpha Z        PSCENC =       167.25321061
  Ewald energy   TEWEN  =     28891.92363696
  -Hartree energ DENC   =    -38570.04943700
  -exchange      EXHF   =         0.00000000
  -V(xc)+E(xc)   XCENC  =      1022.18663212
  PAW double counting   =      9455.23336183    -9546.47664214
  entropy T*S    EENTRO =         0.00000000
  eigenvalues    EBANDS =     -1554.00493404
  atomic energy  EATOM  =     12644.75315347
  Solvation  Ediel_sol  =         0.00000000
  ---------------------------------------------------
  free energy    TOTEN  =      2510.81898181 eV

  energy without entropy =     2510.81898181  energy(sigma->0) =     2510.81898181


--------------------------------------------------------------------------------------------------------




--------------------------------------- Iteration      1(   2)  ---------------------------------------


     EDDAV:  cpu time   14.9618: real time   15.0909
 BZINTS: Fermi energy: -1.368883;303.000000 electrons
         Band energy:***********;  BLOECHL correction: -0.046800
       DOS:  cpu time    0.0116: real time    0.0117
    --------------------------------------------
      LOOP:  cpu time   14.9734: real time   15.1025

 eigenvalue-minimisations  :  5488
 total energy-change (2. order) :-0.2755661E+04  (-0.2631698E+04)
 number of electron     303.0000000 magnetization       2.0000000
 augmentation part      303.0000000 magnetization       2.0000000

 Free energy of the ion-electron system (eV)
  ---------------------------------------------------
  alpha Z        PSCENC =       167.25321061
  Ewald energy   TEWEN  =     28891.92363696
  -Hartree energ DENC   =    -38570.04943700
  -exchange      EXHF   =         0.00000000
  -V(xc)+E(xc)   XCENC  =      1022.18663212
  PAW double counting   =      9455.23336183    -9546.47664214
  entropy T*S    EENTRO =         0.00000000
  eigenvalues    EBANDS =     -4309.66597590
  atomic energy  EATOM  =     12644.75315347
  Solvation  Ediel_sol  =         0.00000000
  ---------------------------------------------------
  free energy    TOTEN  =      -244.84206005 eV

  energy without entropy =     -244.84206005  energy(sigma->0) =     -244.84206005


--------------------------------------------------------------------------------------------------------




--------------------------------------- Iteration      1(   3)  ---------------------------------------


     EDDAV:  cpu time   12.7001: real time   12.8093
 BZINTS: Fermi energy: -4.548905;303.000000 electrons
         Band energy:***********;  BLOECHL correction: -0.039494
       DOS:  cpu time    0.0117: real time    0.0118
    --------------------------------------------
      LOOP:  cpu time   12.7119: real time   12.8211

 eigenvalue-minimisations  :  4584
 total energy-change (2. order) :-0.4580450E+03  (-0.4545443E+03)
 number of electron     303.0000000 magnetization       2.0000000
 augmentation part      303.0000000 magnetization       2.0000000

 Free energy of the ion-electron system (eV)
  ---------------------------------------------------
  alpha Z        PSCENC =       167.25321061
  Ewald energy   TEWEN  =     28891.92363696
  -Hartree energ DENC   =    -38570.04943700
  -exchange      EXHF   =         0.00000000
  -V(xc)+E(xc)   XCENC  =      1022.18663212
  PAW double counting   =      9455.23336183    -9546.47664214
  entropy T*S    EENTRO =         0.00000000
  eigenvalues    EBANDS =     -4767.71094025
  atomic energy  EATOM  =     12644.75315347
  Solvation  Ediel_sol  =         0.00000000
  ---------------------------------------------------
  free energy    TOTEN  =      -702.88702440 eV

  energy without entropy =     -702.88702440  energy(sigma->0) =     -702.88702440


--------------------------------------------------------------------------------------------------------




--------------------------------------- Iteration      1(   4)  ---------------------------------------


     EDDAV:  cpu time   13.1133: real time   13.2162
 BZINTS: Fermi energy: -4.714229;303.000000 electrons
         Band energy:***********;  BLOECHL correction: -0.045981
       DOS:  cpu time    0.0115: real time    0.0115
    --------------------------------------------
      LOOP:  cpu time   13.1247: real time   13.2276

 eigenvalue-minimisations  :  4680
 total energy-change (2. order) :-0.1637614E+02  (-0.1624057E+02)
 number of electron     303.0000000 magnetization       2.0000000
 augmentation part      303.0000000 magnetization       2.0000000

 Free energy of the ion-electron system (eV)
  ---------------------------------------------------
  alpha Z        PSCENC =       167.25321061
  Ewald energy   TEWEN  =     28891.92363696
  -Hartree energ DENC   =    -38570.04943700
  -exchange      EXHF   =         0.00000000
  -V(xc)+E(xc)   XCENC  =      1022.18663212
  PAW double counting   =      9455.23336183    -9546.47664214
  entropy T*S    EENTRO =         0.00000000
  eigenvalues    EBANDS =     -4784.08708338
  atomic energy  EATOM  =     12644.75315347
  Solvation  Ediel_sol  =         0.00000000
  ---------------------------------------------------
  free energy    TOTEN  =      -719.26316753 eV

  energy without entropy =     -719.26316753  energy(sigma->0) =     -719.26316753


--------------------------------------------------------------------------------------------------------




--------------------------------------- Iteration      1(   5)  ---------------------------------------


     EDDAV:  cpu time   14.3510: real time   14.4258
 BZINTS: Fermi energy: -4.723253;303.000000 electrons
         Band energy:***********;  BLOECHL correction: -0.046152
       DOS:  cpu time    0.0114: real time    0.0115
    CHARGE:  cpu time    0.1708: real time    0.1748
    MIXING:  cpu time    0.0048: real time    0.0050
    --------------------------------------------
      LOOP:  cpu time   14.5381: real time   14.6171

 eigenvalue-minimisations  :  5272
 total energy-change (2. order) :-0.5382598E+00  (-0.5365356E+00)
 number of electron     302.9999974 magnetization       0.0137924
 augmentation part       12.3757668 magnetization       0.0663037

 Broyden mixing:
  rms(total) = 0.47660E+01    rms(broyden)= 0.47655E+01
  rms(prec ) = 0.55249E+01
  weight for this iteration     100.00

 Free energy of the ion-electron system (eV)
  ---------------------------------------------------
  alpha Z        PSCENC =       167.25321061
  Ewald energy   TEWEN  =     28891.92363696
  -Hartree energ DENC   =    -38570.04943700
  -exchange      EXHF   =         0.00000000
  -V(xc)+E(xc)   XCENC  =      1022.18663212
  PAW double counting   =      9455.23336183    -9546.47664214
  entropy T*S    EENTRO =         0.00000000
  eigenvalues    EBANDS =     -4784.62534319
  atomic energy  EATOM  =     12644.75315347
  Solvation  Ediel_sol  =         0.00000000
  ---------------------------------------------------
  free energy    TOTEN  =      -719.80142734 eV

  energy without entropy =     -719.80142734  energy(sigma->0) =     -719.80142734


--------------------------------------------------------------------------------------------------------




--------------------------------------- Iteration      1(   6)  ---------------------------------------


    POTLOK:  cpu time    0.1693: real time    0.1716
    SETDIJ:  cpu time    0.0106: real time    0.0107
     EDDAV:  cpu time   12.6315: real time   12.7131
 BZINTS: Fermi energy: -5.525643;303.000000 electrons
         Band energy:***********;  BLOECHL correction: -0.043040
       DOS:  cpu time    0.0117: real time    0.0118
    CHARGE:  cpu time    0.2017: real time    0.2084
    MIXING:  cpu time    0.0032: real time    0.0039
    --------------------------------------------
      LOOP:  cpu time   13.0281: real time   13.1194

 eigenvalue-minimisations  :  4848
 total energy-change (2. order) :-0.5598746E+00  (-0.8938265E+01)
 number of electron     303.0000020 magnetization      -0.0051802
 augmentation part       17.9768961 magnetization       0.1405225

 Broyden mixing:
  rms(total) = 0.10472E+02    rms(broyden)= 0.10472E+02
  rms(prec ) = 0.11292E+02
  weight for this iteration     100.00

 eigenvalues of (default mixing * dielectric matrix)
  average eigenvalue GAMMA=   0.1021
  0.1021

 Free energy of the ion-electron system (eV)
  ---------------------------------------------------
  alpha Z        PSCENC =       167.25321061
  Ewald energy   TEWEN  =     28891.92363696
  -Hartree energ DENC   =    -38945.52778750
  -exchange      EXHF   =         0.00000000
  -V(xc)+E(xc)   XCENC  =      1034.97941810
  PAW double counting   =     13242.09263216   -13333.30114620
  entropy T*S    EENTRO =         0.00000000
  eigenvalues    EBANDS =     -4422.53441954
  atomic energy  EATOM  =     12644.75315347
  Solvation  Ediel_sol  =         0.00000000
  ---------------------------------------------------
  free energy    TOTEN  =      -720.36130195 eV

  energy without entropy =     -720.36130195  energy(sigma->0) =     -720.36130195


--------------------------------------------------------------------------------------------------------




--------------------------------------- Iteration      1(   7)  ---------------------------------------


    POTLOK:  cpu time    0.1364: real time    0.1441
    SETDIJ:  cpu time    0.0107: real time    0.0107
     EDDAV:  cpu time   13.3417: real time   13.4136
 BZINTS: Fermi energy: -4.970865;303.000000 electrons
         Band energy:***********;  BLOECHL correction: -0.052243
       DOS:  cpu time    0.0113: real time    0.0113
    CHARGE:  cpu time    0.1662: real time    0.1700
    MIXING:  cpu time    0.0034: real time    0.0034
    --------------------------------------------
      LOOP:  cpu time   13.6697: real time   13.7532

 eigenvalue-minimisations  :  5208
 total energy-change (2. order) : 0.3678444E+02  (-0.4529646E+01)
 number of electron     303.0000016 magnetization       0.0095301
 augmentation part       16.4528608 magnetization       0.0239211

 Broyden mixing:
  rms(total) = 0.42092E+01    rms(broyden)= 0.42090E+01
  rms(prec ) = 0.50019E+01
  weight for this iteration     100.00

 eigenvalues of (default mixing * dielectric matrix)
  average eigenvalue GAMMA=   0.3355
  0.4267  0.2443

 Free energy of the ion-electron system (eV)
  ---------------------------------------------------
  alpha Z        PSCENC =       167.25321061
  Ewald energy   TEWEN  =     28891.92363696
  -Hartree energ DENC   =    -39039.66576251
  -exchange      EXHF   =         0.00000000
  -V(xc)+E(xc)   XCENC  =      1038.00062571
  PAW double counting   =     14405.23954775   -14499.44192164
  entropy T*S    EENTRO =         0.00000000
  eigenvalues    EBANDS =     -4291.63935650
  atomic energy  EATOM  =     12644.75315347
  Solvation  Ediel_sol  =         0.00000000
  ---------------------------------------------------
  free energy    TOTEN  =      -683.57686617 eV

  energy without entropy =     -683.57686617  energy(sigma->0) =     -683.57686617


--------------------------------------------------------------------------------------------------------




--------------------------------------- Iteration      1(   8)  ---------------------------------------


    POTLOK:  cpu time    0.1422: real time    0.1446
    SETDIJ:  cpu time    0.0087: real time    0.0088
     EDDAV:  cpu time   13.7717: real time   13.8736
 BZINTS: Fermi energy: -2.973777;303.000000 electrons
         Band energy:***********;  BLOECHL correction: -0.035298
       DOS:  cpu time    0.0115: real time    0.0116
    CHARGE:  cpu time    0.1955: real time    0.1978
    MIXING:  cpu time    0.0039: real time    0.0039
    --------------------------------------------
      LOOP:  cpu time   14.1335: real time   14.2403

 eigenvalue-minimisations  :  5448
 total energy-change (2. order) : 0.4546106E+01  (-0.5701752E+01)
 number of electron     302.9999981 magnetization       0.0376994
 augmentation part       12.1429575 magnetization       0.0101649

 Broyden mixing:
  rms(total) = 0.31030E+01    rms(broyden)= 0.31022E+01
  rms(prec ) = 0.37077E+01
  weight for this iteration     100.00

 eigenvalues of (default mixing * dielectric matrix)
  average eigenvalue GAMMA=   0.8776
  2.0942  0.2693  0.2693

 Free energy of the ion-electron system (eV)
  ---------------------------------------------------
  alpha Z        PSCENC =       167.25321061
  Ewald energy   TEWEN  =     28891.92363696
  -Hartree energ DENC   =    -39206.43769284
  -exchange      EXHF   =         0.00000000
  -V(xc)+E(xc)   XCENC  =      1043.31797398
  PAW double counting   =     15841.79177710   -15939.46255584
  entropy T*S    EENTRO =         0.00000000
  eigenvalues    EBANDS =     -4122.17026366
  atomic energy  EATOM  =     12644.75315347
  Solvation  Ediel_sol  =         0.00000000
  ---------------------------------------------------
  free energy    TOTEN  =      -679.03076023 eV

  energy without entropy =     -679.03076023  energy(sigma->0) =     -679.03076023


--------------------------------------------------------------------------------------------------------




--------------------------------------- Iteration      1(   9)  ---------------------------------------


    POTLOK:  cpu time    0.1369: real time    0.1394
    SETDIJ:  cpu time    0.0106: real time    0.0107
     EDDAV:  cpu time   12.3427: real time   12.4088
 BZINTS: Fermi energy: -2.812879;303.000000 electrons
         Band energy:***********;  BLOECHL correction: -0.057923
       DOS:  cpu time    0.0117: real time    0.0117
    CHARGE:  cpu time    0.1677: real time    0.1687
    MIXING:  cpu time    0.0038: real time    0.0038
    --------------------------------------------
      LOOP:  cpu time   12.6734: real time   12.7431

 eigenvalue-minimisations  :  4640
 total energy-change (2. order) : 0.1664875E+02  (-0.3056931E+01)
 number of electron     303.0000012 magnetization      -0.2144333
 augmentation part       14.0910147 magnetization      -0.1174237

 Broyden mixing:
  rms(total) = 0.13610E+01    rms(broyden)= 0.13591E+01
  rms(prec ) = 0.16054E+01
  weight for this iteration     100.00

 eigenvalues of (default mixing * dielectric matrix)
  average eigenvalue GAMMA=   1.0190
  2.6999  0.8474  0.2643  0.2643

 Free energy of the ion-electron system (eV)
  ---------------------------------------------------
  alpha Z        PSCENC =       167.25321061
  Ewald energy   TEWEN  =     28891.92363696
  -Hartree energ DENC   =    -39691.92679369
  -exchange      EXHF   =         0.00000000
  -V(xc)+E(xc)   XCENC  =      1060.72732894
  PAW double counting   =     23909.63760796   -24011.48831830
  entropy T*S    EENTRO =         0.00000000
  eigenvalues    EBANDS =     -3633.26183941
  atomic energy  EATOM  =     12644.75315347
  Solvation  Ediel_sol  =         0.00000000
  ---------------------------------------------------
  free energy    TOTEN  =      -662.38201347 eV

  energy without entropy =     -662.38201347  energy(sigma->0) =     -662.38201347


--------------------------------------------------------------------------------------------------------




--------------------------------------- Iteration      1(  10)  ---------------------------------------


    POTLOK:  cpu time    0.1448: real time    0.1470
    SETDIJ:  cpu time    0.0108: real time    0.0108
     EDDAV:  cpu time   12.8377: real time   12.9045
 BZINTS: Fermi energy: -1.311824;303.000000 electrons
         Band energy:***********;  BLOECHL correction: -0.059868
       DOS:  cpu time    0.0112: real time    0.0112
    CHARGE:  cpu time    0.1991: real time    0.1998
    MIXING:  cpu time    0.0043: real time    0.0043
    --------------------------------------------
      LOOP:  cpu time   13.2078: real time   13.2775

 eigenvalue-minimisations  :  4856
 total energy-change (2. order) : 0.4347921E+00  (-0.1476178E+01)
 number of electron     303.0000004 magnetization      -0.2752627
 augmentation part       12.6728033 magnetization      -0.1563698

 Broyden mixing:
  rms(total) = 0.12230E+01    rms(broyden)= 0.12217E+01
  rms(prec ) = 0.14116E+01
  weight for this iteration     100.00

 eigenvalues of (default mixing * dielectric matrix)
  average eigenvalue GAMMA=   1.1064
  3.2482  1.1263  0.6341  0.2616  0.2616

 Free energy of the ion-electron system (eV)
  ---------------------------------------------------
  alpha Z        PSCENC =       167.25321061
  Ewald energy   TEWEN  =     28891.92363696
  -Hartree energ DENC   =    -39809.64348741
  -exchange      EXHF   =         0.00000000
  -V(xc)+E(xc)   XCENC  =      1065.03673840
  PAW double counting   =     27109.46756493   -27212.21541265
  entropy T*S    EENTRO =         0.00000000
  eigenvalues    EBANDS =     -3518.52262569
  atomic energy  EATOM  =     12644.75315347
  Solvation  Ediel_sol  =         0.00000000
  ---------------------------------------------------
  free energy    TOTEN  =      -661.94722137 eV

  energy without entropy =     -661.94722137  energy(sigma->0) =     -661.94722137


--------------------------------------------------------------------------------------------------------




--------------------------------------- Iteration      1(  11)  ---------------------------------------


    POTLOK:  cpu time    0.1367: real time    0.1393
    SETDIJ:  cpu time    0.0107: real time    0.0107
     EDDAV:  cpu time   13.0554: real time   13.1293
 BZINTS: Fermi energy: -2.022003;303.000000 electrons
         Band energy:***********;  BLOECHL correction:  0.000000
       DOS:  cpu time    0.0066: real time    0.0066
    CHARGE:  cpu time    0.2123: real time    0.2137
    MIXING:  cpu time    0.0041: real time    0.0041
    --------------------------------------------
      LOOP:  cpu time   13.4257: real time   13.5036

 eigenvalue-minimisations  :  5000
 total energy-change (2. order) : 0.7964628E-01  (-0.3928822E+00)
 number of electron     303.0000013 magnetization      -0.6838040
 augmentation part       13.8569441 magnetization      -0.2518822

 Broyden mixing:
  rms(total) = 0.10868E+01    rms(broyden)= 0.10857E+01
  rms(prec ) = 0.12164E+01
  weight for this iteration     100.00

 eigenvalues of (default mixing * dielectric matrix)
  average eigenvalue GAMMA=   1.0173
  3.3571  0.9760  0.9760  0.2628  0.2628  0.2691

 Free energy of the ion-electron system (eV)
  ---------------------------------------------------
  alpha Z        PSCENC =       167.25321061
  Ewald energy   TEWEN  =     28891.92363696
  -Hartree energ DENC   =    -39820.69008175
  -exchange      EXHF   =         0.00000000
  -V(xc)+E(xc)   XCENC  =      1065.80359731
  PAW double counting   =     29558.81307930   -29661.05764757
  entropy T*S    EENTRO =         0.00000000
  eigenvalues    EBANDS =     -3508.66652342
  atomic energy  EATOM  =     12644.75315347
  Solvation  Ediel_sol  =         0.00000000
  ---------------------------------------------------
  free energy    TOTEN  =      -661.86757510 eV

  energy without entropy =     -661.86757510  energy(sigma->0) =     -661.86757510


--------------------------------------------------------------------------------------------------------




--------------------------------------- Iteration      1(  12)  ---------------------------------------


    POTLOK:  cpu time    0.1445: real time    0.1472
    SETDIJ:  cpu time    0.0107: real time    0.0114
     EDDAV:  cpu time   12.8332: real time   12.8981
 BZINTS: Fermi energy: -1.911978;303.000000 electrons
         Band energy:***********;  BLOECHL correction:  0.000000
       DOS:  cpu time    0.0077: real time    0.0079
    CHARGE:  cpu time    0.1658: real time    0.1666
    MIXING:  cpu time    0.0040: real time    0.0040
    --------------------------------------------
      LOOP:  cpu time   13.1658: real time   13.2352

 eigenvalue-minimisations  :  4816
 total energy-change (2. order) :-0.2721253E-01  (-0.9111098E-01)
 number of electron     303.0000011 magnetization      -0.8849691
 augmentation part       13.6972071 magnetization      -0.5919141

 Broyden mixing:
  rms(total) = 0.82655E+00    rms(broyden)= 0.82643E+00
  rms(prec ) = 0.90618E+00
  weight for this iteration     100.00

 eigenvalues of (default mixing * dielectric matrix)
  average eigenvalue GAMMA=   1.1783
  3.5852  1.4175  1.4175  0.2618  0.2618  0.6520  0.6520

 Free energy of the ion-electron system (eV)
  ---------------------------------------------------
  alpha Z        PSCENC =       167.25321061
  Ewald energy   TEWEN  =     28891.92363696
  -Hartree energ DENC   =    -39795.83536278
  -exchange      EXHF   =         0.00000000
  -V(xc)+E(xc)   XCENC  =      1065.13574221
  PAW double counting   =     30318.58349775   -30420.42565518
  entropy T*S    EENTRO =         0.00000000
  eigenvalues    EBANDS =     -3533.28301066
  atomic energy  EATOM  =     12644.75315347
  Solvation  Ediel_sol  =         0.00000000
  ---------------------------------------------------
  free energy    TOTEN  =      -661.89478763 eV

  energy without entropy =     -661.89478763  energy(sigma->0) =     -661.89478763


--------------------------------------------------------------------------------------------------------




--------------------------------------- Iteration      1(  13)  ---------------------------------------


    POTLOK:  cpu time    0.1363: real time    0.1388
    SETDIJ:  cpu time    0.0103: real time    0.0104
     EDDAV:  cpu time   12.0165: real time   12.0822
 BZINTS: Fermi energy: -2.043559;303.000000 electrons
         Band energy:***********;  BLOECHL correction: -0.001232
       DOS:  cpu time    0.0110: real time    0.0110
    CHARGE:  cpu time    0.1675: real time    0.1689
    MIXING:  cpu time    0.0041: real time    0.0042
    --------------------------------------------
      LOOP:  cpu time   12.3457: real time   12.4155

 eigenvalue-minimisations  :  4440
 total energy-change (2. order) :-0.1558472E+00  (-0.6203874E-01)
 number of electron     303.0000007 magnetization      -0.9153337
 augmentation part       13.6998330 magnetization      -0.9088986

 Broyden mixing:
  rms(total) = 0.57092E+00    rms(broyden)= 0.57083E+00
  rms(prec ) = 0.64865E+00
  weight for this iteration     100.00

 eigenvalues of (default mixing * dielectric matrix)
  average eigenvalue GAMMA=   1.1931
  3.4987  1.8914  1.3985  0.2618  0.2618  0.8367  0.8367  0.5589

 Free energy of the ion-electron system (eV)
  ---------------------------------------------------
  alpha Z        PSCENC =       167.25321061
  Ewald energy   TEWEN  =     28891.92363696
  -Hartree energ DENC   =    -39755.35429259
  -exchange      EXHF   =         0.00000000
  -V(xc)+E(xc)   XCENC  =      1064.22064214
  PAW double counting   =     31907.44770592   -32008.50724531
  entropy T*S    EENTRO =         0.00000000
  eigenvalues    EBANDS =     -3573.78744602
  atomic energy  EATOM  =     12644.75315347
  Solvation  Ediel_sol  =         0.00000000
  ---------------------------------------------------
  free energy    TOTEN  =      -662.05063483 eV

  energy without entropy =     -662.05063483  energy(sigma->0) =     -662.05063483


--------------------------------------------------------------------------------------------------------




--------------------------------------- Iteration      1(  14)  ---------------------------------------


    POTLOK:  cpu time    0.1462: real time    0.1483
    SETDIJ:  cpu time    0.0101: real time    0.0102
     EDDAV:  cpu time   12.1340: real time   12.2052
 BZINTS: Fermi energy: -2.080089;303.000000 electrons
         Band energy:***********;  BLOECHL correction: -0.000010
       DOS:  cpu time    0.0096: real time    0.0097
    CHARGE:  cpu time    0.1663: real time    0.1669
    MIXING:  cpu time    0.0043: real time    0.0043
    --------------------------------------------
      LOOP:  cpu time   12.4705: real time   12.5447

 eigenvalue-minimisations  :  4632
 total energy-change (2. order) : 0.5015350E-01  (-0.1570058E-01)
 number of electron     303.0000004 magnetization      -0.8826660
 augmentation part       13.5930562 magnetization      -0.9592226

 Broyden mixing:
  rms(total) = 0.42305E+00    rms(broyden)= 0.42300E+00
  rms(prec ) = 0.46826E+00
  weight for this iteration     100.00

 eigenvalues of (default mixing * dielectric matrix)
  average eigenvalue GAMMA=   1.3006
  3.6584  2.1533  2.1533  0.9899  0.9899  0.2618  0.2618  0.6186  0.6186

 Free energy of the ion-electron system (eV)
  ---------------------------------------------------
  alpha Z        PSCENC =       167.25321061
  Ewald energy   TEWEN  =     28891.92363696
  -Hartree energ DENC   =    -39744.00405148
  -exchange      EXHF   =         0.00000000
  -V(xc)+E(xc)   XCENC  =      1063.90510928
  PAW double counting   =     32035.51796234   -32136.47569317
  entropy T*S    EENTRO =         0.00000000
  eigenvalues    EBANDS =     -3584.87380934
  atomic energy  EATOM  =     12644.75315347
  Solvation  Ediel_sol  =         0.00000000
  ---------------------------------------------------
  free energy    TOTEN  =      -662.00048134 eV

  energy without entropy =     -662.00048134  energy(sigma->0) =     -662.00048134


--------------------------------------------------------------------------------------------------------




--------------------------------------- Iteration      1(  15)  ---------------------------------------


    POTLOK:  cpu time    0.1374: real time    0.1399
    SETDIJ:  cpu time    0.0086: real time    0.0087
     EDDAV:  cpu time   12.8710: real time   12.9580
 BZINTS: Fermi energy: -2.054071;303.000000 electrons
         Band energy:***********;  BLOECHL correction: -0.001642
       DOS:  cpu time    0.0099: real time    0.0099
    CHARGE:  cpu time    0.1655: real time    0.1659
    MIXING:  cpu time    0.0045: real time    0.0045
    --------------------------------------------
      LOOP:  cpu time   13.1969: real time   13.2870

 eigenvalue-minimisations  :  4760
 total energy-change (2. order) : 0.6970404E-02  (-0.6135507E-02)
 number of electron     303.0000004 magnetization      -0.8994246
 augmentation part       13.5713325 magnetization      -1.0437237

 Broyden mixing:
  rms(total) = 0.36921E+00    rms(broyden)= 0.36918E+00
  rms(prec ) = 0.40895E+00
  weight for this iteration     100.00

 eigenvalues of (default mixing * dielectric matrix)
  average eigenvalue GAMMA=   1.2968
  3.6940  2.3946  2.3946  1.0018  1.0018  0.2618  0.2618  0.6833  0.6833  0.5907

 Free energy of the ion-electron system (eV)
  ---------------------------------------------------
  alpha Z        PSCENC =       167.25321061
  Ewald energy   TEWEN  =     28891.92363696
  -Hartree energ DENC   =    -39748.40662029
  -exchange      EXHF   =         0.00000000
  -V(xc)+E(xc)   XCENC  =      1064.09852499
  PAW double counting   =     32064.66534838   -32165.69007271
  entropy T*S    EENTRO =         0.00000000
  eigenvalues    EBANDS =     -3580.59069234
  atomic energy  EATOM  =     12644.75315347
  Solvation  Ediel_sol  =         0.00000000
  ---------------------------------------------------
  free energy    TOTEN  =      -661.99351093 eV

  energy without entropy =     -661.99351093  energy(sigma->0) =     -661.99351093


--------------------------------------------------------------------------------------------------------




--------------------------------------- Iteration      1(  16)  ---------------------------------------


    POTLOK:  cpu time    0.1464: real time    0.1492
    SETDIJ:  cpu time    0.0106: real time    0.0107
     EDDAV:  cpu time   12.6918: real time   12.7652
 BZINTS: Fermi energy: -2.043558;303.000000 electrons
         Band energy:***********;  BLOECHL correction: -0.003011
       DOS:  cpu time    0.0113: real time    0.0113
    CHARGE:  cpu time    0.2057: real time    0.2116
    MIXING:  cpu time    0.0044: real time    0.0047
    --------------------------------------------
      LOOP:  cpu time   13.0702: real time   13.1526

 eigenvalue-minimisations  :  4840
 total energy-change (2. order) : 0.6604393E-02  (-0.2013843E-02)
 number of electron     303.0000003 magnetization      -0.9619271
 augmentation part       13.5482683 magnetization      -1.1370001

 Broyden mixing:
  rms(total) = 0.30590E+00    rms(broyden)= 0.30590E+00
  rms(prec ) = 0.34190E+00
  weight for this iteration     100.00

 eigenvalues of (default mixing * dielectric matrix)
  average eigenvalue GAMMA=   1.3303
  3.6255  2.5794  2.5794  0.2618  0.2618  1.3169  0.9159  0.9159  0.9488  0.6140
  0.6140

 Free energy of the ion-electron system (eV)
  ---------------------------------------------------
  alpha Z        PSCENC =       167.25321061
  Ewald energy   TEWEN  =     28891.92363696
  -Hartree energ DENC   =    -39747.48912665
  -exchange      EXHF   =         0.00000000
  -V(xc)+E(xc)   XCENC  =      1064.12348274
  PAW double counting   =     32064.55795187   -32165.57968376
  entropy T*S    EENTRO =         0.00000000
  eigenvalues    EBANDS =     -3581.52953178
  atomic energy  EATOM  =     12644.75315347
  Solvation  Ediel_sol  =         0.00000000
  ---------------------------------------------------
  free energy    TOTEN  =      -661.98690654 eV

  energy without entropy =     -661.98690654  energy(sigma->0) =     -661.98690654


[...]
   0.778E+01 0.698E+00 0.434E+01   -.777E+01 -.899E+00 -.430E+01   0.199E-01 0.175E+00 -.528E-01   -.343E-02 -.132E-02 -.497E-02
   0.281E+02 0.102E+02 0.145E+02   -.272E+02 -.106E+02 -.151E+02   -.937E+00 0.627E+00 0.636E+00   -.412E-01 -.215E-01 -.256E-01
   0.273E+02 -.516E+01 0.151E+02   -.264E+02 0.515E+01 -.157E+02   -.972E+00 -.173E+00 0.601E+00   -.420E-01 0.195E-01 -.255E-01
   -.286E+02 0.838E+01 0.136E+02   0.277E+02 -.862E+01 -.141E+02   0.977E+00 0.457E+00 0.589E+00   0.410E-01 -.197E-01 -.254E-01
   -.291E+02 -.945E+01 0.141E+02   0.282E+02 0.969E+01 -.146E+02   0.936E+00 -.464E+00 0.563E+00   0.409E-01 0.206E-01 -.254E-01
   -.754E+01 0.181E-02 0.707E+01   0.742E+01 0.814E-01 -.702E+01   0.967E-01 -.296E-01 -.412E-01   0.395E-02 -.651E-03 -.499E-02
   -.755E+01 -.130E+01 0.706E+01   0.742E+01 0.128E+01 -.702E+01   0.133E+00 -.190E-01 -.350E-01   0.301E-02 0.216E-03 -.495E-02
   -.398E+01 -.457E+01 0.767E+01   0.390E+01 0.458E+01 -.771E+01   0.104E+00 0.663E-02 0.372E-01   -.102E-02 0.167E-02 -.313E-02
   -.187E+01 -.324E+01 0.685E+01   0.175E+01 0.325E+01 -.683E+01   0.172E+00 -.189E-01 -.201E-01   0.102E-02 0.266E-03 -.275E-02
   0.714E+01 -.377E+01 0.578E+01   -.719E+01 0.363E+01 -.582E+01   0.167E-01 0.158E+00 0.301E-01   -.190E-03 0.139E-02 -.312E-02
   0.653E+01 -.162E+01 0.550E+01   -.696E+01 0.138E+01 -.548E+01   0.390E+00 0.210E+00 -.213E-01   -.251E-02 0.300E-03 -.277E-02
   0.178E+02 -.528E+01 0.731E+01   -.175E+02 0.444E+01 -.741E+01   -.327E+00 0.807E+00 0.126E+00   -.733E-02 0.358E-03 -.778E-02
   0.107E+02 -.156E+01 0.768E+01   -.116E+02 0.595E+00 -.765E+01   0.791E+00 0.961E+00 -.320E-01   -.320E-02 -.602E-03 -.529E-02
   -.816E+01 -.332E+02 0.244E+02   0.149E+02 0.287E+02 -.234E+02   -.641E+01 0.425E+01 -.996E+00   -.854E-01 0.916E-01 -.614E-01
   -.496E+01 -.120E+02 0.116E+02   0.636E+01 0.989E+01 -.117E+02   -.133E+01 0.208E+01 0.131E+00   -.126E-01 0.151E-01 -.166E-01
   0.332E+01 -.368E+02 0.268E+02   -.978E+01 0.329E+02 -.260E+02   0.612E+01 0.373E+01 -.844E+00   0.880E-01 0.919E-01 -.622E-01
   -.427E+01 -.186E+02 0.124E+02   0.431E+01 0.173E+02 -.126E+02   -.580E-01 0.127E+01 0.222E+00   0.141E-01 0.158E-01 -.167E-01
   -.153E+02 -.778E+01 0.806E+01   0.149E+02 0.761E+01 -.813E+01   0.284E+00 0.138E+00 0.110E+00   0.671E-02 0.128E-02 -.782E-02
   -.709E+01 -.112E+02 0.839E+01   0.696E+01 0.112E+02 -.836E+01   0.153E+00 0.166E-01 -.258E-01   0.412E-02 0.111E-02 -.535E-02
   -.296E+01 -.342E+01 0.827E+01   0.284E+01 0.346E+01 -.830E+01   0.623E-01 -.463E-01 0.330E-01   0.305E-02 -.701E-03 -.320E-02
   -.224E+01 -.445E+01 0.800E+01   0.225E+01 0.448E+01 -.801E+01   -.398E-02 -.330E-01 0.664E-02   0.152E-02 -.534E-03 -.277E-02
   0.242E+01 -.137E+01 0.630E+01   -.262E+01 0.139E+01 -.632E+01   0.183E+00 -.442E-01 0.235E-01   -.546E-03 -.364E-03 -.239E-02
   0.187E+01 -.240E+01 0.622E+01   -.210E+01 0.242E+01 -.621E+01   0.239E+00 -.336E-01 -.148E-01   0.333E-05 0.486E-03 -.243E-02
   0.108E+02 -.346E+00 0.691E+01   -.114E+02 -.782E-01 -.693E+01   0.672E+00 0.443E+00 0.220E-01   -.579E-02 -.724E-03 -.324E-02
   0.132E+02 -.539E+01 0.708E+01   -.146E+02 0.502E+01 -.710E+01   0.140E+01 0.353E+00 0.142E-01   -.338E-02 0.291E-02 -.281E-02
   0.257E+00 0.168E+02 0.995E+01   0.311E+00 -.232E+02 -.988E+01   -.560E+00 0.651E+01 -.583E-01   -.235E-02 -.397E-02 -.632E-02
   0.292E+01 -.808E+01 0.114E+02   -.297E+01 0.793E+01 -.116E+02   0.115E-01 0.143E+00 0.192E+00   0.172E-02 0.423E-02 -.506E-02
   -.680E+01 -.590E+01 0.691E+01   0.746E+01 0.473E+01 -.657E+01   -.716E+00 0.116E+01 -.328E+00   0.177E-02 0.175E-01 -.129E-01
   -.107E+02 -.104E+02 0.818E+01   0.120E+02 0.953E+01 -.820E+01   -.136E+01 0.959E+00 0.252E-01   0.769E-03 0.587E-02 -.522E-02
   -.201E+01 -.836E+01 0.103E+02   0.163E+01 0.804E+01 -.104E+02   0.353E+00 0.288E+00 0.875E-01   0.318E-02 0.379E-02 -.656E-02
   -.489E+01 -.733E+01 0.856E+01   0.506E+01 0.715E+01 -.859E+01   -.127E+00 0.191E+00 0.331E-01   0.242E-04 0.262E-02 -.400E-02
   -.186E+01 0.229E+01 -.606E+03   0.202E+01 -.228E+01 0.588E+03   -.174E+00 -.147E-01 0.190E+02   0.303E-02 -.168E-02 -.146E+00
   -.639E+02 -.144E+03 0.106E+03   0.711E+02 0.160E+03 -.126E+03   -.774E+01 -.175E+02 0.204E+02   -.225E-03 -.649E-03 0.103E-01
   0.556E+02 0.126E+03 -.140E+03   -.713E+02 -.162E+03 0.181E+03   0.162E+02 0.366E+02 -.426E+02   -.872E-03 -.212E-02 0.985E-02
 -----------------------------------------------------------------------------------------------
   -.852E+01 -.189E+02 0.389E+01   0.128E-12 0.341E-12 -.114E-12   0.852E+01 0.189E+02 -.307E+01   0.138E-02 -.176E-02 -.795E+00
 
 
 POSITION                                       TOTAL-FORCE (eV/Angst)
 -----------------------------------------------------------------------------------
      7.42892     12.75507      7.25402        -0.018325     -0.000035      0.005713
      0.00041      1.42031      7.25509         0.004883     -0.013482      0.004077
      2.48399      0.02559      7.25242        -0.016747      0.011136     -0.002570
      2.48012      1.44640      7.26310         0.054040     -0.020736     -0.002476
      4.96258      0.02691      7.25539        -0.043597     -0.010602     -0.004193
      4.95720      1.44444      7.26514        -0.035498     -0.006006     -0.002332
      0.01340     12.74750      7.25618         0.026152      0.011198      0.005589
      7.44103      1.41120      7.25475        -0.013424     -0.025430      0.005535
      2.46739     12.72221      7.26301         0.060155     -0.015498     -0.001876
      9.90067      1.38328      7.25256         0.021348      0.042531     -0.003318
      4.94365     12.72979      7.26476        -0.005749      0.026767     -0.006447
     12.37832      1.39257      7.25544        -0.011190     -0.026986     -0.006853
     13.61454      2.11180      7.25659         0.008976      0.011352     -0.002413
     -1.24871      3.52962      7.26663         0.069714      0.007088     -0.003956
      1.23885      2.14440      7.26461        -0.023375      0.000086      0.004043
      1.23652      3.56855      7.29057         0.014705     -0.014699     -0.002681
      3.71809      2.17089      7.28029        -0.003011     -0.064531      0.001385
      3.71717      3.58874      7.32673         0.008272      0.015756     -0.005040
      6.19873      2.13464      7.26560         0.009860      0.023243      0.002539
      6.19951      3.56202      7.28975        -0.000933     -0.008420     -0.003925
      8.67653      2.11361      7.25236         0.013592     -0.006123      0.002868
      8.68058      3.52777      7.25957        -0.049472      0.018861      0.000913
     11.14279      2.09521      7.25364        -0.028575      0.024564     -0.003084
     11.14315      3.52008      7.25572         0.003671      0.026900     -0.004257
     12.37615      4.23629      7.26404        -0.035528      0.049805     -0.004947
     -2.48737      5.66174      7.27071        -0.011652     -0.038543     -0.007884
     -0.01480      4.24745      7.28983        -0.065825     -0.005291     -0.000102
     -0.03932      5.66439      7.31643         0.008762      0.008440      0.030273
      2.47318      4.31060      7.34020         0.074244     -0.006732     -0.003358
      2.42811      5.72481      7.42675         0.240078      0.110943     -0.095052
      4.96287      4.30643      7.34232        -0.056704     -0.017706      0.000282
      5.00775      5.71995      7.43527        -0.249597      0.110254     -0.044710
      7.44733      4.24474      7.28425         0.050697     -0.015973      0.000222
      7.47223      5.66148      7.30915         0.001713     -0.013560      0.030219
      9.91552      4.23687      7.25791         0.027041      0.029621     -0.001790
      9.92019      5.66041      7.26294         0.071800     -0.023625     -0.005028
     -3.71148      6.37580      7.26313        -0.028894     -0.028459     -0.005139
     -3.71156      7.79765      7.26332         0.014798      0.019338     -0.001906
     -1.26610      6.37908      7.29468         0.012115      0.013883     -0.004024
     -1.26525      7.80245      7.29405         0.021144     -0.025969     -0.012696
      1.18018      6.37243      7.36842        -0.075931      0.178873      0.001240
      1.17785      7.80991      7.36782        -0.077946     -0.148642      0.011652
      6.25350      6.36831      7.36920         0.089806      0.191229     -0.003016
      6.25239      7.80574      7.36787         0.139154     -0.189000     -0.010310
      8.70081      6.37559      7.28302        -0.020961      0.051610      0.003785
      8.70023      7.79832      7.28293         0.011673     -0.044695      0.002388
     -4.93783      8.51290      7.26325         0.018702      0.020006     -0.001046
     -4.94390      9.93726      7.25795         0.051313     -0.013603     -0.000957
     -2.48494      8.51207      7.27091        -0.036618      0.020921     -0.010182
     -2.47887      9.93736      7.26385        -0.036807     -0.025397     -0.008597
     -0.03394      8.51932      7.31372        -0.006057     -0.034520      0.016814
     -0.01222      9.94078      7.28859        -0.029197      0.007465     -0.005034
      2.41972      8.46535      7.43517         0.227900     -0.127210     -0.034384
      2.46569      9.87941      7.34316         0.073044      0.038992      0.016103
      5.00315      8.44963      7.43203        -0.274998     -0.094170     -0.100752
      4.95615      9.86598      7.34161        -0.018660     -0.024284     -0.006836
      7.47181      8.51256      7.30799        -0.049340     -0.033665      0.031355
      7.44695      9.92986      7.28394         0.025299      0.028119     -0.003082
     -6.17863     10.64515      7.25968        -0.053713     -0.006657     -0.000003
     -6.18318     12.06336      7.25221         0.000819     -0.000894     -0.000178
     -3.71124     10.65145      7.25543        -0.018182     -0.021987     -0.003422
     -3.70681     12.07123      7.25346         0.006188     -0.020579     -0.004281
     -1.24841     10.64232      7.26619         0.041116      0.020923     -0.006107
     -1.22919     12.05949      7.25682         0.003133     -0.017687     -0.002707
      1.23586     10.62129      7.29125         0.008121      0.027606      0.005828
      1.23773     12.03125      7.26504        -0.039885     -0.004956      0.005385
      3.71904     10.58467      7.32649        -0.051903     -0.004823     -0.003109
      3.70354     12.00004      7.27950        -0.032460      0.067608      0.000027
      6.19485     10.60915      7.28984        -0.026985     -0.024000     -0.005245
      6.18755     12.03100      7.26570         0.039756      0.013333     -0.002164
      3.71435      7.09124      8.10759        -0.005093     -0.001706      0.272597
      3.71435      7.09124     14.08759        -0.491034     -1.107946      1.271726
      3.39334      6.36540     14.93292         0.490084      1.106370     -1.279090
 -----------------------------------------------------------------------------------
    total drift:                                0.001028     -0.003106      0.027567


--------------------------------------------------------------------------------------------------------



  FREE ENERGIE OF THE ION-ELECTRON SYSTEM (eV)
  ---------------------------------------------------
  free  energy   TOTEN  =      -668.37058220 eV

  energy  without entropy=     -668.37058220  energy(sigma->0) =     -668.37058220
 


--------------------------------------------------------------------------------------------------------


    POTLOK:  cpu time    0.1458: real time    0.1462


--------------------------------------------------------------------------------------------------------


 stress matrix after NEB project (eV)
     -2.06048     -0.69944      0.39249
     -0.69944     -3.27699      0.90650
      0.39249      0.90650     -4.34504
  FORCES: max atom, RMS     1.760770    0.306658
  FORCE total and by dimension    2.620089    1.279090
  Stress total and by dimension    6.065782    4.345044
     LOOP+:  cpu time  318.1344: real time  320.1980
    4ORBIT:  cpu time    0.0000: real time    0.0000
 


 total charge     
 
# of ion       s       p       d       tot
------------------------------------------
    1        0.863   1.779   0.000   2.642
    2        0.864   1.781   0.000   2.645
    3        0.864   1.781   0.000   2.645
    4        0.864   1.783   0.000   2.646
    5        0.863   1.781   0.000   2.644
    6        0.864   1.787   0.000   2.651
    7        0.852   1.748   0.000   2.600
    8        0.862   1.788   0.000   2.649
    9        0.851   1.751   0.000   2.602
   10        0.862   1.790   0.000   2.652
   11        0.862   1.781   0.000   2.643
   12        0.865   1.788   0.000   2.653
   13        0.865   1.788   0.000   2.653
   14        0.866   1.789   0.000   2.655
   15        0.863   1.780   0.000   2.643
   16        0.864   1.772   0.000   2.635
   17        0.862   1.774   0.000   2.636
   18        0.864   1.771   0.000   2.634
   19        0.862   1.778   0.000   2.640
   20        0.863   1.770   0.000   2.633
   21        0.866   1.792   0.000   2.659
   22        0.865   1.794   0.000   2.660
   23        0.862   1.786   0.000   2.648
   24        0.865   1.786   0.000   2.651
   25        0.864   1.787   0.000   2.652
   26        0.867   1.795   0.000   2.662
   27        0.866   1.790   0.000   2.656
   28        0.871   1.802   0.000   2.673
   29        0.862   1.758   0.000   2.620
   30        0.874   1.687   0.000   2.561
   31        0.862   1.758   0.000   2.619
   32        0.874   1.688   0.000   2.562
   33        0.867   1.789   0.000   2.656
   34        0.871   1.804   0.000   2.675
   35        0.865   1.790   0.000   2.655
   36        0.868   1.797   0.000   2.664
   37        0.867   1.796   0.000   2.663
   38        0.867   1.796   0.000   2.663
   39        0.867   1.796   0.000   2.663
   40        0.867   1.796   0.000   2.663
   41        0.876   1.786   0.000   2.662
   42        0.877   1.791   0.000   2.668
   43        0.877   1.787   0.000   2.663
   44        0.876   1.787   0.000   2.663
   45        0.868   1.795   0.000   2.663
   46        0.867   1.798   0.000   2.665
   47        0.868   1.793   0.000   2.661
   48        0.864   1.790   0.000   2.654
   49        0.868   1.796   0.000   2.664
   50        0.864   1.795   0.000   2.659
   51        0.869   1.802   0.000   2.671
   52        0.864   1.798   0.000   2.662
   53        0.873   1.689   0.000   2.562
   54        0.860   1.766   0.000   2.626
   55        0.874   1.686   0.000   2.560
   56        0.861   1.762   0.000   2.623
   57        0.871   1.800   0.000   2.671
   58        0.866   1.790   0.000   2.656
   59        0.866   1.789   0.000   2.655
   60        0.864   1.787   0.000   2.651
   61        0.866   1.787   0.000   2.653
   62        0.863   1.785   0.000   2.649
   63        0.868   1.793   0.000   2.661
   64        0.862   1.794   0.000   2.656
   65        0.853   1.737   0.000   2.590
   66        1.209   2.694   0.000   3.903
   67        0.864   1.776   0.000   2.640
   68        0.860   1.779   0.000   2.640
   69        0.864   1.770   0.000   2.634
   70        0.863   1.778   0.000   2.640
   71        0.388   6.285   4.278  10.952
   72        1.036   1.403   0.000   2.439
   73        1.637   3.514   0.000   5.151
--------------------------------------------------
tot         63.991 136.629   4.278 204.898
 


 magnetization (x)
 
# of ion       s       p       d       tot
------------------------------------------
    1        0.000   0.002   0.000   0.002
    2        0.000   0.000   0.000   0.000
    3        0.000   0.002   0.000   0.002
    4        0.000   0.006   0.000   0.007
    5        0.000   0.002   0.000   0.002
    6        0.000   0.008   0.000   0.008
    7       -0.000  -0.001   0.000  -0.001
    8        0.000   0.003   0.000   0.003
    9        0.001   0.019   0.000   0.020
   10       -0.000  -0.001   0.000  -0.002
   11        0.001   0.009   0.000   0.009
   12       -0.000  -0.001   0.000  -0.001
   13        0.000   0.003   0.000   0.004
   14        0.000   0.003   0.000   0.003
   15        0.000   0.004   0.000   0.004
   16        0.001   0.004   0.000   0.005
   17       -0.001  -0.005   0.000  -0.006
   18        0.002   0.026   0.000   0.027
   19        0.000   0.002   0.000   0.002
   20        0.001   0.004   0.000   0.005
   21        0.000   0.005   0.000   0.006
   22       -0.000   0.002   0.000   0.002
   23        0.001   0.009   0.000   0.010
   24       -0.000  -0.002   0.000  -0.002
   25        0.001   0.010   0.000   0.010
   26       -0.000   0.000   0.000  -0.000
   27       -0.000  -0.000   0.000  -0.000
   28        0.000   0.003   0.000   0.003
   29       -0.001  -0.006   0.000  -0.007
   30        0.015   0.086   0.000   0.101
   31       -0.001  -0.005   0.000  -0.006
   32        0.015   0.083   0.000   0.097
   33       -0.000  -0.001   0.000  -0.002
   34        0.000   0.003   0.000   0.003
   35        0.001   0.014   0.000   0.015
   36       -0.000  -0.001   0.000  -0.001
   37        0.000   0.002   0.000   0.002
   38       -0.000   0.000   0.000   0.000
   39        0.000   0.008   0.000   0.008
   40        0.000   0.005   0.000   0.005
   41       -0.001   0.010   0.000   0.009
   42       -0.001   0.010   0.000   0.010
   43       -0.000   0.012   0.000   0.012
   44       -0.001   0.006   0.000   0.006
   45        0.001   0.012   0.000   0.013
   46        0.000   0.004   0.000   0.005
   47        0.000   0.003   0.000   0.003
   48        0.000   0.006   0.000   0.007
   49        0.000   0.003   0.000   0.003
   50        0.000   0.008   0.000   0.009
   51        0.000   0.004   0.000   0.005
   52       -0.000   0.001   0.000   0.001
   53        0.015   0.082   0.000   0.097
   54       -0.001  -0.009   0.000  -0.010
   55        0.016   0.092   0.000   0.108
   56       -0.001  -0.009   0.000  -0.011
   57        0.001   0.006   0.000   0.007
   58       -0.000  -0.001   0.000  -0.001
   59        0.000   0.006   0.000   0.006
   60       -0.000  -0.000   0.000  -0.000
   61       -0.000  -0.001   0.000  -0.001
   62        0.000   0.007   0.000   0.007
   63        0.000   0.003   0.000   0.004
   64       -0.000   0.000   0.000   0.000
   65        0.001   0.007   0.000   0.008
   66        0.000   0.009   0.000   0.009
   67        0.002   0.038   0.000   0.040
   68       -0.001  -0.007   0.000  -0.008
   69        0.001   0.007   0.000   0.008
   70       -0.000   0.000   0.000   0.000
   71       -0.035   0.013  -1.963  -1.985
   72        0.000  -0.000   0.000   0.000
   73        0.000   0.000   0.000   0.000
--------------------------------------------------
tot          0.034   0.628  -1.963  -1.302
 
 BZINTS: Fermi energy: -1.991947;303.000000 electrons
         Band energy:***********;  BLOECHL correction: -0.005188

 total amount of memory used by VASP MPI-rank0   116147. kBytes
=======================================================================

   base      :      30000. kBytes
   nonl-proj :      27330. kBytes
   fftplans  :       4700. kBytes
   grid      :      15193. kBytes
   one-center:        217. kBytes
   wavefun   :      38707. kBytes
 
  
  
 General timing and accounting informations for this job:
 ========================================================
  
                  Total CPU time used (sec):      335.521
                            User time (sec):      330.848
                          System time (sec):        4.674
                         Elapsed time (sec):      346.003
  
                   Maximum memory used (kb):      474324.
                   Average memory used (kb):           0.
  
                          Minor page faults:       370480
                          Major page faults:            0
                 Voluntary context switches:         8039
