       N       E                     dE             d eps       ncg     rms          rms(c)
DAV:   1     0.260676027858E+04    0.26068E+04   -0.11013E+05  3840   0.123E+03
DAV:   2    -0.585810806020E+02   -0.26653E+04   -0.25809E+04  4640   0.317E+02
DAV:   3    -0.504276905520E+03   -0.44570E+03   -0.44163E+03  4000   0.148E+02
DAV:   4    -0.521993640069E+03   -0.17717E+02   -0.17362E+02  4416   0.409E+01
DAV:   5    -0.522621524888E+03   -0.62788E+00   -0.62275E+00  4864   0.599E+00    0.421E+01
DAV:   6    -0.496538407670E+03    0.26083E+02   -0.57113E+01  4280   0.256E+01    0.263E+01
DAV:   7    -0.491313273089E+03    0.52251E+01   -0.44703E+01  4152   0.194E+01    0.172E+01
DAV:   8    -0.488869723499E+03    0.24435E+01   -0.14139E+01  4024   0.125E+01    0.118E+01
DAV:   9    -0.488803735631E+03    0.65988E-01   -0.11036E+01  4680   0.990E+00    0.645E+00
DAV:  10    -0.488509577852E+03    0.29416E+00   -0.55930E+00  4216   0.641E+00    0.335E+00
DAV:  11    -0.488446646462E+03    0.62931E-01   -0.35618E+00  5136   0.399E+00    0.258E+00
DAV:  12    -0.488336513107E+03    0.11013E+00   -0.25073E+00  4704   0.323E+00    0.165E+00
DAV:  13    -0.488286034052E+03    0.50479E-01   -0.62086E-01  3968   0.167E+00    0.632E-01
DAV:  14    -0.488281463094E+03    0.45710E-02   -0.74871E-02  3920   0.715E-01    0.321E-01
DAV:  15    -0.488281653591E+03   -0.19050E-03   -0.77706E-03  4552   0.262E-01    0.252E-01
DAV:  16    -0.488281480950E+03    0.17264E-03   -0.15688E-03  3944   0.127E-01    0.147E-01
DAV:  17    -0.488281479448E+03    0.15016E-05   -0.51367E-04  3136   0.677E-02
   1 F= -.49262639E+03 E0= -.49262639E+03  d E =0.000000E+00  mag=     0.0000
