fcc Si                                  
    3.900000000000000     
     0.500000    0.500000    0.000000
     0.000000    0.500000    0.500000
     0.500000    0.000000    0.500000
   Si
     1
Direct
  0.000000  0.000000  0.000000
 
   20   20   20
 -2.5619     -1.7636     0.29389      2.7776      4.7891      5.7896      5.7871      5.2154      4.6009      4.1814    
  4.0338      4.1814      4.6009      5.2154      5.7871      5.7896      4.7891      2.7776     0.29389     -1.7636    
 -1.7636     -.33849      1.9095      4.0966      5.5024      5.8818      5.4888      4.8410      4.3150      4.0290    
  4.0292      4.3152      4.8410      5.4886      5.8818      5.5027      4.0968      1.9091     -.33929     -1.7640    
 0.29389      1.9095      3.8121      5.2662      5.8571      5.6387      5.0147      4.4179      4.0173      3.8774    
  4.0173      4.4179      5.0147      5.6386      5.8571      5.2663      3.8121      1.9094     0.29378     -.33929    
  2.7776      4.0966      5.2662      5.8311      5.6957      5.1164      4.4851      4.0034      3.7469      3.7468    
  4.0033      4.4850      5.1165      5.6956      5.8309      5.2661      4.0969      2.7782      1.9094      1.9091    
  4.7891      5.5024      5.8571      5.6957      5.1492      4.5176      3.9925      3.6528      3.5362      3.6528    
  3.9925      4.5176      5.1492      5.6957      5.8571      5.5024      4.7892      4.0969      3.8121      4.0968    
  5.7896      5.8818      5.6387      5.1164      4.5176      3.9885      3.6042      3.4048      3.4049      3.6043    
  3.9885      4.5176      5.1165      5.6388      5.8818      5.7894      5.5024      5.2661      5.2663      5.5027    
  5.7871      5.4888      5.0147      4.4851      3.9925      3.6042      3.3605      3.2781      3.3605      3.6042    
  3.9925      4.4850      5.0147      5.4888      5.7871      5.8818      5.8571      5.8309      5.8571      5.8818    
  5.2154      4.8410      4.4179      4.0034      3.6528      3.4048      3.2781      3.2781      3.4048      3.6528    
  4.0033      4.4178      4.8410      5.2156      5.4888      5.6388      5.6957      5.6956      5.6386      5.4886    
  4.6009      4.3150      4.0173      3.7469      3.5362      3.4049      3.3605      3.4048      3.5362      3.7469    
  4.0173      4.3150      4.6010      4.8410      5.0147      5.1165      5.1492      5.1165      5.0147      4.8410    
  4.1814      4.0290      3.8774      3.7468      3.6528      3.6043      3.6042      3.6528      3.7469      3.8776    
  4.0292      4.1813      4.3150      4.4178      4.4850      4.5176      4.5176      4.4850      4.4179      4.3152    
  4.0338      4.0292      4.0173      4.0033      3.9925      3.9885      3.9925      4.0033      4.0173      4.0292    
  4.0338      4.0292      4.0173      4.0033      3.9925      3.9885      3.9925      4.0033      4.0173      4.0292    
  4.1814      4.3152      4.4179      4.4850      4.5176      4.5176      4.4850      4.4178      4.3150      4.1813    
  4.0292      3.8776      3.7469      3.6528      3.6042      3.6043      3.6528      3.7468      3.8774      4.0290    
  4.6009      4.8410      5.0147      5.1165      5.1492      5.1165      5.0147      4.8410      4.6010      4.3150    
  4.0173      3.7469      3.5362      3.4048      3.3605      3.4049      3.5362      3.7469      4.0173      4.3150    
  5.2154      5.4886      5.6386      5.6956      5.6957      5.6388      5.4888      5.2156      4.8410      4.4178    
  4.0033      3.6528      3.4048      3.2781      3.2781      3.4048      3.6528      4.0034      4.4179      4.8410    
  5.7871      5.8818      5.8571      5.8309      5.8571      5.8818      5.7871      5.4888      5.0147      4.4850    
  3.9925      3.6042      3.3605      3.2781      3.3605      3.6042      3.9925      4.4851      5.0147      5.4888    
  5.7896      5.5027      5.2663      5.2661      5.5024      5.7894      5.8818      5.6388      5.1165      4.5176    
  3.9885      3.6043      3.4049      3.4048      3.6042      3.9885      4.5176      5.1164      5.6387      5.8818    
  4.7891      4.0968      3.8121      4.0969      4.7892      5.5024      5.8571      5.6957      5.1492      4.5176    
  3.9925      3.6528      3.5362      3.6528      3.9925      4.5176      5.1492      5.6957      5.8571      5.5024    
  2.7776      1.9091      1.9094      2.7782      4.0969      5.2661      5.8309      5.6956      5.1165      4.4850    
  4.0033      3.7468      3.7469      4.0034      4.4851      5.1164      5.6957      5.8311      5.2662      4.0966    
 0.29389     -.33929     0.29378      1.9094      3.8121      5.2663      5.8571      5.6386      5.0147      4.4179    
  4.0173      3.8774      4.0173      4.4179      5.0147      5.6387      5.8571      5.2662      3.8121      1.9095    
 -1.7636     -1.7640     -.33929      1.9091      4.0968      5.5027      5.8818      5.4886      4.8410      4.3152    
  4.0292      4.0290      4.3150      4.8410      5.4888      5.8818      5.5024      4.0966      1.9095     -.33849    
 -1.7636     -.33853      1.9094      4.0966      5.5023      5.8818      5.4888      4.8410      4.3150      4.0290    
  4.0292      4.3152      4.8410      5.4886      5.8818      5.5027      4.0968      1.9091     -.33928     -1.7640    
 -.33853      1.4207      3.5101      5.1408      5.8592      5.7058      5.0953      4.4918      4.0843      3.9418    
  4.0844      4.4917      5.0952      5.7059      5.8595      5.1411      3.5098      1.4198     -.33936     -1.0260    
  1.9094      3.5101      4.9831      5.7922      5.7994      5.2641      4.6220      4.1248      3.8582      3.8581    
  4.1246      4.6219      5.2642      5.7996      5.7923      4.9830      3.5099      1.9093     0.87035     0.87039    
  4.0966      5.1408      5.7922      5.8219      5.3446      4.7002      4.1500      3.7904      3.6664      3.7904    
  4.1500      4.7002      5.3445      5.8219      5.7922      5.1410      4.0970      3.1433      2.7590      3.1430    
  5.5023      5.8592      5.7994      5.3446      4.7263      4.1622      3.7470      3.5301      3.5302      3.7471    
  4.1621      4.7261      5.3445      5.7995      5.8593      5.5024      4.9522      4.5516      4.5516      4.9522    
  5.8818      5.7058      5.2641      4.7002      4.1622      3.7323      3.4604      3.3681      3.4604      3.7323    
  4.1622      4.7003      5.2642      5.7059      5.8817      5.8036      5.6284      5.5428      5.6286      5.8038    
  5.4888      5.0953      4.6220      4.1500      3.7470      3.4604      3.3135      3.3135      3.4604      3.7470    
  4.1501      4.6220      5.0953      5.4888      5.7219      5.8018      5.8064      5.8064      5.8017      5.7218    
  4.8410      4.4918      4.1248      3.7904      3.5301      3.3681      3.3135      3.3681      3.5301      3.7904    
  4.1246      4.4916      4.8410      5.1293      5.3273      5.4300      5.4597      5.4298      5.3270      5.1291    
  4.3150      4.0843      3.8582      3.6664      3.5302      3.4604      3.4604      3.5301      3.6664      3.8583    
  4.0843      4.3150      4.5204      4.6794      4.7836      4.8339      4.8339      4.7835      4.6794      4.5204    
  4.0290      3.9418      3.8581      3.7904      3.7471      3.7323      3.7470      3.7904      3.8583      3.9420    
  4.0292      4.1072      4.1678      4.2082      4.2302      4.2371      4.2303      4.2083      4.1679      4.1073    
  4.0292      4.0844      4.1246      4.1500      4.1621      4.1622      4.1501      4.1246      4.0843      4.0292    
  3.9624      3.8918      3.8277      3.7796      3.7540      3.7541      3.7796      3.8277      3.8918      3.9624    
  4.3152      4.4917      4.6219      4.7002      4.7261      4.7003      4.6220      4.4916      4.3150      4.1072    
  3.8918      3.6958      3.5422      3.4460      3.4135      3.4460      3.5422      3.6956      3.8917      4.1073    
  4.8410      5.0952      5.2642      5.3445      5.3445      5.2642      5.0953      4.8410      4.5204      4.1678    
  3.8277      3.5422      3.3410      3.2382      3.2382      3.3410      3.5423      3.8277      4.1678      4.5204    
  5.4886      5.7059      5.7996      5.8219      5.7995      5.7059      5.4888      5.1293      4.6794      4.2082    
  3.7796      3.4460      3.2382      3.1680      3.2381      3.4460      3.7797      4.2083      4.6794      5.1291    
  5.8818      5.8595      5.7923      5.7922      5.8593      5.8817      5.7219      5.3273      4.7836      4.2302    
  3.7540      3.4135      3.2382      3.2381      3.4133      3.7540      4.2303      4.7836      5.3272      5.7218    
  5.5027      5.1411      4.9830      5.1410      5.5024      5.8036      5.8018      5.4300      4.8339      4.2371    
  3.7541      3.4460      3.3410      3.4460      3.7540      4.2370      4.8338      5.4299      5.8019      5.8039    
  4.0968      3.5098      3.5099      4.0970      4.9522      5.6284      5.8064      5.4597      4.8339      4.2303    
  3.7796      3.5422      3.5423      3.7797      4.2303      4.8338      5.4596      5.8065      5.6285      4.9523    
  1.9091      1.4198      1.9093      3.1433      4.5516      5.5428      5.8064      5.4298      4.7835      4.2083    
  3.8277      3.6956      3.8277      4.2083      4.7836      5.4299      5.8065      5.5427      4.5514      3.1430    
 -.33928     -.33936     0.87035      2.7590      4.5516      5.6286      5.8017      5.3270      4.6794      4.1679    
  3.8918      3.8917      4.1678      4.6794      5.3272      5.8019      5.6285      4.5514      2.7589     0.87043    
 -1.7640     -1.0260     0.87039      3.1430      4.9522      5.8038      5.7218      5.1291      4.5204      4.1073    
  3.9624      4.1073      4.5204      5.1291      5.7218      5.8039      4.9523      3.1430     0.87043     -1.0260    
 0.29384      1.9094      3.8121      5.2663      5.8571      5.6386      5.0147      4.4180      4.0173      3.8774    
  4.0173      4.4180      5.0147      5.6386      5.8571      5.2663      3.8121      1.9093     0.29377     -.33930    
  1.9094      3.5101      4.9831      5.7922      5.7994      5.2641      4.6220      4.1248      3.8582      3.8581    
  4.1246      4.6219      5.2642      5.7996      5.7923      4.9830      3.5099      1.9093     0.87033     0.87037    
  3.8121      4.9831      5.7495      5.8558      5.4096      4.7636      4.2052      3.8388      3.7121      3.8388    
  4.2052      4.7635      5.4096      5.8558      5.7495      4.9831      3.8122      2.7589      2.3369      2.7588    
  5.2663      5.7922      5.8558      5.4561      4.8356      4.2545      3.8235      3.5975      3.5975      3.8237    
  4.2545      4.8354      5.4559      5.8557      5.7923      5.2665      4.5517      4.0491      4.0490      4.5514    
  5.8571      5.7994      5.4096      4.8356      4.2711      3.8156      3.5258      3.4271      3.5258      3.8156    
  4.2711      4.8355      5.4096      5.7994      5.8571      5.6285      5.3270      5.1921      5.3270      5.6285    
  5.6386      5.2641      4.7636      4.2545      3.8156      3.5016      3.3402      3.3402      3.5016      3.8155    
  4.2546      4.7637      5.2642      5.6386      5.8017      5.7941      5.7391      5.7392      5.7944      5.8019    
  5.0147      4.6220      4.2052      3.8235      3.5258      3.3402      3.2777      3.3402      3.5258      3.8235    
  4.2052      4.6220      5.0147      5.3272      5.5156      5.5950      5.6133      5.5950      5.5156      5.3272    
  4.4180      4.1248      3.8388      3.5975      3.4271      3.3402      3.3402      3.4272      3.5975      3.8387    
  4.1246      4.4178      4.6794      4.8815      5.0127      5.0743      5.0742      5.0125      4.8814      4.6794    
  4.0173      3.8582      3.7121      3.5975      3.5258      3.5016      3.5258      3.5975      3.7121      3.8582    
  4.0173      4.1678      4.2919      4.3802      4.4314      4.4479      4.4313      4.3802      4.2919      4.1678    
  3.8774      3.8581      3.8388      3.8237      3.8156      3.8155      3.8235      3.8387      3.8582      3.8776    
  3.8918      3.8984      3.8980      3.8944      3.8913      3.8913      3.8945      3.8982      3.8984      3.8917    
  4.0173      4.1246      4.2052      4.2545      4.2711      4.2546      4.2052      4.1246      4.0173      3.8918    
  3.7613      3.6414      3.5463      3.4859      3.4654      3.4859      3.5463      3.6414      3.7613      3.8918    
  4.4180      4.6219      4.7635      4.8354      4.8355      4.7637      4.6220      4.4178      4.1678      3.8984    
  3.6414      3.4267      3.2752      3.1978      3.1978      3.2752      3.4266      3.6413      3.8984      4.1680    
  5.0147      5.2642      5.4096      5.4559      5.4096      5.2642      5.0147      4.6794      4.2919      3.8980    
  3.5463      3.2752      3.1071      3.0505      3.1071      3.2752      3.5463      3.8980      4.2919      4.6794    
  5.6386      5.7996      5.8558      5.8557      5.7994      5.6386      5.3272      4.8815      4.3802      3.8944    
  3.4859      3.1978      3.0505      3.0505      3.1977      3.4860      3.8945      4.3802      4.8813      5.3270    
  5.8571      5.7923      5.7495      5.7923      5.8571      5.8017      5.5156      5.0127      4.4314      3.8913    
  3.4654      3.1978      3.1071      3.1977      3.4653      3.8913      4.4313      5.0127      5.5156      5.8018    
  5.2663      4.9830      4.9831      5.2665      5.6285      5.7941      5.5950      5.0743      4.4479      3.8913    
  3.4859      3.2752      3.2752      3.4860      3.8913      4.4477      5.0742      5.5952      5.7944      5.6286    
  3.8121      3.5099      3.8122      4.5517      5.3270      5.7391      5.6133      5.0742      4.4313      3.8945    
  3.5463      3.4266      3.5463      3.8945      4.4313      5.0742      5.6133      5.7391      5.3270      4.5516    
  1.9093      1.9093      2.7589      4.0491      5.1921      5.7392      5.5950      5.0125      4.3802      3.8982    
  3.6414      3.6413      3.8980      4.3802      5.0127      5.5952      5.7391      5.1918      4.0489      2.7590    
 0.29377     0.87033      2.3369      4.0490      5.3270      5.7944      5.5156      4.8814      4.2919      3.8984    
  3.7613      3.8984      4.2919      4.8813      5.5156      5.7944      5.3270      4.0489      2.3369     0.87036    
 -.33930     0.87037      2.7588      4.5514      5.6285      5.8019      5.3272      4.6794      4.1678      3.8917    
  3.8918      4.1680      4.6794      5.3270      5.8018      5.6286      4.5516      2.7590     0.87036     -.33933    
  2.7776      4.0966      5.2663      5.8311      5.6957      5.1164      4.4851      4.0035      3.7469      3.7467    
  4.0033      4.4850      5.1164      5.6956      5.8309      5.2662      4.0969      2.7782      1.9094      1.9091    
  4.0966      5.1408      5.7922      5.8220      5.3446      4.7002      4.1501      3.7905      3.6664      3.7904    
  4.1500      4.7002      5.3445      5.8218      5.7922      5.1410      4.0969      3.1432      2.7590      3.1430    
  5.2663      5.7922      5.8558      5.4561      4.8356      4.2545      3.8236      3.5975      3.5975      3.8237    
  4.2545      4.8354      5.4559      5.8556      5.7923      5.2665      4.5517      4.0491      4.0490      4.5514    
  5.8311      5.8220      5.4561      4.8815      4.3085      3.8444      3.5485      3.4477      3.5486      3.8445    
  4.3086      4.8815      5.4559      5.8216      5.8310      5.5430      5.1921      5.0378      5.1918      5.5428    
  5.6957      5.3446      4.8356      4.3085      3.8514      3.5235      3.3546      3.3545      3.5235      3.8515    
  4.3086      4.8356      5.3445      5.6954      5.8064      5.7391      5.6444      5.6444      5.7391      5.8065    
  5.1164      4.7002      4.2545      3.8444      3.5235      3.3232      3.2556      3.3232      3.5235      3.8444    
  4.2546      4.7004      5.1164      5.4298      5.5949      5.6463      5.6524      5.6465      5.5952      5.4299    
  4.4851      4.1501      3.8236      3.5485      3.3546      3.2556      3.2556      3.3546      3.5485      3.8236    
  4.1501      4.4851      4.7836      5.0127      5.1552      5.2179      5.2180      5.1553      5.0128      4.7836    
  4.0035      3.7905      3.5975      3.4477      3.3545      3.3232      3.3546      3.4477      3.5975      3.7904    
  4.0033      4.2082      4.3802      4.5047      4.5777      4.6014      4.5776      4.5046      4.3803      4.2083    
  3.7469      3.6664      3.5975      3.5486      3.5235      3.5235      3.5485      3.5975      3.6664      3.7468    
  3.8277      3.8981      3.9512      3.9851      4.0012      4.0012      3.9851      3.9511      3.8980      3.8277    
  3.7467      3.7904      3.8237      3.8445      3.8515      3.8444      3.8236      3.7904      3.7468      3.6957    
  3.6414      3.5897      3.5473      3.5196      3.5100      3.5197      3.5474      3.5898      3.6413      3.6956    
  4.0033      4.1500      4.2545      4.3086      4.3086      4.2546      4.1501      4.0033      3.8277      3.6414    
  3.4651      3.3180      3.2139      3.1604      3.1604      3.2139      3.3180      3.4652      3.6414      3.8277    
  4.4850      4.7002      4.8354      4.8815      4.8356      4.7004      4.4851      4.2082      3.8981      3.5897    
  3.3180      3.1098      2.9809      2.9375      2.9809      3.1098      3.3180      3.5898      3.8982      4.2083    
  5.1164      5.3445      5.4559      5.4559      5.3445      5.1164      4.7836      4.3802      3.9512      3.5473    
  3.2139      2.9809      2.8623      2.8624      2.9809      3.2139      3.5473      3.9511      4.3802      4.7835    
  5.6956      5.8218      5.8556      5.8216      5.6954      5.4298      5.0127      4.5047      3.9851      3.5196    
  3.1604      2.9375      2.8624      2.9375      3.1604      3.5197      3.9851      4.5045      5.0125      5.4298    
  5.8309      5.7922      5.7923      5.8310      5.8064      5.5949      5.1552      4.5777      4.0012      3.5100    
  3.1604      2.9809      2.9809      3.1604      3.5100      4.0011      4.5777      5.1553      5.5950      5.8064    
  5.2662      5.1410      5.2665      5.5430      5.7391      5.6463      5.2179      4.6014      4.0012      3.5197    
  3.2139      3.1098      3.2139      3.5197      4.0011      4.6014      5.2181      5.6465      5.7392      5.5428    
  4.0969      4.0969      4.5517      5.1921      5.6444      5.6524      5.2180      4.5776      3.9851      3.5474    
  3.3180      3.3180      3.5473      3.9851      4.5777      5.2181      5.6524      5.6444      5.1920      4.5516    
  2.7782      3.1432      4.0491      5.0378      5.6444      5.6465      5.1553      4.5046      3.9511      3.5898    
  3.4652      3.5898      3.9511      4.5045      5.1553      5.6465      5.6444      5.0378      4.0491      3.1433    
  1.9094      2.7590      4.0490      5.1918      5.7391      5.5952      5.0128      4.3803      3.8980      3.6413    
  3.6414      3.8982      4.3802      5.0125      5.5950      5.7392      5.1920      4.0491      2.7589      1.9093    
  1.9091      3.1430      4.5514      5.5428      5.8065      5.4299      4.7836      4.2083      3.8277      3.6956    
  3.8277      4.2083      4.7835      5.4298      5.8064      5.5428      4.5516      3.1433      1.9093      1.4199    
  4.7891      5.5023      5.8571      5.6957      5.1491      4.5176      3.9925      3.6529      3.5362      3.6528    
  3.9925      4.5176      5.1492      5.6957      5.8571      5.5024      4.7892      4.0969      3.8122      4.0968    
  5.5023      5.8592      5.7994      5.3446      4.7263      4.1622      3.7470      3.5301      3.5302      3.7471    
  4.1621      4.7262      5.3445      5.7995      5.8593      5.5024      4.9522      4.5516      4.5516      4.9523    
  5.8571      5.7994      5.4096      4.8356      4.2711      3.8155      3.5258      3.4271      3.5258      3.8156    
  4.2711      4.8355      5.4096      5.7993      5.8570      5.6285      5.3270      5.1920      5.3270      5.6286    
  5.6957      5.3446      4.8356      4.3085      3.8514      3.5235      3.3546      3.3545      3.5235      3.8515    
  4.3086      4.8356      5.3444      5.6954      5.8064      5.7391      5.6444      5.6444      5.7391      5.8065    
  5.1491      4.7263      4.2711      3.8514      3.5228      3.3175      3.2483      3.3175      3.5228      3.8515    
  4.2712      4.7263      5.1491      5.4595      5.6132      5.6523      5.6532      5.6524      5.6133      5.4595    
  4.5176      4.1622      3.8155      3.5235      3.3175      3.2125      3.2125      3.3175      3.5235      3.8155    
  4.1622      4.5177      4.8339      5.0742      5.2179      5.2783      5.2784      5.2181      5.0742      4.8337    
  3.9925      3.7470      3.5258      3.3546      3.2483      3.2125      3.2482      3.3546      3.5258      3.7470    
  3.9925      4.2303      4.4314      4.5777      4.6639      4.6920      4.6639      4.5777      4.4313      4.2303    
  3.6529      3.5301      3.4271      3.3545      3.3175      3.3175      3.3546      3.4271      3.5302      3.6528    
  3.7796      3.8944      3.9851      4.0458      4.0756      4.0755      4.0457      3.9851      3.8945      3.7797    
  3.5362      3.5302      3.5258      3.5235      3.5228      3.5235      3.5258      3.5302      3.5362      3.5422    
  3.5463      3.5473      3.5460      3.5441      3.5432      3.5440      3.5460      3.5473      3.5463      3.5422    
  3.6528      3.7471      3.8156      3.8515      3.8515      3.8155      3.7470      3.6528      3.5422      3.4267    
  3.3180      3.2272      3.1626      3.1293      3.1293      3.1627      3.2272      3.3179      3.4265      3.5422    
  3.9925      4.1621      4.2711      4.3086      4.2712      4.1622      3.9925      3.7796      3.5463      3.3180    
  3.1185      2.9659      2.8712      2.8392      2.8712      2.9659      3.1185      3.3180      3.5463      3.7796    
  4.5176      4.7262      4.8355      4.8356      4.7263      4.5177      4.2303      3.8944      3.5473      3.2272    
  2.9659      2.7841      2.6917      2.6917      2.7841      2.9659      3.2273      3.5474      3.8945      4.2303    
  5.1492      5.3445      5.4096      5.3444      5.1491      4.8339      4.4314      3.9851      3.5460      3.1626    
  2.8712      2.6917      2.6314      2.6917      2.8712      3.1626      3.5460      3.9851      4.4313      4.8339    
  5.6957      5.7995      5.7993      5.6954      5.4595      5.0742      4.5777      4.0458      3.5441      3.1293    
  2.8392      2.6917      2.6917      2.8393      3.1293      3.5440      4.0457      4.5775      5.0742      5.4597    
  5.8571      5.8593      5.8570      5.8064      5.6132      5.2179      4.6639      4.0756      3.5432      3.1293    
  2.8712      2.7841      2.8712      3.1293      3.5432      4.0756      4.6639      5.2180      5.6133      5.8064    
  5.5024      5.5024      5.6285      5.7391      5.6523      5.2783      4.6920      4.0755      3.5440      3.1627    
  2.9659      2.9659      3.1626      3.5440      4.0756      4.6921      5.2784      5.6524      5.7391      5.6284    
  4.7892      4.9522      5.3270      5.6444      5.6532      5.2784      4.6639      4.0457      3.5460      3.2272    
  3.1185      3.2273      3.5460      4.0457      4.6639      5.2784      5.6532      5.6444      5.3270      4.9522    
  4.0969      4.5516      5.1920      5.6444      5.6524      5.2181      4.5777      3.9851      3.5473      3.3179    
  3.3180      3.5474      3.9851      4.5775      5.2180      5.6524      5.6444      5.1921      4.5517      4.0969    
  3.8122      4.5516      5.3270      5.7391      5.6133      5.0742      4.4313      3.8945      3.5463      3.4265    
  3.5463      3.8945      4.4313      5.0742      5.6133      5.7391      5.3270      4.5517      3.8122      3.5100    
  4.0968      4.9523      5.6286      5.8065      5.4595      4.8337      4.2303      3.7797      3.5422      3.5422    
  3.7796      4.2303      4.8339      5.4597      5.8064      5.6284      4.9522      4.0969      3.5100      3.5099    
  5.7896      5.8818      5.6387      5.1164      4.5176      3.9884      3.6042      3.4048      3.4049      3.6042    
  3.9885      4.5176      5.1165      5.6388      5.8818      5.7894      5.5024      5.2662      5.2663      5.5027    
  5.8818      5.7058      5.2641      4.7002      4.1622      3.7323      3.4604      3.3681      3.4604      3.7323    
  4.1622      4.7003      5.2642      5.7059      5.8817      5.8037      5.6284      5.5428      5.6286      5.8039    
  5.6387      5.2641      4.7636      4.2545      3.8155      3.5016      3.3402      3.3402      3.5015      3.8155    
  4.2546      4.7637      5.2642      5.6386      5.8017      5.7942      5.7391      5.7392      5.7944      5.8019    
  5.1164      4.7002      4.2545      3.8444      3.5235      3.3232      3.2556      3.3232      3.5235      3.8444    
  4.2546      4.7004      5.1164      5.4298      5.5949      5.6463      5.6524      5.6465      5.5952      5.4299    
  4.5176      4.1622      3.8155      3.5235      3.3175      3.2125      3.2125      3.3175      3.5235      3.8155    
  4.1622      4.5177      4.8339      5.0742      5.2179      5.2783      5.2784      5.2181      5.0742      4.8337    
  3.9884      3.7323      3.5016      3.3232      3.2125      3.1752      3.2125      3.3232      3.5015      3.7322    
  3.9885      4.2372      4.4478      4.6014      4.6920      4.7217      4.6921      4.6014      4.4476      4.2370    
  3.6042      3.4604      3.3402      3.2556      3.2125      3.2125      3.2556      3.3402      3.4604      3.6042    
  3.7541      3.8914      4.0012      4.0756      4.1126      4.1126      4.0756      4.0011      3.8913      3.7540    
  3.4048      3.3681      3.3402      3.3232      3.3175      3.3232      3.3402      3.3681      3.4048      3.4460    
  3.4859      3.5197      3.5441      3.5584      3.5631      3.5584      3.5440      3.5197      3.4860      3.4460    
  3.4049      3.4604      3.5015      3.5235      3.5235      3.5015      3.4604      3.4048      3.3410      3.2752    
  3.2139      3.1626      3.1260      3.1070      3.1069      3.1260      3.1626      3.2139      3.2752      3.3410    
  3.6042      3.7323      3.8155      3.8444      3.8155      3.7322      3.6042      3.4460      3.2752      3.1098    
  2.9659      2.8557      2.7871      2.7638      2.7871      2.8557      2.9659      3.1098      3.2752      3.4460    
  3.9885      4.1622      4.2546      4.2546      4.1622      3.9885      3.7541      3.4859      3.2139      2.9659    
  2.7644      2.6240      2.5524      2.5525      2.6240      2.7644      2.9659      3.2139      3.4859      3.7541    
  4.5176      4.7003      4.7637      4.7004      4.5177      4.2372      3.8914      3.5197      3.1626      2.8557    
  2.6240      2.4815      2.4336      2.4815      2.6240      2.8557      3.1627      3.5197      3.8914      4.2371    
  5.1165      5.2642      5.2642      5.1164      4.8339      4.4478      4.0012      3.5441      3.1260      2.7871    
  2.5524      2.4336      2.4336      2.5525      2.7870      3.1260      3.5441      4.0012      4.4478      4.8339    
  5.6388      5.7059      5.6386      5.4298      5.0742      4.6014      4.0756      3.5584      3.1070      2.7638    
  2.5525      2.4815      2.5525      2.7638      3.1069      3.5584      4.0755      4.6014      5.0743      5.4300    
  5.8818      5.8817      5.8017      5.5949      5.2179      4.6920      4.1126      3.5631      3.1069      2.7871    
  2.6240      2.6240      2.7870      3.1069      3.5631      4.1126      4.6920      5.2179      5.5950      5.8019    
  5.7894      5.8037      5.7942      5.6463      5.2783      4.7217      4.1126      3.5584      3.1260      2.8557    
  2.7644      2.8557      3.1260      3.5584      4.1126      4.7217      5.2783      5.6463      5.7942      5.8037    
  5.5024      5.6284      5.7391      5.6524      5.2784      4.6921      4.0756      3.5440      3.1626      2.9659    
  2.9659      3.1627      3.5441      4.0755      4.6920      5.2783      5.6524      5.7391      5.6285      5.5024    
  5.2662      5.5428      5.7392      5.6465      5.2181      4.6014      4.0011      3.5197      3.2139      3.1098    
  3.2139      3.5197      4.0012      4.6014      5.2179      5.6463      5.7391      5.5430      5.2665      5.1410    
  5.2663      5.6286      5.7944      5.5952      5.0742      4.4476      3.8913      3.4860      3.2752      3.2752    
  3.4859      3.8914      4.4478      5.0743      5.5950      5.7942      5.6285      5.2665      4.9831      4.9830    
  5.5027      5.8039      5.8019      5.4299      4.8337      4.2370      3.7540      3.4460      3.3410      3.4460    
  3.7541      4.2371      4.8339      5.4300      5.8019      5.8037      5.5024      5.1410      4.9830      5.1412    
  5.7871      5.4887      5.0147      4.4851      3.9925      3.6041      3.3605      3.2781      3.3605      3.6042    
  3.9925      4.4851      5.0147      5.4888      5.7872      5.8818      5.8571      5.8309      5.8571      5.8818    
  5.4887      5.0953      4.6220      4.1501      3.7470      3.4604      3.3135      3.3135      3.4604      3.7470    
  4.1501      4.6220      5.0953      5.4888      5.7219      5.8019      5.8064      5.8064      5.8017      5.7218    
  5.0147      4.6220      4.2052      3.8235      3.5257      3.3402      3.2777      3.3402      3.5258      3.8235    