fcc Si                                  
    3.900000000000000     
     0.500000    0.500000    0.000000
     0.000000    0.500000    0.500000
     0.500000    0.000000    0.500000
   Si
     1
Direct
  0.000000  0.000000  0.000000
 
   20   20   20
 -.25618628009E+01 -.17635723914E+01 0.29388511453E+00 0.27776379683E+01 0.47891027455E+01
 0.57896328936E+01 0.57871265691E+01 0.52154187892E+01 0.46009362430E+01 0.41813616997E+01
 0.40338301356E+01 0.41813616997E+01 0.46009362430E+01 0.52154187892E+01 0.57871265691E+01
 0.57896328936E+01 0.47891027455E+01 0.27776379683E+01 0.29388511453E+00 -.17635723914E+01
 -.17635723914E+01 -.33848680663E+00 0.19094763464E+01 0.40966028634E+01 0.55023600859E+01
 0.58818052915E+01 0.54887840323E+01 0.48409816746E+01 0.43149822480E+01 0.40290185172E+01
 0.40291643634E+01 0.43152049409E+01 0.48409531768E+01 0.54885624766E+01 0.58817854899E+01
 0.55026721022E+01 0.40968017683E+01 0.19090721343E+01 -.33929361790E+00 -.17639916926E+01
 0.29388511453E+00 0.19094763464E+01 0.38121449941E+01 0.52662460406E+01 0.58570682288E+01
 0.56386617512E+01 0.50147322335E+01 0.44179339808E+01 0.40172842539E+01 0.38773792346E+01
 0.40172825017E+01 0.44179108287E+01 0.50146845910E+01 0.56386261244E+01 0.58570830650E+01
 0.52662850787E+01 0.38121263595E+01 0.19093701828E+01 0.29377584568E+00 -.33929361790E+00
 0.27776379683E+01 0.40966028634E+01 0.52662460406E+01 0.58311069941E+01 0.56956540315E+01
 0.51163713478E+01 0.44850629812E+01 0.40034467470E+01 0.37468683938E+01 0.37467658436E+01
 0.40032687718E+01 0.44850189197E+01 0.51164530447E+01 0.56956385707E+01 0.58309126358E+01
 0.52661494606E+01 0.40969177426E+01 0.27782189120E+01 0.19093701828E+01 0.19090721343E+01
 0.47891027455E+01 0.55023600859E+01 0.58570682288E+01 0.56956540315E+01 0.51491595152E+01
 0.45175835925E+01 0.39924937490E+01 0.36528373854E+01 0.35362413372E+01 0.36528445556E+01
 0.39924826254E+01 0.45175729037E+01 0.51491842132E+01 0.56956854146E+01 0.58570640419E+01
 0.55023717650E+01 0.47891996836E+01 0.40969177426E+01 0.38121263595E+01 0.40968017683E+01
 0.57896328936E+01 0.58818052915E+01 0.56386617512E+01 0.51163713478E+01 0.45175835925E+01
 0.39884552603E+01 0.36041582461E+01 0.34048144267E+01 0.34048725029E+01 0.36042579651E+01
 0.39884995447E+01 0.45176115552E+01 0.51164710222E+01 0.56387825580E+01 0.58817794386E+01
 0.57893958682E+01 0.55023717650E+01 0.52661494606E+01 0.52662850787E+01 0.55026721022E+01
 0.57871265691E+01 0.54887840323E+01 0.50147322335E+01 0.44850629812E+01 0.39924937490E+01
 0.36041582461E+01 0.33604920687E+01 0.32780746038E+01 0.33605315436E+01 0.36041963662E+01
 0.39924950295E+01 0.44850392912E+01 0.50147217952E+01 0.54888031894E+01 0.57871484689E+01
 0.58817794386E+01 0.58570640419E+01 0.58309126358E+01 0.58570830650E+01 0.58817854899E+01
 0.52154187892E+01 0.48409816746E+01 0.44179339808E+01 0.40034467470E+01 0.36528373854E+01
 0.34048144267E+01 0.32780746038E+01 0.32780984876E+01 0.34048377252E+01 0.36527714556E+01
 0.40032766955E+01 0.44177800998E+01 0.48409946159E+01 0.52156120277E+01 0.54888031894E+01
 0.56387825580E+01 0.56956854146E+01 0.56956385707E+01 0.56386261244E+01 0.54885624766E+01
 0.46009362430E+01 0.43149822480E+01 0.40172842539E+01 0.37468683938E+01 0.35362413372E+01
 0.34048725029E+01 0.33605315436E+01 0.34048377252E+01 0.35362076343E+01 0.37468562574E+01
 0.40172829570E+01 0.43149860078E+01 0.46009595488E+01 0.48409946159E+01 0.50147217952E+01
 0.51164710222E+01 0.51491842132E+01 0.51164530447E+01 0.50146845910E+01 0.48409531768E+01
 0.41813616997E+01 0.40290185172E+01 0.38773792346E+01 0.37467658436E+01 0.36528445556E+01
 0.36042579651E+01 0.36041963662E+01 0.36527714556E+01 0.37468562574E+01 0.38776120366E+01
 0.40291703129E+01 0.41812761241E+01 0.43149860078E+01 0.44177800998E+01 0.44850392912E+01
 0.45176115552E+01 0.45175729037E+01 0.44850189197E+01 0.44179108287E+01 0.43152049409E+01
 0.40338301356E+01 0.40291643634E+01 0.40172825017E+01 0.40032687718E+01 0.39924826254E+01
 0.39884995447E+01 0.39924950295E+01 0.40032766955E+01 0.40172829570E+01 0.40291703129E+01
 0.40338430135E+01 0.40291703129E+01 0.40172829570E+01 0.40032766955E+01 0.39924950295E+01
 0.39884995447E+01 0.39924826254E+01 0.40032687718E+01 0.40172825017E+01 0.40291643634E+01
 0.41813616997E+01 0.43152049409E+01 0.44179108287E+01 0.44850189197E+01 0.45175729037E+01
 0.45176115552E+01 0.44850392912E+01 0.44177800998E+01 0.43149860078E+01 0.41812761241E+01
 0.40291703129E+01 0.38776120366E+01 0.37468562574E+01 0.36527714556E+01 0.36041963662E+01
 0.36042579651E+01 0.36528445556E+01 0.37467658436E+01 0.38773792346E+01 0.40290185172E+01
 0.46009362430E+01 0.48409531768E+01 0.50146845910E+01 0.51164530447E+01 0.51491842132E+01
 0.51164710222E+01 0.50147217952E+01 0.48409946159E+01 0.46009595488E+01 0.43149860078E+01
 0.40172829570E+01 0.37468562574E+01 0.35362076343E+01 0.34048377252E+01 0.33605315436E+01
 0.34048725029E+01 0.35362413372E+01 0.37468683938E+01 0.40172842539E+01 0.43149822480E+01
 0.52154187892E+01 0.54885624766E+01 0.56386261244E+01 0.56956385707E+01 0.56956854146E+01
 0.56387825580E+01 0.54888031894E+01 0.52156120277E+01 0.48409946159E+01 0.44177800998E+01
 0.40032766955E+01 0.36527714556E+01 0.34048377252E+01 0.32780984876E+01 0.32780746038E+01
 0.34048144267E+01 0.36528373854E+01 0.40034467470E+01 0.44179339808E+01 0.48409816746E+01
 0.57871265691E+01 0.58817854899E+01 0.58570830650E+01 0.58309126358E+01 0.58570640419E+01
 0.58817794386E+01 0.57871484689E+01 0.54888031894E+01 0.50147217952E+01 0.44850392912E+01
 0.39924950295E+01 0.36041963662E+01 0.33605315436E+01 0.32780746038E+01 0.33604920687E+01
 0.36041582461E+01 0.39924937490E+01 0.44850629812E+01 0.50147322335E+01 0.54887840323E+01
 0.57896328936E+01 0.55026721022E+01 0.52662850787E+01 0.52661494606E+01 0.55023717650E+01
 0.57893958682E+01 0.58817794386E+01 0.56387825580E+01 0.51164710222E+01 0.45176115552E+01
 0.39884995447E+01 0.36042579651E+01 0.34048725029E+01 0.34048144267E+01 0.36041582461E+01
 0.39884552603E+01 0.45175835925E+01 0.51163713478E+01 0.56386617512E+01 0.58818052915E+01
 0.47891027455E+01 0.40968017683E+01 0.38121263595E+01 0.40969177426E+01 0.47891996836E+01
 0.55023717650E+01 0.58570640419E+01 0.56956854146E+01 0.51491842132E+01 0.45175729037E+01
 0.39924826254E+01 0.36528445556E+01 0.35362413372E+01 0.36528373854E+01 0.39924937490E+01
 0.45175835925E+01 0.51491595152E+01 0.56956540315E+01 0.58570682288E+01 0.55023600859E+01
 0.27776379683E+01 0.19090721343E+01 0.19093701828E+01 0.27782189120E+01 0.40969177426E+01
 0.52661494606E+01 0.58309126358E+01 0.56956385707E+01 0.51164530447E+01 0.44850189197E+01
 0.40032687718E+01 0.37467658436E+01 0.37468683938E+01 0.40034467470E+01 0.44850629812E+01
 0.51163713478E+01 0.56956540315E+01 0.58311069941E+01 0.52662460406E+01 0.40966028634E+01
 0.29388511453E+00 -.33929361790E+00 0.29377584568E+00 0.19093701828E+01 0.38121263595E+01
 0.52662850787E+01 0.58570830650E+01 0.56386261244E+01 0.50146845910E+01 0.44179108287E+01
 0.40172825017E+01 0.38773792346E+01 0.40172842539E+01 0.44179339808E+01 0.50147322335E+01
 0.56386617512E+01 0.58570682288E+01 0.52662460406E+01 0.38121449941E+01 0.19094763464E+01
 -.17635723914E+01 -.17639916926E+01 -.33929361790E+00 0.19090721343E+01 0.40968017683E+01
 0.55026721022E+01 0.58817854899E+01 0.54885624766E+01 0.48409531768E+01 0.43152049409E+01
 0.40291643634E+01 0.40290185172E+01 0.43149822480E+01 0.48409816746E+01 0.54887840323E+01
 0.58818052915E+01 0.55023600859E+01 0.40966028634E+01 0.19094763464E+01 -.33848680663E+00
 -.17635964487E+01 -.33853197919E+00 0.19094476552E+01 0.40965929749E+01 0.55023421783E+01
 0.58817822349E+01 0.54887824189E+01 0.48409957635E+01 0.43149827281E+01 0.40290097142E+01
 0.40291751159E+01 0.43152306069E+01 0.48409644162E+01 0.54885634928E+01 0.58818056001E+01
 0.55027071845E+01 0.40968212765E+01 0.19090757800E+01 -.33928343906E+00 -.17639842711E+01
 -.33853197919E+00 0.14207085513E+01 0.35101180166E+01 0.51408300566E+01 0.58591521707E+01
 0.57058375838E+01 0.50953430460E+01 0.44917507327E+01 0.40843257275E+01 0.39417550024E+01
 0.40843825565E+01 0.44917240711E+01 0.50952483274E+01 0.57059211710E+01 0.58595231442E+01
 0.51411337068E+01 0.35098285035E+01 0.14198069422E+01 -.33935693965E+00 -.10260245885E+01
 0.19094476552E+01 0.35101180166E+01 0.49831309006E+01 0.57922205528E+01 0.57993554512E+01
 0.52640728463E+01 0.46220098683E+01 0.41248204056E+01 0.38582408966E+01 0.38581349977E+01
 0.41246148742E+01 0.46219241815E+01 0.52642014022E+01 0.57995618064E+01 0.57922896556E+01
 0.49830015608E+01 0.35099165592E+01 0.19093137368E+01 0.87035460511E+00 0.87039376395E+00
 0.40965929749E+01 0.51408300566E+01 0.57922205528E+01 0.58219364843E+01 0.53445943308E+01
 0.47002319484E+01 0.41500457326E+01 0.37904409485E+01 0.36663996074E+01 0.37904340394E+01
 0.41500082480E+01 0.47001669135E+01 0.53445196740E+01 0.58218563785E+01 0.57921916050E+01
 0.51409839126E+01 0.40969516882E+01 0.31432936829E+01 0.27589804173E+01 0.31429669053E+01
 0.55023421783E+01 0.58591521707E+01 0.57993554512E+01 0.53445943308E+01 0.47263179289E+01
 0.41621760683E+01 0.37469857823E+01 0.35301089351E+01 0.35302063401E+01 0.37471244732E+01
 0.41621356981E+01 0.47261433644E+01 0.53445199478E+01 0.57994742762E+01 0.58593325545E+01
 0.55024408690E+01 0.49522448426E+01 0.45516213731E+01 0.45516318096E+01 0.49522366726E+01
 0.58817822349E+01 0.57058375838E+01 0.52640728463E+01 0.47002319484E+01 0.41621760683E+01
 0.37322766151E+01 0.34603949269E+01 0.33680728797E+01 0.34604094651E+01 0.37322705249E+01
 0.41621679314E+01 0.47002945272E+01 0.52642095021E+01 0.57059313844E+01 0.58817102459E+01
 0.58036286394E+01 0.56284041595E+01 0.55427606851E+01 0.56285854408E+01 0.58038387768E+01
 0.54887824189E+01 0.50953430460E+01 0.46220098683E+01 0.41500457326E+01 0.37469857823E+01
 0.34603949269E+01 0.33135283619E+01 0.33135115329E+01 0.34603762933E+01 0.37470002767E+01
 0.41500581756E+01 0.46219676096E+01 0.50952671851E+01 0.54887583255E+01 0.57218628081E+01
 0.58018438845E+01 0.58064308968E+01 0.58063828081E+01 0.58017417502E+01 0.57217953978E+01
 0.48409957635E+01 0.44917507327E+01 0.41248204056E+01 0.37904409485E+01 0.35301089351E+01
 0.33680728797E+01 0.33135115329E+01 0.33681281263E+01 0.35301465025E+01 0.37903636395E+01
 0.41246140416E+01 0.44915516912E+01 0.48409808968E+01 0.51293358835E+01 0.53272851634E+01
 0.54300142985E+01 0.54596948618E+01 0.54298201460E+01 0.53269969305E+01 0.51291316893E+01
 0.43149827281E+01 0.40843257275E+01 0.38582408966E+01 0.36663996074E+01 0.35302063401E+01
 0.34604094651E+01 0.34603762933E+01 0.35301465025E+01 0.36663747160E+01 0.38582553268E+01
 0.40843381603E+01 0.43149789478E+01 0.45203854132E+01 0.46794257409E+01 0.47835837160E+01
 0.48339305511E+01 0.48339077236E+01 0.47835329693E+01 0.46793851409E+01 0.45203762895E+01
 0.40290097142E+01 0.39417550024E+01 0.38581349977E+01 0.37904340394E+01 0.37471244732E+01
 0.37322705249E+01 0.37470002767E+01 0.37903636395E+01 0.38582553268E+01 0.39419901411E+01
 0.40291511573E+01 0.41072320541E+01 0.41677717934E+01 0.42081540290E+01 0.42302255277E+01
 0.42371088381E+01 0.42302666891E+01 0.42082793297E+01 0.41679389135E+01 0.41072912714E+01
 0.40291751159E+01 0.40843825565E+01 0.41246148742E+01 0.41500082480E+01 0.41621356981E+01
 0.41621679314E+01 0.41500581756E+01 0.41246140416E+01 0.40843381603E+01 0.40291511573E+01
 0.39624366193E+01 0.38918453886E+01 0.38276625133E+01 0.37795565178E+01 0.37540480650E+01
 0.37540633237E+01 0.37795836341E+01 0.38276658378E+01 0.38918170042E+01 0.39624148572E+01
 0.43152306069E+01 0.44917240711E+01 0.46219241815E+01 0.47001669135E+01 0.47261433644E+01
 0.47002945272E+01 0.46219676096E+01 0.44915516912E+01 0.43149789478E+01 0.41072320541E+01
 0.38918453886E+01 0.36957722571E+01 0.35422454455E+01 0.34460046871E+01 0.34134618736E+01
 0.34460399642E+01 0.35421969240E+01 0.36956075440E+01 0.38917219455E+01 0.41073225781E+01
 0.48409644162E+01 0.50952483274E+01 0.52642014022E+01 0.53445196740E+01 0.53445199478E+01
 0.52642095021E+01 0.50952671851E+01 0.48409808968E+01 0.45203854132E+01 0.41677717934E+01
 0.38276625133E+01 0.35422454455E+01 0.33409581203E+01 0.32381663104E+01 0.32381842974E+01
 0.33409923630E+01 0.35422666038E+01 0.38276693784E+01 0.41677773106E+01 0.45203835189E+01
 0.54885634928E+01 0.57059211710E+01 0.57995618064E+01 0.58218563785E+01 0.57994742762E+01
 0.57059313844E+01 0.54887583255E+01 0.51293358835E+01 0.46794257409E+01 0.42081540290E+01
 0.37795565178E+01 0.34460046871E+01 0.32381663104E+01 0.31680381805E+01 0.32381173454E+01
 0.34460262828E+01 0.37797045855E+01 0.42083001251E+01 0.46793855627E+01 0.51291147773E+01
 0.58818056001E+01 0.58595231442E+01 0.57922896556E+01 0.57921916050E+01 0.58593325545E+01
 0.58817102459E+01 0.57218628081E+01 0.53272851634E+01 0.47835837160E+01 0.42302255277E+01
 0.37540480650E+01 0.34134618736E+01 0.32381842974E+01 0.32381173454E+01 0.34133451024E+01
 0.37540162728E+01 0.42302745865E+01 0.47835931909E+01 0.53272083041E+01 0.57218103208E+01
 0.55027071845E+01 0.51411337068E+01 0.49830015608E+01 0.51409839126E+01 0.55024408690E+01
 0.58036286394E+01 0.58018438845E+01 0.54300142985E+01 0.48339305511E+01 0.42371088381E+01
 0.37540633237E+01 0.34460399642E+01 0.33409923630E+01 0.34460262828E+01 0.37540162728E+01
 0.42369930852E+01 0.48337651748E+01 0.54299188025E+01 0.58019392753E+01 0.58038874231E+01
 0.40968212765E+01 0.35098285035E+01 0.35099165592E+01 0.40969516882E+01 0.49522448426E+01
 0.56284041595E+01 0.58064308968E+01 0.54596948618E+01 0.48339077236E+01 0.42302666891E+01
 0.37795836341E+01 0.35421969240E+01 0.35422666038E+01 0.37797045855E+01 0.42302745865E+01
 0.48337651748E+01 0.54595586485E+01 0.58064607111E+01 0.56285337940E+01 0.49522652680E+01
 0.19090757800E+01 0.14198069422E+01 0.19093137368E+01 0.31432936829E+01 0.45516213731E+01
 0.55427606851E+01 0.58063828081E+01 0.54298201460E+01 0.47835329693E+01 0.42082793297E+01
 0.38276658378E+01 0.36956075440E+01 0.38276693784E+01 0.42083001251E+01 0.47835931909E+01
 0.54299188025E+01 0.58064607111E+01 0.55427154589E+01 0.45514000169E+01 0.31429733322E+01
 -.33928343906E+00 -.33935693965E+00 0.87035460511E+00 0.27589804173E+01 0.45516318096E+01
 0.56285854408E+01 0.58017417502E+01 0.53269969305E+01 0.46793851409E+01 0.41679389135E+01
 0.38918170042E+01 0.38917219455E+01 0.41677773106E+01 0.46793855627E+01 0.53272083041E+01
 0.58019392753E+01 0.56285337940E+01 0.45514000169E+01 0.27588511191E+01 0.87042583584E+00
 -.17639842711E+01 -.10260245885E+01 0.87039376395E+00 0.31429669053E+01 0.49522366726E+01
 0.58038387768E+01 0.57217953978E+01 0.51291316893E+01 0.45203762895E+01 0.41072912714E+01
 0.39624148572E+01 0.41073225781E+01 0.45203835189E+01 0.51291147773E+01 0.57218103208E+01
 0.58038874231E+01 0.49522652680E+01 0.31429733322E+01 0.87042583584E+00 -.10259771765E+01
 0.29383569555E+00 0.19094131324E+01 0.38121255823E+01 0.52662584877E+01 0.58570608146E+01
 0.56386437328E+01 0.50147484441E+01 0.44179689112E+01 0.40172896968E+01 0.38773696470E+01
 0.40173057580E+01 0.44179518579E+01 0.50146946650E+01 0.56386197184E+01 0.58571085569E+01
 0.52663267017E+01 0.38121315432E+01 0.19093466598E+01 0.29376643124E+00 -.33930289858E+00
 0.19094131324E+01 0.35100887437E+01 0.49831310657E+01 0.57922370108E+01 0.57993612548E+01
 0.52640744373E+01 0.46220277769E+01 0.41248444407E+01 0.38582492753E+01 0.38581376861E+01
 0.41246332710E+01 0.46219475081E+01 0.52642073312E+01 0.57995602618E+01 0.57923017469E+01
 0.49830148166E+01 0.35099054182E+01 0.19092853942E+01 0.87033159589E+00 0.87037156894E+00
 0.38121255823E+01 0.49831310657E+01 0.57495496329E+01 0.58557546624E+01 0.54095829607E+01
 0.47635646823E+01 0.42052112713E+01 0.38387993904E+01 0.37121472232E+01 0.38387538941E+01
 0.42051514872E+01 0.47635393948E+01 0.54096049612E+01 0.58557720400E+01 0.57495271422E+01
 0.49831195111E+01 0.38121828286E+01 0.27589182235E+01 0.23369048942E+01 0.27588383094E+01
 0.52662584877E+01 0.57922370108E+01 0.58557546624E+01 0.54561115555E+01 0.48355510030E+01
 0.42544808328E+01 0.38235367039E+01 0.35974591258E+01 0.35975400552E+01 0.38236756618E+01
 0.42545086519E+01 0.48354348109E+01 0.54559497797E+01 0.58556533538E+01 0.57922745915E+01
 0.52664666148E+01 0.45516994975E+01 0.40491301062E+01 0.40489987445E+01 0.45514231048E+01
 0.58570608146E+01 0.57993612548E+01 0.54095829607E+01 0.48355510030E+01 0.42711095182E+01
 0.38155527329E+01 0.35257552713E+01 0.34270851968E+01 0.35258073338E+01 0.38155870916E+01
 0.42710988735E+01 0.48355362577E+01 0.54095887021E+01 0.57993647904E+01 0.58570557507E+01
 0.56285368366E+01 0.53270497544E+01 0.51920667855E+01 0.53270246545E+01 0.56285237233E+01
 0.56386437328E+01 0.52640744373E+01 0.47635646823E+01 0.42544808328E+01 0.38155527329E+01
 0.35016317967E+01 0.33402046638E+01 0.33401674430E+01 0.35015568813E+01 0.38155197103E+01
 0.42545503124E+01 0.47637168326E+01 0.52642007626E+01 0.56386187894E+01 0.58016958054E+01
 0.57941470286E+01 0.57390746277E+01 0.57391944730E+01 0.57944110637E+01 0.58019039213E+01
 0.50147484441E+01 0.46220277769E+01 0.42052112713E+01 0.38235367039E+01 0.35257552713E+01
 0.33402046638E+01 0.32776585549E+01 0.33402010549E+01 0.35257650060E+01 0.38235444277E+01
 0.42051828755E+01 0.46219754633E+01 0.50147097300E+01 0.53271883744E+01 0.55155846596E+01
 0.55949959217E+01 0.56132933160E+01 0.55950437101E+01 0.55156290151E+01 0.53272147602E+01
 0.44179689112E+01 0.41248444407E+01 0.38387993904E+01 0.35974591258E+01 0.34270851968E+01
 0.33401674430E+01 0.33402010549E+01 0.34271611058E+01 0.35974965536E+01 0.38387054145E+01
 0.41246265549E+01 0.44177764545E+01 0.46794086893E+01 0.48815271909E+01 0.50127393381E+01
 0.50742850673E+01 0.50741984570E+01 0.50125383645E+01 0.48813628823E+01 0.46794224214E+01
 0.40172896968E+01 0.38582492753E+01 0.37121472232E+01 0.35975400552E+01 0.35258073338E+01
 0.35015568813E+01 0.35257650060E+01 0.35974965536E+01 0.37121311332E+01 0.38582491438E+01
 0.40172828491E+01 0.41677658847E+01 0.42919149167E+01 0.43802306308E+01 0.44313507343E+01
 0.44478522313E+01 0.44313182535E+01 0.43801948577E+01 0.42919031508E+01 0.41677747836E+01
 0.38773696470E+01 0.38581376861E+01 0.38387538941E+01 0.38236756618E+01 0.38155870916E+01
 0.38155197103E+01 0.38235444277E+01 0.38387054145E+01 0.38582491438E+01 0.38775644706E+01
 0.38918102717E+01 0.38983505760E+01 0.38980374653E+01 0.38943605708E+01 0.38912964272E+01
 0.38913400129E+01 0.38944793949E+01 0.38981691387E+01 0.38983858100E+01 0.38916903314E+01
 0.40173057580E+01 0.41246332710E+01 0.42051514872E+01 0.42545086519E+01 0.42710988735E+01
 0.42545503124E+01 0.42051828755E+01 0.41246265549E+01 0.40172828491E+01 0.38918102717E+01
 0.37613334429E+01 0.36413975518E+01 0.35462836437E+01 0.34859339179E+01 0.34653556011E+01
 0.34859347346E+01 0.35462944866E+01 0.36414151033E+01 0.37613473320E+01 0.38918259802E+01
 0.44179518579E+01 0.46219475081E+01 0.47635393948E+01 0.48354348109E+01 0.48355362577E+01
 0.47637168326E+01 0.46219754633E+01 0.44177764545E+01 0.41677658847E+01 0.38983505760E+01
 0.36413975518E+01 0.34266569656E+01 0.32752052458E+01 0.31977515060E+01 0.31977528479E+01
 0.32751756384E+01 0.34265694025E+01 0.36413278760E+01 0.38984225004E+01 0.41679782386E+01
 0.50146946650E+01 0.52642073312E+01 0.54096049612E+01 0.54559497797E+01 0.54095887021E+01
 0.52642007626E+01 0.50147097300E+01 0.46794086893E+01 0.42919149167E+01 0.38980374653E+01
 0.35462836437E+01 0.32752052458E+01 0.31070856721E+01 0.30504965953E+01 0.31071151255E+01
 0.32752345485E+01 0.35462923285E+01 0.38980304556E+01 0.42918985197E+01 0.46793850637E+01
 0.56386197184E+01 0.57995602618E+01 0.58557720400E+01 0.58556533538E+01 0.57993647904E+01
 0.56386187894E+01 0.53271883744E+01 0.48815271909E+01 0.43802306308E+01 0.38943605708E+01
 0.34859339179E+01 0.31977515060E+01 0.30504965953E+01 0.30504609931E+01 0.31977198458E+01
 0.34860086715E+01 0.38944857886E+01 0.43802194843E+01 0.48813169116E+01 0.53269677915E+01
 0.58571085569E+01 0.57923017469E+01 0.57495271422E+01 0.57922745915E+01 0.58570557507E+01
 0.58016958054E+01 0.55155846596E+01 0.50127393381E+01 0.44313507343E+01 0.38912964272E+01
 0.34653556011E+01 0.31977528479E+01 0.31071151255E+01 0.31977198458E+01 0.34653137061E+01
 0.38912646781E+01 0.44313324348E+01 0.50127435871E+01 0.55156197337E+01 0.58017540236E+01
 0.52663267017E+01 0.49830148166E+01 0.49831195111E+01 0.52664666148E+01 0.56285368366E+01
 0.57941470286E+01 0.55949959217E+01 0.50742850673E+01 0.44478522313E+01 0.38913400129E+01
 0.34859347346E+01 0.32751756384E+01 0.32752345485E+01 0.34860086715E+01 0.38912646781E+01
 0.44476572046E+01 0.50742077808E+01 0.55951866198E+01 0.57944387295E+01 0.56286299993E+01
 0.38121315432E+01 0.35099054182E+01 0.38121828286E+01 0.45516994975E+01 0.53270497544E+01
 0.57390746277E+01 0.56132933160E+01 0.50741984570E+01 0.44313182535E+01 0.38944793949E+01
 0.35462944866E+01 0.34265694025E+01 0.35462923285E+01 0.38944857886E+01 0.44313324348E+01
 0.50742077808E+01 0.56132911216E+01 0.57390603835E+01 0.53270120566E+01 0.45516386836E+01
 0.19093466598E+01 0.19092853942E+01 0.27589182235E+01 0.40491301062E+01 0.51920667855E+01
 0.57391944730E+01 0.55950437101E+01 0.50125383645E+01 0.43801948577E+01 0.38981691387E+01
 0.36414151033E+01 0.36413278760E+01 0.38980304556E+01 0.43802194843E+01 0.50127435871E+01
 0.55951866198E+01 0.57390603835E+01 0.51917589884E+01 0.40489474075E+01 0.27589567284E+01
 0.29376643124E+00 0.87033159589E+00 0.23369048942E+01 0.40489987445E+01 0.53270246545E+01
 0.57944110637E+01 0.55156290151E+01 0.48813628823E+01 0.42919031508E+01 0.38983858100E+01
 0.37613473320E+01 0.38984225004E+01 0.42918985197E+01 0.48813169116E+01 0.55156197337E+01
 0.57944387295E+01 0.53270120566E+01 0.40489474075E+01 0.23368948968E+01 0.87036496977E+00
 -.33930289858E+00 0.87037156894E+00 0.27588383094E+01 0.45514231048E+01 0.56285237233E+01
 0.58019039213E+01 0.53272147602E+01 0.46794224214E+01 0.41677747836E+01 0.38916903314E+01
 0.38918259802E+01 0.41679782386E+01 0.46793850637E+01 0.53269677915E+01 0.58017540236E+01
 0.56286299993E+01 0.45516386836E+01 0.27589567284E+01 0.87036496977E+00 -.33932670699E+00
 0.27776098365E+01 0.40965692346E+01 0.52662616386E+01 0.58311436594E+01 0.56956529093E+01
 0.51163540157E+01 0.44850829800E+01 0.40034801779E+01 0.37468617534E+01 0.37467438238E+01
 0.40032853424E+01 0.44850494235E+01 0.51164435409E+01 0.56956139976E+01 0.58309270880E+01
 0.52661770748E+01 0.40969016901E+01 0.27781811736E+01 0.19093650140E+01 0.19090792123E+01
 0.40965692346E+01 0.51408193475E+01 0.57922498126E+01 0.58219766648E+01 0.53446067030E+01
 0.47002347106E+01 0.41500717363E+01 0.37904709251E+01 0.36664017873E+01 0.37904285223E+01
 0.41500266221E+01 0.47001883617E+01 0.53445119401E+01 0.58218395369E+01 0.57921962218E+01
 0.51409865167E+01 0.40969173784E+01 0.31432436839E+01 0.27589533949E+01 0.31429530006E+01
 0.52662616386E+01 0.57922498126E+01 0.58557824362E+01 0.54561379634E+01 0.48355613209E+01
 0.42544860860E+01 0.38235507425E+01 0.35974723678E+01 0.35975400789E+01 0.38236724463E+01
 0.42545142410E+01 0.48354386943E+01 0.54559394576E+01 0.58556386394E+01 0.57922666358E+01
 0.52664539008E+01 0.45516703852E+01 0.40490991296E+01 0.40489852407E+01 0.45514231369E+01
 0.58311436594E+01 0.58219766648E+01 0.54561379634E+01 0.48814919619E+01 0.43084805436E+01
 0.38443792505E+01 0.35485266056E+01 0.34476597766E+01 0.35485515796E+01 0.38444761206E+01
 0.43086187745E+01 0.48815080446E+01 0.54559070277E+01 0.58216404907E+01 0.58310384368E+01
 0.55430198322E+01 0.51921488162E+01 0.50378369544E+01 0.51918208903E+01 0.55427601581E+01
 0.56956529093E+01 0.53446067030E+01 0.48355613209E+01 0.43084805436E+01 0.38514473227E+01
 0.35235189298E+01 0.33545767231E+01 0.33545407960E+01 0.35234898623E+01 0.38515370182E+01
 0.43086457663E+01 0.48356173626E+01 0.53444600888E+01 0.56954368734E+01 0.58063728749E+01
 0.57391437316E+01 0.56444428024E+01 0.56443829983E+01 0.57390719119E+01 0.58064566263E+01
 0.51163540157E+01 0.47002347106E+01 0.42544860860E+01 0.38443792505E+01 0.35235189298E+01
 0.33232246852E+01 0.32556341873E+01 0.33231924200E+01 0.35234897811E+01 0.38443944326E+01
 0.42545711057E+01 0.47003727835E+01 0.51164450298E+01 0.54298003339E+01 0.55948901490E+01
 0.56462513020E+01 0.56523742725E+01 0.56465011213E+01 0.55951591996E+01 0.54298862338E+01
 0.44850829800E+01 0.41500717363E+01 0.38235507425E+01 0.35485266056E+01 0.33545767231E+01
 0.32556341873E+01 0.32556227844E+01 0.33545659401E+01 0.35485411230E+01 0.38235708736E+01
 0.41500745198E+01 0.44850767768E+01 0.47835756000E+01 0.50126639796E+01 0.51552154387E+01
 0.52178897257E+01 0.52179541819E+01 0.51553437006E+01 0.50127518504E+01 0.47836024182E+01
 0.40034801779E+01 0.37904709251E+01 0.35974723678E+01 0.34476597766E+01 0.33545407960E+01
 0.33231924200E+01 0.33545659401E+01 0.34477155511E+01 0.35975086147E+01 0.37904046895E+01
 0.40033106928E+01 0.42081797138E+01 0.43802426062E+01 0.45046994363E+01 0.45776733374E+01
 0.46013691627E+01 0.45775566250E+01 0.45045829866E+01 0.43802551930E+01 0.42083316892E+01
 0.37468617534E+01 0.36664017873E+01 0.35975400789E+01 0.35485515796E+01 0.35234898623E+01
 0.35234897811E+01 0.35485411230E+01 0.35975086147E+01 0.36663646277E+01 0.37468469885E+01
 0.38276692107E+01 0.38980506611E+01 0.39511511704E+01 0.39850848313E+01 0.40011993901E+01
 0.40011933310E+01 0.39850680729E+01 0.39511257583E+01 0.38980221635E+01 0.38276541198E+01
 0.37467438238E+01 0.37904285223E+01 0.38236724463E+01 0.38444761206E+01 0.38515370182E+01
 0.38443944326E+01 0.38235708736E+01 0.37904046895E+01 0.37468469885E+01 0.36957290292E+01
 0.36413820288E+01 0.35897399076E+01 0.35473185658E+01 0.35196171375E+01 0.35100411169E+01
 0.35196889435E+01 0.35474124975E+01 0.35897663180E+01 0.36412856563E+01 0.36955659150E+01
 0.40032853424E+01 0.41500266221E+01 0.42545142410E+01 0.43086187745E+01 0.43086457663E+01
 0.42545711057E+01 0.41500745198E+01 0.40033106928E+01 0.38276692107E+01 0.36413820288E+01
 0.34651198197E+01 0.33179848516E+01 0.32138810662E+01 0.31604048639E+01 0.31603952062E+01
 0.32138754737E+01 0.33180130645E+01 0.34651671834E+01 0.36414111315E+01 0.38276677718E+01
 0.44850494235E+01 0.47001883617E+01 0.48354386943E+01 0.48815080446E+01 0.48356173626E+01
 0.47003727835E+01 0.44850767768E+01 0.42081797138E+01 0.38980506611E+01 0.35897399076E+01
 0.33179848516E+01 0.31097947931E+01 0.29808701160E+01 0.29374550198E+01 0.29808530658E+01
 0.31097572958E+01 0.33179617653E+01 0.35897954920E+01 0.38981937224E+01 0.42083050276E+01
 0.51164435409E+01 0.53445119401E+01 0.54559394576E+01 0.54559070277E+01 0.53444600888E+01
 0.51164450298E+01 0.47835756000E+01 0.43802426062E+01 0.39511511704E+01 0.35473185658E+01
 0.32138810662E+01 0.29808701160E+01 0.28623487950E+01 0.28623548796E+01 0.29808848085E+01
 0.32138969510E+01 0.35473226087E+01 0.39511230739E+01 0.43801762198E+01 0.47835131658E+01
 0.56956139976E+01 0.58218395369E+01 0.58556386394E+01 0.58216404907E+01 0.56954368734E+01
 0.54298003339E+01 0.50126639796E+01 0.45046994363E+01 0.39850848313E+01 0.35196171375E+01
 0.31604048639E+01 0.29374550198E+01 0.28623548796E+01 0.29374552726E+01 0.31604363917E+01
 0.35196638399E+01 0.39850594828E+01 0.45045483544E+01 0.50124864125E+01 0.54297754469E+01
 0.58309270880E+01 0.57921962218E+01 0.57922666358E+01 0.58310384368E+01 0.58063728749E+01
 0.55948901490E+01 0.51552154387E+01 0.45776733374E+01 0.40011993901E+01 0.35100411169E+01
 0.31603952062E+01 0.29808530658E+01 0.29808848085E+01 0.31604363917E+01 0.35100123941E+01
 0.40011230957E+01 0.45776688130E+01 0.51553372366E+01 0.55950299790E+01 0.58063835763E+01
 0.52661770748E+01 0.51409865167E+01 0.52664539008E+01 0.55430198322E+01 0.57391437316E+01
 0.56462513020E+01 0.52178897257E+01 0.46013691627E+01 0.40011933310E+01 0.35196889435E+01
 0.32138754737E+01 0.31097572958E+01 0.32138969510E+01 0.35196638399E+01 0.40011230957E+01
 0.46013848098E+01 0.52180930696E+01 0.56465205114E+01 0.57392087900E+01 0.55427878875E+01
 0.40969016901E+01 0.40969173784E+01 0.45516703852E+01 0.51921488162E+01 0.56444428024E+01
 0.56523742725E+01 0.52179541819E+01 0.45775566250E+01 0.39850680729E+01 0.35474124975E+01
 0.33180130645E+01 0.33179617653E+01 0.35473226087E+01 0.39850594828E+01 0.45776688130E+01
 0.52180930696E+01 0.56524150959E+01 0.56443649116E+01 0.51920388838E+01 0.45516067796E+01
 0.27781811736E+01 0.31432436839E+01 0.40490991296E+01 0.50378369544E+01 0.56443829983E+01
 0.56465011213E+01 0.51553437006E+01 0.45045829866E+01 0.39511257583E+01 0.35897663180E+01
 0.34651671834E+01 0.35897954920E+01 0.39511230739E+01 0.45045483544E+01 0.51553372366E+01
 0.56465205114E+01 0.56443649116E+01 0.50377822998E+01 0.40490749192E+01 0.31432588023E+01
 0.19093650140E+01 0.27589533949E+01 0.40489852407E+01 0.51918208903E+01 0.57390719119E+01
 0.55951591996E+01 0.50127518504E+01 0.43802551930E+01 0.38980221635E+01 0.36412856563E+01
 0.36414111315E+01 0.38981937224E+01 0.43801762198E+01 0.50124864125E+01 0.55950299790E+01
 0.57392087900E+01 0.51920388838E+01 0.40490749192E+01 0.27589147791E+01 0.19093289954E+01
 0.19090792123E+01 0.31429530006E+01 0.45514231369E+01 0.55427601581E+01 0.58064566263E+01
 0.54298862338E+01 0.47836024182E+01 0.42083316892E+01 0.38276541198E+01 0.36955659150E+01
 0.38276677718E+01 0.42083050276E+01 0.47835131658E+01 0.54297754469E+01 0.58063835763E+01
 0.55427878875E+01 0.45516067796E+01 0.31432588023E+01 0.19093289954E+01 0.14198518877E+01
 0.47890981952E+01 0.55023414552E+01 0.58570842536E+01 0.56956751642E+01 0.51491378792E+01
 0.45175508087E+01 0.39925000679E+01 0.36528531567E+01 0.35362176339E+01 0.36528118563E+01
 0.39924904922E+01 0.45175915344E+01 0.51491648718E+01 0.56956589157E+01 0.58570803117E+01
 0.55024012323E+01 0.47891933647E+01 0.40969052878E+01 0.38121554291E+01 0.40968398338E+01
 0.55023414552E+01 0.58591543538E+01 0.57993864042E+01 0.53446231424E+01 0.47263114763E+01
 0.41621624242E+01 0.37469992789E+01 0.35301243315E+01 0.35301915436E+01 0.37471056708E+01