    1    1    1    1
  0.1482975E+02  0.2757716E-09  0.2757716E-09  0.2757716E-09  0.5000000E-15
   1.0000000000000000E-004
  CAR
 fcc Si
      4    286      6

  0.1262379E-14  0.1262379E-14  0.1262379E-14  0.1079797E-03
      1         -4.378376   1.000000
      2         20.694677   0.000000
      3         20.694857   0.000000
      4         20.694859   0.000000
      5         21.770999   0.000000
      6         21.771100   0.000000

  0.4761905E-01  0.1266348E-14  0.1266348E-14  0.8638376E-03
      1         -4.313158   1.000000
      2         19.449084   0.000000
      3         20.342054   0.000000
      4         20.342222   0.000000
      5         22.239048   0.000000
      6         22.239162   0.000000

  0.9523810E-01  0.1255940E-14  0.1255940E-14  0.8638376E-03
      1         -4.118391   1.000000
      2         17.543745   0.000000
      3         19.794387   0.000000
      4         19.794556   0.000000
      5         22.877345   0.000000
      6         22.999633   0.000000

  0.1428571E+00  0.1276756E-14  0.1276756E-14  0.8638376E-03
      1         -3.794233   1.000000
      2         15.542046   0.000000
      3         19.298476   0.000000
      4         19.298647   0.000000
      5         22.947994   0.000000
      6         23.698134   0.000000

  0.1904762E+00  0.1262879E-14  0.1262879E-14  0.8638376E-03
      1         -3.341421   1.000000
      2         13.547916   0.000000
      3         18.891272   0.000000
      4         18.891446   0.000000
      5         22.883366   0.000000
      6         23.883077   0.000000

  0.2380952E+00  0.1290634E-14  0.1290634E-14  0.8638376E-03
      1         -2.760863   1.000000
      2         11.616313  -0.002817
      3         18.579995   0.000000
      4         18.580170   0.000000
      5         22.801298   0.000000
      6         23.393673   0.000000

  0.2857143E+00  0.1221245E-14  0.1221245E-14  0.8638376E-03
      1         -2.053848   1.000000
      2          9.767621   0.577466
      3         18.363400   0.000000
      4         18.363572   0.000000
      5         22.689347   0.000000
      6         22.699109   0.000000

  0.3333333E+00  0.1249001E-14  0.1249001E-14  0.8638376E-03
      1         -1.221271   1.000000
      2          8.015186   1.000000
      3         18.238345   0.000000
      4         18.238497   0.000000
      5         22.002787   0.000000
      6         22.003349   0.000000

  0.3809524E+00  0.1249001E-14  0.1249001E-14  0.8638376E-03
      1         -0.266933   1.000000
      2          6.365608   1.000000
      3         18.182336   0.000000
      4         18.182477   0.000000
      5         21.420992   0.000000
      6         21.421551   0.000000

  0.4285714E+00  0.1221245E-14  0.1221245E-14  0.8638376E-03
      1          0.801398   1.000000
      2          4.830881   1.000000
      3         18.176157   0.000000
      4         18.176283   0.000000
      5         20.993568   0.000000
      6         20.994133   0.000000

  0.4761905E+00  0.1249001E-14  0.1249001E-14  0.8638376E-03
      1          1.941617   1.000000
      2          3.457461   1.000000
      3         18.187210   0.000000
      4         18.187327   0.000000
      5         20.764005   0.000000
      6         20.764575   0.000000

  0.4761905E-01  0.4761905E-01  0.1262379E-14  0.6478782E-03
      1         -4.291419   1.000000
      2         19.690149   0.000000
      3         19.690268   0.000000
      4         20.485971   0.000000
      5         21.292815   0.000000
      6         22.933088   0.000000

  0.9523810E-01  0.4761905E-01  0.1266348E-14  0.2591513E-02
      1         -4.139986   1.000000
      2         18.200308   0.000000
      3         19.068833   0.000000
      4         20.262721   0.000000
      5         21.438676   0.000000
      6         23.535620   0.000000

  0.1428571E+00  0.4761905E-01  0.1255940E-14  0.2591513E-02
      1         -3.858934   1.000000
      2         16.248222   0.000000
      3         18.533679   0.000000
      4         19.808824   0.000000
      5         22.102129   0.000000
      6         23.794221   0.000000

  0.1904762E+00  0.4761905E-01  0.1262879E-14  0.2591513E-02
      1         -3.449055   1.000000
      2         14.251638   0.000000
      3         18.098250   0.000000
      4         19.373365   0.000000
      5         22.503268   0.000000
      6         23.771142   0.000000

  0.2380952E+00  0.4761905E-01  0.1262879E-14  0.2591513E-02
      1         -2.911075   1.000000
      2         12.302852   0.000000
      3         17.767580   0.000000
      4         19.004723   0.000000
      5         22.320557   0.000000
      6         23.525307   0.000000

  0.2857143E+00  0.4761905E-01  0.1276756E-14  0.2591513E-02
      1         -2.246244   1.000000
      2         10.426046   0.111577
      3         17.541537   0.000000
      4         18.701588   0.000000
      5         21.727545   0.000000
      6         23.375913   0.000000

  0.3333333E+00  0.4761905E-01  0.1249001E-14  0.2591513E-02
      1         -1.455785   1.000000
      2          8.640637   1.059622
      3         17.422064   0.000000
      4         18.445808   0.000000
      5         21.115192   0.000000
      6         23.143529   0.000000

  0.3809524E+00  0.4761905E-01  0.1249001E-14  0.2591513E-02
      1         -0.541515   1.000000
      2          6.956774   1.000000
      3         17.403417   0.000000
      4         18.205701   0.000000
      5         20.653217   0.000000
      6         22.457402   0.000000

  0.4285714E+00  0.4761905E-01  0.1249001E-14  0.2591513E-02
      1          0.489955   1.000000
      2          5.382814   1.000000
      3         17.481354   0.000000
      4         17.947227   0.000000
      5         20.407172   0.000000
      6         21.884386   0.000000

  0.4761905E+00  0.4761905E-01  0.1249001E-14  0.2591513E-02
      1          1.620071   1.000000
      2          3.941889   1.000000
      3         17.645961   0.000000
      4         17.666677   0.000000
      5         20.385239   0.000000
      6         21.435465   0.000000

 -0.4761905E+00  0.4761905E-01  0.1332268E-14  0.2591513E-02
      1          2.311191   1.000000
      2          3.173139   1.000000
      3         17.400571   0.000000
      4         17.883736   0.000000
      5         20.589609   0.000000
      6         21.145828   0.000000

 -0.4285714E+00  0.4761905E-01  0.1249001E-14  0.2591513E-02
      1          1.235916   1.000000
      2          4.403691   1.000000
      3         17.183640   0.000000
      4         18.161276   0.000000
      5         20.950936   0.000000
      6         21.009520   0.000000

 -0.3809524E+00  0.4761905E-01  0.1221245E-14  0.2591513E-02
      1          0.133638   1.000000
      2          5.894435   1.000000
      3         17.045615   0.000000
      4         18.453019   0.000000
      5         21.086084   0.000000
      6         21.465507   0.000000

 -0.3333333E+00  0.4761905E-01  0.1249001E-14  0.2591513E-02
      1         -0.859917   1.000000
      2          7.506107   1.000000
      3         16.995122   0.000000
      4         18.733588   0.000000
      5         21.386623   0.000000
      6         22.104849   0.000000

 -0.2857143E+00  0.4761905E-01  0.1249001E-14  0.2591513E-02
      1         -1.732966   1.000000
      2          9.225002   0.947578
      3         17.043139   0.000000
      4         19.007588   0.000000
      5         21.882609   0.000000
      6         22.830654   0.000000

 -0.2380952E+00  0.4761905E-01  0.1249001E-14  0.2591513E-02
      1         -2.481886   1.000000
      2         11.041701  -0.061320
      3         17.196455   0.000000
      4         19.303409   0.000000
      5         22.508299   0.000000
      6         23.162733   0.000000

 -0.1904762E+00  0.4761905E-01  0.1262879E-14  0.2591513E-02
      1         -3.104568   1.000000
      2         12.944573   0.000000
      3         17.455874   0.000000
      4         19.645397   0.000000
      5         23.079264   0.000000
      6         23.205926   0.000000

 -0.1428571E+00  0.4761905E-01  0.1276756E-14  0.2591513E-02
      1         -3.599965   1.000000
      2         14.913013   0.000000
      3         17.820238   0.000000
      4         20.046094   0.000000
      5         23.090341   0.000000
      6         23.218306   0.000000

 -0.9523810E-01  0.4761905E-01  0.1276756E-14  0.2591513E-02
      1         -3.966971   1.000000
      2         16.911783   0.000000
      3         18.287264   0.000000
      4         20.480366   0.000000
      5         22.492822   0.000000
      6         23.100574   0.000000

 -0.4761905E-01  0.4761905E-01  0.1255940E-14  0.1295756E-02
      1         -4.204888   1.000000
      2         18.800852   0.000000
      3         18.878992   0.000000
      4         20.740405   0.000000
      5         21.964745   0.000000
      6         22.746017   0.000000

  0.9523810E-01  0.9523810E-01  0.1262379E-14  0.6478782E-03
      1         -4.031787   1.000000
      2         18.404596   0.000000
      3         18.404702   0.000000
      4         19.904369   0.000000
      5         20.203928   0.000000
      6         24.542189   0.000000

  0.1428571E+00  0.9523810E-01  0.1266348E-14  0.2591513E-02
      1         -3.794083   1.000000
      2         16.968510   0.000000
      3         17.832198   0.000000
      4         19.527049   0.000000
      5         20.374065   0.000000
      6         24.395955   0.000000

  0.1904762E+00  0.9523810E-01  0.1255940E-14  0.2591513E-02
      1         -3.427443   1.000000
      2         15.035682   0.000000
      3         17.360950   0.000000
      4         19.052343   0.000000
      5         20.962310   0.000000
      6         23.556235   0.000000

  0.2380952E+00  0.9523810E-01  0.1276756E-14  0.2591513E-02
      1         -2.932380   1.000000
      2         13.088177   0.000000
      3         16.999159   0.000000
      4         18.616216   0.000000
      5         20.991467   0.000000
      6         23.550344   0.000000

  0.2857143E+00  0.9523810E-01  0.1262879E-14  0.2591513E-02
      1         -2.310158   1.000000
      2         11.193520  -0.045534
      3         16.746220   0.000000
      4         18.200951   0.000000
      5         20.470957   0.000000
      6         24.078816   0.000000

  0.3333333E+00  0.9523810E-01  0.1262879E-14  0.2591513E-02
      1         -1.561760   1.000000
      2          9.381935   0.852433
      3         16.603100   0.000000
      4         17.775254   0.000000
      5         19.959577   0.000000
      6         24.429334   0.000000

  0.3809524E+00  0.9523810E-01  0.1249001E-14  0.2591513E-02
      1         -0.689069   1.000000
      2          7.666570   1.000000
      3         16.568306   0.000000
      4         17.312009   0.000000
      5         19.632442   0.000000
      6         23.798368   0.000000

  0.4285714E+00  0.9523810E-01  0.1249001E-14  0.2591513E-02
      1          0.303393   1.000000
      2          6.057137   1.000000
      3         16.640567   0.000000
      4         16.828842   0.000000
      5         19.535074   0.000000
      6         23.176455   0.000000

  0.4761905E+00  0.9523810E-01  0.1249001E-14  0.2591513E-02
      1          1.405231   1.000000
      2          4.567774   1.000000
      3         16.366081   0.000000
      4         16.812770   0.000000
      5         19.624183   0.000000
      6         22.626185   0.000000

 -0.4761905E+00  0.9523810E-01  0.1332268E-14  0.2591513E-02
      1          2.481296   1.000000
      2          3.336312   1.000000
      3         15.965080   0.000000
      4         17.088742   0.000000
      5         19.884583   0.000000
      6         22.215689   0.000000

 -0.4285714E+00  0.9523810E-01  0.1332268E-14  0.2591513E-02
      1          1.788932   1.000000
      2          4.106192   1.000000
      3         15.649334   0.000000
      4         17.456668   0.000000
      5         20.294064   0.000000
      6         21.934412   0.000000

 -0.3809524E+00  0.9523810E-01  0.1249001E-14  0.2591513E-02
      1          0.659631   1.000000
      2          5.545818   1.000000
      3         15.430486   0.000000
      4         17.907797   0.000000
      5         20.836008   0.000000
      6         21.801727   0.000000

 -0.3333333E+00  0.9523810E-01  0.1221245E-14  0.2591513E-02
      1         -0.371362   1.000000
      2          7.117355   1.000000
      3         15.316525   0.000000
      4         18.414100   0.000000
      5         21.479653   0.000000
      6         21.811147   0.000000

 -0.2857143E+00  0.9523810E-01  0.1249001E-14  0.2591513E-02
      1         -1.284601   1.000000
      2          8.797767   1.072765
      3         15.310165   0.000000
      4         18.951423   0.000000
      5         21.991056   0.000000
      6         22.227416   0.000000

 -0.2380952E+00  0.9523810E-01  0.1249001E-14  0.2591513E-02
      1         -2.074805   1.000000
      2         10.578064   0.025238
      3         15.417494   0.000000
      4         19.493963   0.000000
      5         22.343651   0.000000
      6         23.073299   0.000000

 -0.1904762E+00  0.9523810E-01  0.1221245E-14  0.2591513E-02
      1         -2.739144   1.000000
      2         12.444399   0.000000
      3         15.642047   0.000000
      4         20.009831   0.000000
      5         22.777909   0.000000
      6         23.896553   0.000000

 -0.1428571E+00  0.9523810E-01  0.1262879E-14  0.2591513E-02
      1         -3.276672   1.000000
      2         14.371873   0.000000
      3         15.980087   0.000000
      4         20.474463   0.000000
      5         22.892052   0.000000
      6         23.796548   0.000000

 -0.9523810E-01  0.9523810E-01  0.1262879E-14  0.1295756E-02
      1         -3.686259   1.000000
      2         16.205006   0.000000
      3         16.556176   0.000000
      4         20.754914   0.000000
      5         22.467177   0.000000
      6         23.518653   0.000000

  0.1428571E+00  0.1428571E+00  0.1262379E-14  0.6478782E-03
      1         -3.599819   1.000000
      2         17.221852   0.000000
      3         17.221951   0.000000
      4         19.019201   0.000000
      5         19.022731   0.000000
      6         23.089292   0.000000

  0.1904762E+00  0.1428571E+00  0.1266348E-14  0.2591513E-02
      1         -3.276438   1.000000
      2         15.839745   0.000000
      3         16.716488   0.000000
      4         18.480209   0.000000
      5         19.229422   0.000000
      6         22.104485   0.000000

  0.2380952E+00  0.1428571E+00  0.1255940E-14  0.2591513E-02
      1         -2.824674   1.000000
      2         13.954464   0.000000
      3         16.319289   0.000000
      4         17.932557   0.000000
      5         19.536243   0.000000
      6         21.822110   0.000000

  0.2857143E+00  0.1428571E+00  0.1262879E-14  0.2591513E-02
      1         -2.245466   1.000000
      2         12.063407   0.000000
      3         16.032018   0.000000
      4         17.354161   0.000000
      5         19.250672   0.000000
      6         22.514634   0.000000

  0.3333333E+00  0.1428571E+00  0.1262879E-14  0.2591513E-02
      1         -1.539666   1.000000
      2         10.233302   0.234709
      3         15.856673   0.000000
      4         16.722987   0.000000
      5         18.889210   0.000000
      6         23.624751   0.000000

  0.3809524E+00  0.1428571E+00  0.1304512E-14  0.2591513E-02
      1         -0.709027   1.000000
      2          8.491422   1.035578
      3         15.788060   0.000000
      4         16.064092   0.000000
      5         18.676507   0.000000
      6         24.714112   0.000000

  0.4285714E+00  0.1428571E+00  0.1221245E-14  0.2591513E-02
      1          0.242282   1.000000
      2          6.849768   1.000000
      3         15.428688   0.000000
      4         15.833848   0.000000
      5         18.639900   0.000000
      6         24.617009   0.000000

  0.4761905E+00  0.1428571E+00  0.1249001E-14  0.2591513E-02
      1          1.309311   1.000000
      2          5.321348   1.000000
      3         14.858884   0.000000
      4         15.989355   0.000000
      5         18.766877   0.000000
      6         24.055947   0.000000

 -0.4761905E+00  0.1428571E+00  0.1276756E-14  0.2591513E-02
      1          2.449038   1.000000
      2          3.949667   1.000000
      3         14.375767   0.000000
      4         16.252069   0.000000
      5         19.037071   0.000000
      6         23.597259   0.000000

 -0.4285714E+00  0.1428571E+00  0.1276756E-14  0.2591513E-02
      1          2.448566   1.000000
      2          3.949389   1.000000
      3         13.991857   0.000000
      4         16.617193   0.000000
      5         19.434498   0.000000
      6         23.227789   0.000000

 -0.3809524E+00  0.1428571E+00  0.1332268E-14  0.2591513E-02
      1          1.308826   1.000000
      2          5.320560   1.000000
      3         13.716036   0.000000
      4         17.082436   0.000000
      5         19.955500   0.000000
      6         22.996878   0.000000

 -0.3333333E+00  0.1428571E+00  0.1249001E-14  0.2591513E-02
      1          0.242427   1.000000
      2          6.848204   1.000000
      3         13.552629   0.000000
      4         17.638297   0.000000
      5         20.589848   0.000000
      6         22.891704   0.000000

 -0.2857143E+00  0.1428571E+00  0.1221245E-14  0.2591513E-02
      1         -0.709661   1.000000
      2          8.486881   1.034036
      3         13.504049   0.000000
      4         18.270745   0.000000
      5         21.331764   0.000000
      6         22.919897   0.000000

 -0.2380952E+00  0.1428571E+00  0.1249001E-14  0.2591513E-02
      1         -1.540041   1.000000
      2         10.223750   0.244086
      3         13.574697   0.000000
      4         18.959307   0.000000
      5         22.183263   0.000000
      6         23.097628   0.000000

 -0.1904762E+00  0.1428571E+00  0.1249001E-14  0.2591513E-02
      1         -2.245802   1.000000
      2         12.032953   0.000000
      3         13.777750   0.000000
      4         19.655915   0.000000
      5         23.093281   0.000000
      6         23.370070   0.000000

 -0.1428571E+00  0.1428571E+00  0.1249001E-14  0.1295756E-02
      1         -2.825007   1.000000
      2         13.711452   0.000000
      3         14.294877   0.000000
      4         20.252877   0.000000
      5         23.300246   0.000000
      6         23.977211   0.000000

  0.1904762E+00  0.1904762E+00  0.1262379E-14  0.6478782E-03
      1         -2.996492   1.000000
      2         16.174598   0.000000
      3         16.174689   0.000000
      4         17.803982   0.000000
      5         17.905152   0.000000
      6         20.945858   0.000000

  0.2380952E+00  0.1904762E+00  0.1266348E-14  0.2591513E-02
      1         -2.588168   1.000000
      2         14.835724   0.000000
      3         15.740908   0.000000
      4         17.107149   0.000000
      5         18.035423   0.000000
      6         20.321701   0.000000

  0.2857143E+00  0.1904762E+00  0.1255940E-14  0.2591513E-02
      1         -2.051862   1.000000
      2         13.011750   0.000000
      3         15.418327   0.000000
      4         16.331917   0.000000
      5         18.153208   0.000000
      6         20.653606   0.000000

  0.3333333E+00  0.1904762E+00  0.1276756E-14  0.2591513E-02
      1         -1.389549   1.000000
      2         11.184777  -0.053283
      3         15.203114   0.000000
      4         15.516710   0.000000
      5         17.973542   0.000000
      6         21.697555   0.000000

  0.3809524E+00  0.1904762E+00  0.1262879E-14  0.2591513E-02
      1         -0.601875   1.000000
      2          9.425433   0.837407
      3         14.719007   0.000000
      4         15.104395   0.000000
      5         17.846476   0.000000
      6         23.017372   0.000000

  0.4285714E+00  0.1904762E+00  0.1262879E-14  0.2591513E-02
      1          0.308211   1.000000
      2          7.757935   1.000000
      3         13.984783   0.000000
      4         15.117327   0.000000
      5         17.838507   0.000000
      6         24.401137   0.000000

  0.4761905E+00  0.1904762E+00  0.1249001E-14  0.2591513E-02
      1          1.336182   1.000000
      2          6.195567   1.000000
      3         13.335902   0.000000
      4         15.241612   0.000000
      5         17.956549   0.000000
      6         25.629608   0.000000

 -0.4761905E+00  0.1904762E+00  0.1276756E-14  0.2591513E-02
      1          2.463478   1.000000
      2          4.761105   1.000000
      3         12.788449   0.000000
      4         15.476316   0.000000
      5         18.207823   0.000000
      6         25.109476   0.000000

 -0.4285714E+00  0.1904762E+00  0.1276756E-14  0.2591513E-02
      1          3.160008   1.000000
      2          3.986617   1.000000
      3         12.349177   0.000000
      4         15.819394   0.000000
      5         18.583860   0.000000
      6         24.716109   0.000000

 -0.3809524E+00  0.1904762E+00  0.1332268E-14  0.2591513E-02
      1          2.079085   1.000000
      2          5.219910   1.000000
      3         12.024181   0.000000
      4         16.268160   0.000000
      5         19.081656   0.000000
      6         24.433876   0.000000

 -0.3333333E+00  0.1904762E+00  0.1332268E-14  0.2591513E-02
      1          0.979920   1.000000
      2          6.698504   1.000000
      3         11.817310   0.000000
      4         16.816393   0.000000
      5         19.693279   0.000000
      6         24.247472   0.000000

 -0.2857143E+00  0.1904762E+00  0.1249001E-14  0.2591513E-02
      1         -0.009519   1.000000
      2          8.289476   1.001125
      3         11.733531   0.000000
      4         17.458356   0.000000
      5         20.419758   0.000000
      6         24.201899   0.000000

 -0.2380952E+00  0.1904762E+00  0.1221245E-14  0.2591513E-02
      1         -0.878901   1.000000
      2          9.959287   0.473098
      3         11.790957   0.000000
      4         18.176324   0.000000
      5         21.241812   0.000000
      6         24.281042   0.000000

 -0.1904762E+00  0.1904762E+00  0.1249001E-14  0.1295756E-02
      1         -1.625171   1.000000
      2         11.479091   0.000000
      3         12.206882   0.000000
      4         18.938707   0.000000
      5         22.141422   0.000000
      6         24.500197   0.000000

  0.2380952E+00  0.2380952E+00  0.1262379E-14  0.6478782E-03
      1         -2.223345   1.000000
      2         15.270306   0.000000
      3         15.270393   0.000000
      4         16.106201   0.000000
      5         16.918101   0.000000
      6         19.357855   0.000000

  0.2857143E+00  0.2380952E+00  0.1266348E-14  0.2591513E-02
      1         -1.730277   1.000000
      2         13.964535   0.000000
      3         14.907444   0.000000
      4         15.221473   0.000000
      5         17.038626   0.000000
      6         19.135910   0.000000

  0.3333333E+00  0.2380952E+00  0.1255940E-14  0.2591513E-02
      1         -1.111386   1.000000
      2         12.206916   0.000000
      3         14.288207   0.000000
      4         14.659650   0.000000
      5         17.166381   0.000000
      6         19.814500   0.000000

  0.3809524E+00  0.2380952E+00  0.1262879E-14  0.2591513E-02
      1         -0.366965   1.000000
      2         10.455330   0.085499
      3         13.393872   0.000000
      4         14.524595   0.000000
      5         17.124709   0.000000
      6         21.036846   0.000000

  0.4285714E+00  0.2380952E+00  0.1262879E-14  0.2591513E-02
      1          0.500663   1.000000
      2          8.771719   1.069474
      3         12.580424   0.000000
      4         14.502109   0.000000
      5         17.127656   0.000000
      6         22.476773   0.000000

  0.4761905E+00  0.2380952E+00  0.1304512E-14  0.2591513E-02
      1          1.487085   1.000000
      2          7.183262   1.000000
      3         11.867470  -0.000390
      4         14.592092   0.000000
      5         17.237213   0.000000
      6         24.032215   0.000000

 -0.4761905E+00  0.2380952E+00  0.1276756E-14  0.2591513E-02
      1          2.583312   1.000000
      2          5.707519   1.000000
      3         11.263339  -0.039699
      4         14.793698   0.000000
      5         17.460575   0.000000
      6         25.586226   0.000000

 -0.4285714E+00  0.2380952E+00  0.1276756E-14  0.2591513E-02
      1          3.666671   1.000000
      2          4.470235   1.000000
      3         10.774284  -0.029052
      4         15.105956   0.000000
      5         17.808138   0.000000
      6         26.306321   0.000000

 -0.3809524E+00  0.2380952E+00  0.1276756E-14  0.2591513E-02
      1          2.965306   1.000000
      2          5.244139   1.000000
      3         10.404432   0.110747
      4         15.527188   0.000000
      5         18.276578   0.000000
      6         25.981803   0.000000

 -0.3333333E+00  0.2380952E+00  0.1276756E-14  0.2591513E-02
      1          1.839421   1.000000
      2          6.664724   1.000000
      3         10.160776   0.266092
      4         16.054069   0.000000
      5         18.862473   0.000000
      6         25.764381   0.000000

 -0.2857143E+00  0.2380952E+00  0.1332268E-14  0.2591513E-02
      1          0.813979   1.000000
      2          8.182637   1.000000
      3         10.064146   0.238194
      4         16.680897   0.000000
      5         19.558378   0.000000
      6         25.650921   0.000000

 -0.2380952E+00  0.2380952E+00  0.1249001E-14  0.1295756E-02
      1         -0.093780   1.000000
      2          9.542606   0.974920
      3         10.349957  -0.010981
      4         17.394761   0.000000
      5         20.358585   0.000000
      6         25.479477   0.000000

  0.2857143E+00  0.2857143E+00  0.1262379E-14  0.6478782E-03
      1         -1.281535   1.000000
      2         14.044354   0.000000
      3         14.510467   0.000000
      4         14.510572   0.000000
      5         16.060963   0.000000
      6         18.314065   0.000000

  0.3333333E+00  0.2857143E+00  0.1273287E-14  0.2591513E-02
      1         -0.706354   1.000000
      2         12.896512   0.000000
      3         13.440211   0.000000
      4         14.225519   0.000000
      5         16.263941   0.000000
      6         18.311434   0.000000

  0.3809524E+00  0.2857143E+00  0.1255940E-14  0.2591513E-02
      1         -0.006121   1.000000
      2         11.470957  -0.003494
      3         12.221861   0.000000
      4         14.053400   0.000000
      5         16.457075   0.000000
      6         19.176874   0.000000

  0.4285714E+00  0.2857143E+00  0.1276756E-14  0.2591513E-02
      1          0.818569   1.000000
      2          9.853705   0.594014
      3         11.286229  -0.004713
      4         13.994625   0.000000
      5         16.510684   0.000000
      6         20.521235   0.000000

  0.4761905E+00  0.2857143E+00  0.1262879E-14  0.2591513E-02
      1          1.762445   1.000000
      2          8.264885   1.000000
      3         10.498064   0.031228
      4         14.048253   0.000000
      5         16.612172   0.000000
      6         22.063838   0.000000

 -0.4761905E+00  0.2857143E+00  0.1276756E-14  0.2591513E-02
      1          2.820144   1.000000
      2          6.765566   1.000000
      3          9.835469   0.529123
      4         14.215004   0.000000
      5         16.812420   0.000000
      6         23.733536   0.000000

 -0.4285714E+00  0.2857143E+00  0.1276756E-14  0.2591513E-02
      1          3.956391   1.000000
      2          5.403890   1.000000
      3          9.297300   0.919124
      4         14.493726   0.000000
      5         17.132655   0.000000
      6         25.457607   0.000000

 -0.3809524E+00  0.2857143E+00  0.1276756E-14  0.2591513E-02
      1          3.956176   1.000000
      2          5.395864   1.000000
      3          8.887415   1.050652
      4         14.882920   0.000000
      5         17.571303   0.000000
      6         27.118175   0.000000

 -0.3333333E+00  0.2857143E+00  0.1276756E-14  0.2591513E-02
      1          2.817337   1.000000
      2          6.721864   1.000000
      3          8.628832   1.048640
      4         15.380587   0.000000
      5         18.122881   0.000000
      6         27.343033   0.000000

 -0.2857143E+00  0.2857143E+00  0.1332268E-14  0.1295756E-02
      1          1.757936   1.000000
      2          7.919276   1.000000
      3          8.764733   1.092061
      4         15.982037   0.000000
      5         18.787184   0.000000
      6         26.913521   0.000000

  0.3333333E+00  0.3333333E+00  0.1262379E-14  0.6478782E-03
      1         -0.175130   1.000000
      2         11.886628  -0.001190
      3         13.903263   0.000000
      4         13.903364   0.000000
      5         15.383831   0.000000
      6         17.583632   0.000000

  0.3809524E+00  0.3333333E+00  0.1266348E-14  0.2591513E-02
      1          0.481057   1.000000
      2         10.848147  -0.045559
      3         12.790303   0.000000
      4         13.693848   0.000000
      5         15.673209   0.000000
      6         17.718279   0.000000

  0.4285714E+00  0.3333333E+00  0.1255940E-14  0.2591513E-02
      1          1.261489   1.000000
      2          9.889830   0.594126
      3         11.211348  -0.003563
      4         13.597903   0.000000
      5         15.939497   0.000000
      6         18.705257   0.000000

  0.4761905E+00  0.3333333E+00  0.1262879E-14  0.2591513E-02
      1          2.161390   1.000000
      2          8.963107   1.000000
      3          9.714435   0.501325
      4         13.614984   0.000000
      5         16.082537   0.000000
      6         20.148578   0.000000
