       N       E                     dE             d eps       ncg     rms          rms(c)
DAV:   1    -0.338982600296E+01   -0.33898E+01   -0.12015E+03  3876   0.283E+02
DAV:   2    -0.487671985003E+01   -0.14869E+01   -0.14294E+01  4980   0.251E+01
DAV:   3    -0.488655149468E+01   -0.98316E-02   -0.98292E-02  4032   0.202E+00
DAV:   4    -0.488655940080E+01   -0.79061E-05   -0.79444E-05  5004   0.561E-02
DAV:   5    -0.488655940331E+01   -0.25131E-08   -0.34223E-08  3732   0.826E-04    0.295E+00
DAV:   6    -0.487375853931E+01    0.12801E-01   -0.40418E-03  3762   0.367E-01    0.163E+00
DAV:   7    -0.486642955787E+01    0.73290E-02   -0.79861E-03  3660   0.514E-01    0.134E-01
DAV:   8    -0.486639538923E+01    0.34169E-04   -0.25002E-05  3186   0.492E-02
   1 F= -.48663954E+01 E0= -.48663954E+01  d E =0.000000E+00
