 vasp.6.3.2 27Jun22 (build Feb 18 2024 17:04:25) complex
 executed on             LinuxAMD date 2024.02.19  10:56:54
 running    1 mpi-ranks, with   24 threads/rank
 distrk:  each k-point on    1 cores,    1 groups
 distr:  one band on NCORE=   1 cores,    1 groups


--------------------------------------------------------------------------------------------------------


 INCAR:
   SYSTEM = fcc Si
   ENCUT = 240
   ISMEAR = -5
   LORBIT = 11
   ISTART = 0

 POTCAR:    PAW_PBE Si 05Jan2001
 POTCAR:    PAW_PBE Si 05Jan2001
   SHA256 =  79d9987ad8750f624c4d6acb2a16d13abf6a777132adc04dc6c8399be72b42bb Si/POTCAR
   COPYR  = (c) Copyright 05Jan2001 Georg Kresse
   COPYR  = This file is part of the software VASP. Any use, copying, and all other rights are regul
   COPYR  = If you do not have a valid VASP license, you may not use, copy or distribute this file.
   VRHFIN =Si: s2p2
   LEXCH  = PE
   EATOM  =   103.0669 eV,    7.5752 Ry

   TITEL  = PAW_PBE Si 05Jan2001
   LULTRA =        F    use ultrasoft PP ?
   IUNSCR =        1    unscreen: 0-lin 1-nonlin 2-no
   RPACOR =    1.500    partial core radius
   POMASS =   28.085; ZVAL   =    4.000    mass and valenz
   RCORE  =    1.900    outmost cutoff radius
   RWIGS  =    2.480; RWIGS  =    1.312    wigner-seitz radius (au A)
   ENMAX  =  245.345; ENMIN  =  184.009 eV
   ICORE  =        2    local potential
   LCOR   =        T    correct aug charges
   LPAW   =        T    paw PP
   EAUG   =  322.069
   DEXC   =    0.000
   RMAX   =    1.950    core radius for proj-oper
   RAUG   =    1.300    factor for augmentation sphere
   RDEP   =    1.993    radius for radial grids
   RDEPT  =    1.837    core radius for aug-charge

   Atomic configuration
    6 entries
     n  l   j            E        occ.
     1  0  0.50     -1785.8828   2.0000
     2  0  0.50      -139.4969   2.0000
     2  1  1.50       -95.5546   6.0000
     3  0  0.50       -10.8127   2.0000
     3  1  0.50        -4.0811   2.0000
     3  2  1.50        -4.0817   0.0000
   Description
     l       E           TYP  RCUT    TYP  RCUT
     0    -10.8127223     23  1.900
     0     -7.6451159     23  1.900
     1     -4.0811372     23  1.900
     1      2.4879257     23  1.900
     2     -4.0817478      7  1.900
  local pseudopotential read in
  partial core-charges read in
  partial kinetic energy density read in
  atomic valenz-charges read in
  non local Contribution for L=            0  read in
    real space projection operators read in
  non local Contribution for L=            0  read in
    real space projection operators read in
  non local Contribution for L=            1  read in
    real space projection operators read in
  non local Contribution for L=            1  read in
    real space projection operators read in
    PAW grid and wavefunctions read in

   number of l-projection  operators is LMAX  =            4
   number of lm-projection operators is LMMAX =            8

  PAW_PBE Si 05Jan2001                  :
 energy of atom  1       EATOM= -103.0669
 kinetic energy error for atom=    0.0061 (will be added to EATOM!!)


 POSCAR: fcc Si:
  positions in cartesian coordinates
  No initial velocities read in
 exchange correlation table for  LEXCH =        8
   RHO(1)=    0.500       N(1)  =     2000
   RHO(2)=  100.500       N(2)  =     4000



--------------------------------------------------------------------------------------------------------


 ion  position               nearest neighbor table
   1  0.000  0.000  0.000-

  LATTYP: Found a face centered cubic cell.
 ALAT       =     3.9000000000

  Lattice vectors:

 A1 = (   1.9500000000,   1.9500000000,   0.0000000000)
 A2 = (   0.0000000000,   1.9500000000,   1.9500000000)
 A3 = (   1.9500000000,   0.0000000000,   1.9500000000)


Analysis of symmetry for initial positions (statically):
=====================================================================
 Subroutine PRICEL returns:
 Original cell was already a primitive cell.


 Routine SETGRP: Setting up the symmetry group for a
 face centered cubic supercell.


 Subroutine GETGRP returns: Found 48 space group operations
 (whereof 48 operations were pure point group operations)
 out of a pool of 48 trial point group operations.


The static configuration has the point symmetry O_h .


Analysis of symmetry for dynamics (positions and initial velocities):
=====================================================================
 Subroutine PRICEL returns:
 Original cell was already a primitive cell.


 Routine SETGRP: Setting up the symmetry group for a
 face centered cubic supercell.


 Subroutine GETGRP returns: Found 48 space group operations
 (whereof 48 operations were pure point group operations)
 out of a pool of 48 trial point group operations.


The dynamic configuration has the point symmetry O_h .


 Subroutine INISYM returns: Found 48 space group operations
 (whereof 48 operations are pure point group operations),
 and found     1 'primitive' translations


----------------------------------------------------------------------------------------

                                     Primitive cell

  volume of cell :      14.8297

  direct lattice vectors                    reciprocal lattice vectors
     1.950000000  1.950000000  0.000000000     0.256410256  0.256410256 -0.256410256
     0.000000000  1.950000000  1.950000000    -0.256410256  0.256410256  0.256410256
     1.950000000  0.000000000  1.950000000     0.256410256 -0.256410256  0.256410256

  length of vectors
     2.757716447  2.757716447  2.757716447     0.444115592  0.444115592  0.444115592

  position of ions in fractional coordinates (direct lattice)
     0.000000000  0.000000000  0.000000000

  ion indices of the primitive-cell ions
   primitive index   ion index
                 1           1

----------------------------------------------------------------------------------------



 KPOINTS: k-points

Automatic generation of k-mesh.
 Grid dimensions read from file:
 generate k-points for:   21   21   21

 Generating k-lattice:

  Cartesian coordinates                     Fractional coordinates (reciprocal lattice)
     0.012210012  0.012210012 -0.012210012     0.047619048  0.000000000  0.000000000
    -0.012210012  0.012210012  0.012210012     0.000000000  0.047619048  0.000000000
     0.012210012 -0.012210012  0.012210012     0.000000000  0.000000000  0.047619048

  Length of vectors
     0.021148362  0.021148362  0.021148362

  Shift w.r.t. Gamma in fractional coordinates (k-lattice)
     0.000000000  0.000000000  0.000000000

 TETIRR: Found   1276 inequivalent tetrahedra from    55566

 Subroutine IBZKPT returns following result:
 ===========================================

 Found    286 irreducible k-points:

 Following reciprocal coordinates:
            Coordinates               Weight
  0.000000  0.000000  0.000000      1.000000
  0.047619  0.000000  0.000000      8.000000
  0.095238  0.000000  0.000000      8.000000
  0.142857  0.000000  0.000000      8.000000
  0.190476  0.000000  0.000000      8.000000
  0.238095  0.000000  0.000000      8.000000
  0.285714  0.000000  0.000000      8.000000
  0.333333  0.000000  0.000000      8.000000
  0.380952  0.000000  0.000000      8.000000
  0.428571  0.000000  0.000000      8.000000
  0.476190  0.000000  0.000000      8.000000
  0.047619  0.047619  0.000000      6.000000
  0.095238  0.047619  0.000000     24.000000
  0.142857  0.047619  0.000000     24.000000
  0.190476  0.047619  0.000000     24.000000
  0.238095  0.047619  0.000000     24.000000
  0.285714  0.047619  0.000000     24.000000
  0.333333  0.047619  0.000000     24.000000
  0.380952  0.047619  0.000000     24.000000
  0.428571  0.047619  0.000000     24.000000
  0.476190  0.047619  0.000000     24.000000
 -0.476190  0.047619  0.000000     24.000000
 -0.428571  0.047619  0.000000     24.000000
 -0.380952  0.047619  0.000000     24.000000
 -0.333333  0.047619  0.000000     24.000000
 -0.285714  0.047619  0.000000     24.000000
 -0.238095  0.047619  0.000000     24.000000
 -0.190476  0.047619  0.000000     24.000000
 -0.142857  0.047619  0.000000     24.000000
 -0.095238  0.047619  0.000000     24.000000
 -0.047619  0.047619  0.000000     12.000000
  0.095238  0.095238  0.000000      6.000000
  0.142857  0.095238  0.000000     24.000000
  0.190476  0.095238  0.000000     24.000000
  0.238095  0.095238  0.000000     24.000000
  0.285714  0.095238  0.000000     24.000000
  0.333333  0.095238  0.000000     24.000000
  0.380952  0.095238  0.000000     24.000000
  0.428571  0.095238  0.000000     24.000000
  0.476190  0.095238  0.000000     24.000000
 -0.476190  0.095238  0.000000     24.000000
 -0.428571  0.095238  0.000000     24.000000
 -0.380952  0.095238  0.000000     24.000000
 -0.333333  0.095238  0.000000     24.000000
 -0.285714  0.095238  0.000000     24.000000
 -0.238095  0.095238  0.000000     24.000000
 -0.190476  0.095238  0.000000     24.000000
 -0.142857  0.095238  0.000000     24.000000
 -0.095238  0.095238  0.000000     12.000000
  0.142857  0.142857  0.000000      6.000000
  0.190476  0.142857  0.000000     24.000000
  0.238095  0.142857  0.000000     24.000000
  0.285714  0.142857  0.000000     24.000000
  0.333333  0.142857  0.000000     24.000000
  0.380952  0.142857  0.000000     24.000000
  0.428571  0.142857  0.000000     24.000000
  0.476190  0.142857  0.000000     24.000000
 -0.476190  0.142857  0.000000     24.000000
 -0.428571  0.142857  0.000000     24.000000
 -0.380952  0.142857  0.000000     24.000000
 -0.333333  0.142857  0.000000     24.000000
 -0.285714  0.142857  0.000000     24.000000
 -0.238095  0.142857  0.000000     24.000000
 -0.190476  0.142857  0.000000     24.000000
 -0.142857  0.142857  0.000000     12.000000
  0.190476  0.190476  0.000000      6.000000
  0.238095  0.190476  0.000000     24.000000
  0.285714  0.190476  0.000000     24.000000
  0.333333  0.190476  0.000000     24.000000
  0.380952  0.190476  0.000000     24.000000
  0.428571  0.190476  0.000000     24.000000
  0.476190  0.190476  0.000000     24.000000
 -0.476190  0.190476  0.000000     24.000000
 -0.428571  0.190476  0.000000     24.000000
 -0.380952  0.190476  0.000000     24.000000
 -0.333333  0.190476  0.000000     24.000000
 -0.285714  0.190476  0.000000     24.000000
 -0.238095  0.190476  0.000000     24.000000
 -0.190476  0.190476  0.000000     12.000000
  0.238095  0.238095  0.000000      6.000000
  0.285714  0.238095  0.000000     24.000000
  0.333333  0.238095  0.000000     24.000000
  0.380952  0.238095  0.000000     24.000000
  0.428571  0.238095  0.000000     24.000000
  0.476190  0.238095  0.000000     24.000000
 -0.476190  0.238095  0.000000     24.000000
 -0.428571  0.238095  0.000000     24.000000
 -0.380952  0.238095  0.000000     24.000000
 -0.333333  0.238095  0.000000     24.000000
 -0.285714  0.238095  0.000000     24.000000
 -0.238095  0.238095  0.000000     12.000000
  0.285714  0.285714  0.000000      6.000000
  0.333333  0.285714  0.000000     24.000000
  0.380952  0.285714  0.000000     24.000000
  0.428571  0.285714  0.000000     24.000000
  0.476190  0.285714  0.000000     24.000000
 -0.476190  0.285714  0.000000     24.000000
 -0.428571  0.285714  0.000000     24.000000
 -0.380952  0.285714  0.000000     24.000000
 -0.333333  0.285714  0.000000     24.000000
 -0.285714  0.285714  0.000000     12.000000
  0.333333  0.333333  0.000000      6.000000
  0.380952  0.333333  0.000000     24.000000
  0.428571  0.333333  0.000000     24.000000
  0.476190  0.333333  0.000000     24.000000
 -0.476190  0.333333  0.000000     24.000000
 -0.428571  0.333333  0.000000     24.000000
 -0.380952  0.333333  0.000000     24.000000
 -0.333333  0.333333  0.000000     12.000000
  0.380952  0.380952  0.000000      6.000000
  0.428571  0.380952  0.000000     24.000000
  0.476190  0.380952  0.000000     24.000000
 -0.476190  0.380952  0.000000     24.000000
 -0.428571  0.380952  0.000000     24.000000
 -0.380952  0.380952  0.000000     12.000000
  0.428571  0.428571  0.000000      6.000000
  0.476190  0.428571  0.000000     24.000000
 -0.476190  0.428571  0.000000     24.000000
 -0.428571  0.428571  0.000000     12.000000
  0.476190  0.476190  0.000000      6.000000
 -0.476190  0.476190  0.000000     12.000000
  0.142857  0.095238  0.047619     24.000000
  0.190476  0.095238  0.047619     48.000000
  0.238095  0.095238  0.047619     48.000000
  0.285714  0.095238  0.047619     48.000000
  0.333333  0.095238  0.047619     48.000000
  0.380952  0.095238  0.047619     48.000000
  0.428571  0.095238  0.047619     48.000000
  0.476190  0.095238  0.047619     48.000000
 -0.476190  0.095238  0.047619     48.000000
  0.190476  0.142857  0.047619     24.000000
  0.238095  0.142857  0.047619     48.000000
  0.285714  0.142857  0.047619     48.000000
  0.333333  0.142857  0.047619     48.000000
  0.380952  0.142857  0.047619     48.000000
  0.428571  0.142857  0.047619     48.000000
  0.476190  0.142857  0.047619     48.000000
 -0.476190  0.142857  0.047619     48.000000
 -0.428571  0.142857  0.047619     48.000000
 -0.380952  0.142857  0.047619     48.000000
 -0.333333  0.142857  0.047619     48.000000
 -0.285714  0.142857  0.047619     48.000000
 -0.238095  0.142857  0.047619     48.000000
 -0.190476  0.142857  0.047619     48.000000
 -0.142857  0.142857  0.047619     48.000000
 -0.095238  0.142857  0.047619     24.000000
  0.238095  0.190476  0.047619     24.000000
  0.285714  0.190476  0.047619     48.000000
  0.333333  0.190476  0.047619     48.000000
  0.380952  0.190476  0.047619     48.000000
  0.428571  0.190476  0.047619     48.000000
  0.476190  0.190476  0.047619     48.000000
 -0.476190  0.190476  0.047619     48.000000
 -0.428571  0.190476  0.047619     48.000000
 -0.380952  0.190476  0.047619     48.000000
 -0.333333  0.190476  0.047619     48.000000
 -0.285714  0.190476  0.047619     48.000000
 -0.238095  0.190476  0.047619     48.000000
 -0.190476  0.190476  0.047619     48.000000
 -0.142857  0.190476  0.047619     24.000000
  0.285714  0.238095  0.047619     24.000000
  0.333333  0.238095  0.047619     48.000000
  0.380952  0.238095  0.047619     48.000000
  0.428571  0.238095  0.047619     48.000000
  0.476190  0.238095  0.047619     48.000000
 -0.476190  0.238095  0.047619     48.000000
 -0.428571  0.238095  0.047619     48.000000
 -0.380952  0.238095  0.047619     48.000000
 -0.333333  0.238095  0.047619     48.000000
 -0.285714  0.238095  0.047619     48.000000
 -0.238095  0.238095  0.047619     48.000000
 -0.190476  0.238095  0.047619     24.000000
  0.333333  0.285714  0.047619     24.000000
  0.380952  0.285714  0.047619     48.000000
  0.428571  0.285714  0.047619     48.000000
  0.476190  0.285714  0.047619     48.000000
 -0.476190  0.285714  0.047619     48.000000
 -0.428571  0.285714  0.047619     48.000000
 -0.380952  0.285714  0.047619     48.000000
 -0.333333  0.285714  0.047619     48.000000
 -0.285714  0.285714  0.047619     48.000000
 -0.238095  0.285714  0.047619     24.000000
  0.380952  0.333333  0.047619     24.000000
  0.428571  0.333333  0.047619     48.000000
  0.476190  0.333333  0.047619     48.000000
 -0.476190  0.333333  0.047619     48.000000
 -0.428571  0.333333  0.047619     48.000000
 -0.380952  0.333333  0.047619     48.000000
 -0.333333  0.333333  0.047619     48.000000
 -0.285714  0.333333  0.047619     24.000000
  0.428571  0.380952  0.047619     24.000000
  0.476190  0.380952  0.047619     48.000000
 -0.476190  0.380952  0.047619     48.000000
 -0.428571  0.380952  0.047619     48.000000
 -0.380952  0.380952  0.047619     48.000000
 -0.333333  0.380952  0.047619     24.000000
  0.476190  0.428571  0.047619     24.000000
 -0.476190  0.428571  0.047619     48.000000
 -0.428571  0.428571  0.047619     48.000000
 -0.380952  0.428571  0.047619     24.000000
 -0.476190  0.476190  0.047619     24.000000
 -0.428571  0.476190  0.047619     24.000000
  0.285714  0.190476  0.095238     24.000000
  0.333333  0.190476  0.095238     48.000000
  0.380952  0.190476  0.095238     48.000000
  0.428571  0.190476  0.095238     48.000000
  0.476190  0.190476  0.095238     48.000000
 -0.476190  0.190476  0.095238     48.000000
 -0.428571  0.190476  0.095238     48.000000
  0.333333  0.238095  0.095238     24.000000
  0.380952  0.238095  0.095238     48.000000
  0.428571  0.238095  0.095238     48.000000
  0.476190  0.238095  0.095238     48.000000
 -0.476190  0.238095  0.095238     48.000000
 -0.428571  0.238095  0.095238     48.000000
 -0.380952  0.238095  0.095238     48.000000
 -0.333333  0.238095  0.095238     48.000000
 -0.285714  0.238095  0.095238     48.000000
 -0.238095  0.238095  0.095238     48.000000
 -0.190476  0.238095  0.095238     48.000000
 -0.142857  0.238095  0.095238     24.000000
  0.380952  0.285714  0.095238     24.000000
  0.428571  0.285714  0.095238     48.000000
  0.476190  0.285714  0.095238     48.000000
 -0.476190  0.285714  0.095238     48.000000
 -0.428571  0.285714  0.095238     48.000000
 -0.380952  0.285714  0.095238     48.000000
 -0.333333  0.285714  0.095238     48.000000
 -0.285714  0.285714  0.095238     48.000000
 -0.238095  0.285714  0.095238     48.000000
 -0.190476  0.285714  0.095238     24.000000
  0.428571  0.333333  0.095238     24.000000
  0.476190  0.333333  0.095238     48.000000
 -0.476190  0.333333  0.095238     48.000000
 -0.428571  0.333333  0.095238     48.000000
 -0.380952  0.333333  0.095238     48.000000
 -0.333333  0.333333  0.095238     48.000000
 -0.285714  0.333333  0.095238     48.000000
 -0.238095  0.333333  0.095238     24.000000
  0.476190  0.380952  0.095238     24.000000
 -0.476190  0.380952  0.095238     48.000000
 -0.428571  0.380952  0.095238     48.000000
 -0.380952  0.380952  0.095238     48.000000
 -0.333333  0.380952  0.095238     48.000000
 -0.285714  0.380952  0.095238     24.000000
 -0.476190  0.428571  0.095238     24.000000
 -0.428571  0.428571  0.095238     48.000000
 -0.380952  0.428571  0.095238     48.000000
 -0.333333  0.428571  0.095238     24.000000
 -0.428571  0.476190  0.095238     24.000000
 -0.380952  0.476190  0.095238     24.000000
  0.428571  0.285714  0.142857     24.000000
  0.476190  0.285714  0.142857     48.000000
 -0.476190  0.285714  0.142857     48.000000
 -0.428571  0.285714  0.142857     48.000000
 -0.380952  0.285714  0.142857     48.000000
  0.476190  0.333333  0.142857     24.000000
 -0.476190  0.333333  0.142857     48.000000
 -0.428571  0.333333  0.142857     48.000000
 -0.380952  0.333333  0.142857     48.000000
 -0.333333  0.333333  0.142857     48.000000
 -0.285714  0.333333  0.142857     48.000000
 -0.238095  0.333333  0.142857     48.000000
 -0.190476  0.333333  0.142857     24.000000
 -0.476190  0.380952  0.142857     24.000000
 -0.428571  0.380952  0.142857     48.000000
 -0.380952  0.380952  0.142857     48.000000
 -0.333333  0.380952  0.142857     48.000000
 -0.285714  0.380952  0.142857     48.000000
 -0.238095  0.380952  0.142857     24.000000
 -0.428571  0.428571  0.142857     24.000000
 -0.380952  0.428571  0.142857     48.000000
 -0.333333  0.428571  0.142857     48.000000
 -0.285714  0.428571  0.142857     24.000000
 -0.380952  0.476190  0.142857     24.000000
 -0.333333  0.476190  0.142857     24.000000
 -0.428571  0.380952  0.190476     24.000000
 -0.380952  0.380952  0.190476     48.000000
 -0.333333  0.380952  0.190476     48.000000
 -0.380952  0.428571  0.190476     24.000000
 -0.333333  0.428571  0.190476     48.000000
 -0.285714  0.428571  0.190476     48.000000
 -0.238095  0.428571  0.190476     24.000000
 -0.333333  0.476190  0.190476     24.000000
 -0.285714  0.476190  0.190476     24.000000
 -0.285714  0.476190  0.238095     24.000000

 Following cartesian coordinates:
            Coordinates               Weight
  0.000000  0.000000  0.000000      1.000000
  0.047619  0.047619 -0.047619      8.000000
  0.095238  0.095238 -0.095238      8.000000
  0.142857  0.142857 -0.142857      8.000000
  0.190476  0.190476 -0.190476      8.000000
  0.238095  0.238095 -0.238095      8.000000
  0.285714  0.285714 -0.285714      8.000000
  0.333333  0.333333 -0.333333      8.000000
  0.380952  0.380952 -0.380952      8.000000
  0.428571  0.428571 -0.428571      8.000000
  0.476190  0.476190 -0.476190      8.000000
  0.000000  0.095238  0.000000      6.000000
  0.047619  0.142857 -0.047619     24.000000
  0.095238  0.190476 -0.095238     24.000000
  0.142857  0.238095 -0.142857     24.000000
  0.190476  0.285714 -0.190476     24.000000
  0.238095  0.333333 -0.238095     24.000000
  0.285714  0.380952 -0.285714     24.000000
  0.333333  0.428571 -0.333333     24.000000
  0.380952  0.476190 -0.380952     24.000000
  0.428571  0.523810 -0.428571     24.000000
 -0.523810 -0.428571  0.523810     24.000000
 -0.476190 -0.380952  0.476190     24.000000
 -0.428571 -0.333333  0.428571     24.000000
 -0.380952 -0.285714  0.380952     24.000000
 -0.333333 -0.238095  0.333333     24.000000
 -0.285714 -0.190476  0.285714     24.000000
 -0.238095 -0.142857  0.238095     24.000000
 -0.190476 -0.095238  0.190476     24.000000
 -0.142857 -0.047619  0.142857     24.000000
 -0.095238  0.000000  0.095238     12.000000
  0.000000  0.190476  0.000000      6.000000
  0.047619  0.238095 -0.047619     24.000000
  0.095238  0.285714 -0.095238     24.000000
  0.142857  0.333333 -0.142857     24.000000
  0.190476  0.380952 -0.190476     24.000000
  0.238095  0.428571 -0.238095     24.000000
  0.285714  0.476190 -0.285714     24.000000
  0.333333  0.523810 -0.333333     24.000000
  0.380952  0.571429 -0.380952     24.000000
 -0.571429 -0.380952  0.571429     24.000000
 -0.523810 -0.333333  0.523810     24.000000
 -0.476190 -0.285714  0.476190     24.000000
 -0.428571 -0.238095  0.428571     24.000000
 -0.380952 -0.190476  0.380952     24.000000
 -0.333333 -0.142857  0.333333     24.000000
 -0.285714 -0.095238  0.285714     24.000000
 -0.238095 -0.047619  0.238095     24.000000
 -0.190476  0.000000  0.190476     12.000000
  0.000000  0.285714  0.000000      6.000000
  0.047619  0.333333 -0.047619     24.000000
  0.095238  0.380952 -0.095238     24.000000
  0.142857  0.428571 -0.142857     24.000000
  0.190476  0.476190 -0.190476     24.000000
  0.238095  0.523810 -0.238095     24.000000
  0.285714  0.571429 -0.285714     24.000000
  0.333333  0.619048 -0.333333     24.000000
 -0.619048 -0.333333  0.619048     24.000000
 -0.571429 -0.285714  0.571429     24.000000
 -0.523810 -0.238095  0.523810     24.000000
 -0.476190 -0.190476  0.476190     24.000000
 -0.428571 -0.142857  0.428571     24.000000
 -0.380952 -0.095238  0.380952     24.000000
 -0.333333 -0.047619  0.333333     24.000000
 -0.285714  0.000000  0.285714     12.000000
  0.000000  0.380952  0.000000      6.000000
  0.047619  0.428571 -0.047619     24.000000
  0.095238  0.476190 -0.095238     24.000000
  0.142857  0.523810 -0.142857     24.000000
  0.190476  0.571429 -0.190476     24.000000
  0.238095  0.619048 -0.238095     24.000000
  0.285714  0.666667 -0.285714     24.000000
 -0.666667 -0.285714  0.666667     24.000000
 -0.619048 -0.238095  0.619048     24.000000
 -0.571429 -0.190476  0.571429     24.000000
 -0.523810 -0.142857  0.523810     24.000000
 -0.476190 -0.095238  0.476190     24.000000
 -0.428571 -0.047619  0.428571     24.000000
 -0.380952  0.000000  0.380952     12.000000
  0.000000  0.476190  0.000000      6.000000
  0.047619  0.523810 -0.047619     24.000000
  0.095238  0.571429 -0.095238     24.000000
  0.142857  0.619048 -0.142857     24.000000
  0.190476  0.666667 -0.190476     24.000000
  0.238095  0.714286 -0.238095     24.000000
 -0.714286 -0.238095  0.714286     24.000000
 -0.666667 -0.190476  0.666667     24.000000
 -0.619048 -0.142857  0.619048     24.000000
 -0.571429 -0.095238  0.571429     24.000000
 -0.523810 -0.047619  0.523810     24.000000
 -0.476190  0.000000  0.476190     12.000000
  0.000000  0.571429  0.000000      6.000000
  0.047619  0.619048 -0.047619     24.000000
  0.095238  0.666667 -0.095238     24.000000
  0.142857  0.714286 -0.142857     24.000000
  0.190476  0.761905 -0.190476     24.000000
 -0.761905 -0.190476  0.761905     24.000000
 -0.714286 -0.142857  0.714286     24.000000
 -0.666667 -0.095238  0.666667     24.000000
 -0.619048 -0.047619  0.619048     24.000000
 -0.571429  0.000000  0.571429     12.000000
  0.000000  0.666667  0.000000      6.000000
  0.047619  0.714286 -0.047619     24.000000
  0.095238  0.761905 -0.095238     24.000000
  0.142857  0.809524 -0.142857     24.000000
 -0.809524 -0.142857  0.809524     24.000000
 -0.761905 -0.095238  0.761905     24.000000
 -0.714286 -0.047619  0.714286     24.000000
 -0.666667  0.000000  0.666667     12.000000
  0.000000  0.761905  0.000000      6.000000
  0.047619  0.809524 -0.047619     24.000000
  0.095238  0.857143 -0.095238     24.000000
 -0.857143 -0.095238  0.857143     24.000000
 -0.809524 -0.047619  0.809524     24.000000
 -0.761905  0.000000  0.761905     12.000000
  0.000000  0.857143  0.000000      6.000000
  0.047619  0.904762 -0.047619     24.000000
 -0.904762 -0.047619  0.904762     24.000000
 -0.857143  0.000000  0.857143     12.000000
  0.000000  0.952381  0.000000      6.000000
 -0.952381  0.000000  0.952381     12.000000
  0.095238  0.190476  0.000000     24.000000
  0.142857  0.238095 -0.047619     48.000000
  0.190476  0.285714 -0.095238     48.000000
  0.238095  0.333333 -0.142857     48.000000
  0.285714  0.380952 -0.190476     48.000000
  0.333333  0.428571 -0.238095     48.000000
  0.380952  0.476190 -0.285714     48.000000
  0.428571  0.523810 -0.333333     48.000000
 -0.523810 -0.428571  0.619048     48.000000
  0.095238  0.285714  0.000000     24.000000
  0.142857  0.333333 -0.047619     48.000000
  0.190476  0.380952 -0.095238     48.000000
  0.238095  0.428571 -0.142857     48.000000
  0.285714  0.476190 -0.190476     48.000000
  0.333333  0.523810 -0.238095     48.000000
  0.380952  0.571429 -0.285714     48.000000
 -0.571429 -0.380952  0.666667     48.000000
 -0.523810 -0.333333  0.619048     48.000000
 -0.476190 -0.285714  0.571429     48.000000
 -0.428571 -0.238095  0.523810     48.000000
 -0.380952 -0.190476  0.476190     48.000000
 -0.333333 -0.142857  0.428571     48.000000
 -0.285714 -0.095238  0.380952     48.000000
 -0.238095 -0.047619  0.333333     48.000000
 -0.190476  0.000000  0.285714     24.000000
  0.095238  0.380952  0.000000     24.000000
  0.142857  0.428571 -0.047619     48.000000
  0.190476  0.476190 -0.095238     48.000000
  0.238095  0.523810 -0.142857     48.000000
  0.285714  0.571429 -0.190476     48.000000
  0.333333  0.619048 -0.238095     48.000000
 -0.619048 -0.333333  0.714286     48.000000
 -0.571429 -0.285714  0.666667     48.000000
 -0.523810 -0.238095  0.619048     48.000000
 -0.476190 -0.190476  0.571429     48.000000
 -0.428571 -0.142857  0.523810     48.000000
 -0.380952 -0.095238  0.476190     48.000000
 -0.333333 -0.047619  0.428571     48.000000
 -0.285714 -0.000000  0.380952     24.000000
  0.095238  0.476190  0.000000     24.000000
  0.142857  0.523810 -0.047619     48.000000
  0.190476  0.571429 -0.095238     48.000000
  0.238095  0.619048 -0.142857     48.000000
  0.285714  0.666667 -0.190476     48.000000
 -0.666667 -0.285714  0.761905     48.000000
 -0.619048 -0.238095  0.714286     48.000000
 -0.571429 -0.190476  0.666667     48.000000
 -0.523810 -0.142857  0.619048     48.000000
 -0.476190 -0.095238  0.571429     48.000000
 -0.428571 -0.047619  0.523810     48.000000
 -0.380952  0.000000  0.476190     24.000000
  0.095238  0.571429  0.000000     24.000000
  0.142857  0.619048 -0.047619     48.000000
  0.190476  0.666667 -0.095238     48.000000
  0.238095  0.714286 -0.142857     48.000000
 -0.714286 -0.238095  0.809524     48.000000
 -0.666667 -0.190476  0.761905     48.000000
 -0.619048 -0.142857  0.714286     48.000000
 -0.571429 -0.095238  0.666667     48.000000
 -0.523810 -0.047619  0.619048     48.000000
 -0.476190 -0.000000  0.571429     24.000000
  0.095238  0.666667  0.000000     24.000000
  0.142857  0.714286 -0.047619     48.000000
  0.190476  0.761905 -0.095238     48.000000
 -0.761905 -0.190476  0.857143     48.000000
 -0.714286 -0.142857  0.809524     48.000000
 -0.666667 -0.095238  0.761905     48.000000
 -0.619048 -0.047619  0.714286     48.000000
 -0.571429  0.000000  0.666667     24.000000
  0.095238  0.761905  0.000000     24.000000
  0.142857  0.809524 -0.047619     48.000000
 -0.809524 -0.142857  0.904762     48.000000
 -0.761905 -0.095238  0.857143     48.000000
 -0.714286 -0.047619  0.809524     48.000000
 -0.666667 -0.000000  0.761905     24.000000
  0.095238  0.857143  0.000000     24.000000
 -0.857143 -0.095238  0.952381     48.000000
 -0.809524 -0.047619  0.904762     48.000000
 -0.761905  0.000000  0.857143     24.000000
 -0.904762 -0.047619  1.000000     24.000000
 -0.857143 -0.000000  0.952381     24.000000
  0.190476  0.380952  0.000000     24.000000
  0.238095  0.428571 -0.047619     48.000000
  0.285714  0.476190 -0.095238     48.000000
  0.333333  0.523810 -0.142857     48.000000
  0.380952  0.571429 -0.190476     48.000000
 -0.571429 -0.380952  0.761905     48.000000
 -0.523810 -0.333333  0.714286     48.000000
  0.190476  0.476190  0.000000     24.000000
  0.238095  0.523810 -0.047619     48.000000
  0.285714  0.571429 -0.095238     48.000000
  0.333333  0.619048 -0.142857     48.000000
 -0.619048 -0.333333  0.809524     48.000000
 -0.571429 -0.285714  0.761905     48.000000
 -0.523810 -0.238095  0.714286     48.000000
 -0.476190 -0.190476  0.666667     48.000000
 -0.428571 -0.142857  0.619048     48.000000
 -0.380952 -0.095238  0.571429     48.000000
 -0.333333 -0.047619  0.523810     48.000000
 -0.285714  0.000000  0.476190     24.000000
  0.190476  0.571429  0.000000     24.000000
  0.238095  0.619048 -0.047619     48.000000
  0.285714  0.666667 -0.095238     48.000000
 -0.666667 -0.285714  0.857143     48.000000
 -0.619048 -0.238095  0.809524     48.000000
 -0.571429 -0.190476  0.761905     48.000000
 -0.523810 -0.142857  0.714286     48.000000
 -0.476190 -0.095238  0.666667     48.000000
 -0.428571 -0.047619  0.619048     48.000000
 -0.380952  0.000000  0.571429     24.000000
  0.190476  0.666667  0.000000     24.000000
  0.238095  0.714286 -0.047619     48.000000
 -0.714286 -0.238095  0.904762     48.000000
 -0.666667 -0.190476  0.857143     48.000000
 -0.619048 -0.142857  0.809524     48.000000
 -0.571429 -0.095238  0.761905     48.000000
 -0.523810 -0.047619  0.714286     48.000000
 -0.476190  0.000000  0.666667     24.000000
  0.190476  0.761905  0.000000     24.000000
 -0.761905 -0.190476  0.952381     48.000000
 -0.714286 -0.142857  0.904762     48.000000
 -0.666667 -0.095238  0.857143     48.000000
 -0.619048 -0.047619  0.809524     48.000000
 -0.571429  0.000000  0.761905     24.000000
 -0.809524 -0.142857  1.000000     24.000000
 -0.761905 -0.095238  0.952381     48.000000
 -0.714286 -0.047619  0.904762     48.000000
 -0.666667  0.000000  0.857143     24.000000
 -0.809524 -0.047619  1.000000     24.000000
 -0.761905  0.000000  0.952381     24.000000
  0.285714  0.571429  0.000000     24.000000
  0.333333  0.619048 -0.047619     48.000000
 -0.619048 -0.333333  0.904762     48.000000
 -0.571429 -0.285714  0.857143     48.000000
 -0.523810 -0.238095  0.809524     48.000000
  0.285714  0.666667  0.000000     24.000000
 -0.666667 -0.285714  0.952381     48.000000
 -0.619048 -0.238095  0.904762     48.000000
 -0.571429 -0.190476  0.857143     48.000000
 -0.523810 -0.142857  0.809524     48.000000
 -0.476190 -0.095238  0.761905     48.000000
 -0.428571 -0.047619  0.714286     48.000000
 -0.380952  0.000000  0.666667     24.000000
 -0.714286 -0.238095  1.000000     24.000000
 -0.666667 -0.190476  0.952381     48.000000
 -0.619048 -0.142857  0.904762     48.000000
 -0.571429 -0.095238  0.857143     48.000000
 -0.523810 -0.047619  0.809524     48.000000
 -0.476190 -0.000000  0.761905     24.000000
 -0.714286 -0.142857  1.000000     24.000000
 -0.666667 -0.095238  0.952381     48.000000
 -0.619048 -0.047619  0.904762     48.000000
 -0.571429  0.000000  0.857143     24.000000
 -0.714286 -0.047619  1.000000     24.000000
 -0.666667 -0.000000  0.952381     24.000000
 -0.619048 -0.238095  1.000000     24.000000
 -0.571429 -0.190476  0.952381     48.000000
 -0.523810 -0.142857  0.904762     48.000000
 -0.619048 -0.142857  1.000000     24.000000
 -0.571429 -0.095238  0.952381     48.000000
 -0.523810 -0.047619  0.904762     48.000000
 -0.476190  0.000000  0.857143     24.000000
 -0.619048 -0.047619  1.000000     24.000000
 -0.571429  0.000000  0.952381     24.000000
 -0.523810 -0.047619  1.000000     24.000000



--------------------------------------------------------------------------------------------------------




 Dimension of arrays:
   k-points           NKPTS =    286   k-points in BZ     NKDIM =    286   number of bands    NBANDS=      6
   number of dos      NEDOS =    301   number of ions     NIONS =      1
   non local maximal  LDIM  =      4   non local SUM 2l+1 LMDIM =      8
   total plane-waves  NPLWV =   1000
   max r-space proj   IRMAX =      1   max aug-charges    IRDMAX=   2454
   dimension x,y,z NGX =    10 NGY =   10 NGZ =   10
   dimension x,y,z NGXF=    20 NGYF=   20 NGZF=   20
   support grid    NGXF=    20 NGYF=   20 NGZF=   20
   ions per type =               1
   NGX,Y,Z   is equivalent  to a cutoff of   6.03,  6.03,  6.03 a.u.
   NGXF,Y,Z  is equivalent  to a cutoff of  12.06, 12.06, 12.06 a.u.

 SYSTEM =  fcc Si
 POSCAR =  fcc Si:

 Startparameter for this run:
   NWRITE =      2    write-flag & timer
   PREC   = normal    normal or accurate (medium, high low for compatibility)
   ISTART =      0    job   : 0-new  1-cont  2-samecut
   ICHARG =      2    charge: 1-file 2-atom 10-const
   ISPIN  =      1    spin polarized calculation?
   LNONCOLLINEAR =      F non collinear calculations
   LSORBIT =      F    spin-orbit coupling
   INIWAV =      1    electr: 0-lowe 1-rand  2-diag
   LASPH  =      F    aspherical Exc in radial PAW
 Electronic Relaxation 1
   ENCUT  =  240.0 eV  17.64 Ry    4.20 a.u.   3.48  3.48  3.48*2*pi/ulx,y,z
   ENINI  =  240.0     initial cutoff
   ENAUG  =  322.1 eV  augmentation charge cutoff
   NELM   =     60;   NELMIN=  2; NELMDL= -5     # of ELM steps
   EDIFF  = 0.1E-03   stopping-criterion for ELM
   LREAL  =      F    real-space projection
   NLSPLINE    = F    spline interpolate recip. space projectors
   LCOMPAT=      F    compatible to vasp.4.4
   GGA_COMPAT  = T    GGA compatible to vasp.4.4-vasp.4.6
   LMAXPAW     = -100 max onsite density
   LMAXMIX     =    2 max onsite mixed and CHGCAR
   VOSKOWN=      0    Vosko Wilk Nusair interpolation
   ROPT   =    0.00000
 Ionic relaxation
   EDIFFG = 0.1E-02   stopping-criterion for IOM
   NSW    =      0    number of steps for IOM
   NBLOCK =      1;   KBLOCK =      1    inner block; outer block
   IBRION =     -1    ionic relax: 0-MD 1-quasi-New 2-CG
   NFREE  =      0    steps in history (QN), initial steepest desc. (CG)
   ISIF   =      2    stress and relaxation
   IWAVPR =     10    prediction:  0-non 1-charg 2-wave 3-comb
   ISYM   =      2    0-nonsym 1-usesym 2-fastsym
   LCORR  =      T    Harris-Foulkes like correction to forces

   POTIM  = 0.5000    time-step for ionic-motion
   TEIN   =    0.0    initial temperature
   TEBEG  =    0.0;   TEEND  =   0.0 temperature during run
   SMASS  =  -3.00    Nose mass-parameter (am)
   estimated Nose-frequenzy (Omega)   =  0.10E-29 period in steps = 0.13E+47 mass=  -0.174E-27a.u.
   SCALEE = 1.0000    scale energy and forces
   NPACO  =    256;   APACO  = 10.0  distance and # of slots for P.C.
   PSTRESS=    0.0 pullay stress

  Mass of Ions in am
   POMASS =  28.09
  Ionic Valenz
   ZVAL   =   4.00
  Atomic Wigner-Seitz radii
   RWIGS  =  -1.00
  virtual crystal weights
   VCA    =   1.00
   NELECT =       4.0000    total number of electrons
   NUPDOWN=      -1.0000    fix difference up-down

 DOS related values:
   EMIN   =  10.00;   EMAX   =-10.00  energy-range for DOS
   EFERMI =   0.00
   ISMEAR =    -5;   SIGMA  =   0.20  broadening in eV -4-tet -1-fermi 0-gaus

 Electronic relaxation 2 (details)
   IALGO  =     38    algorithm
   LDIAG  =      T    sub-space diagonalisation (order eigenvalues)
   LSUBROT=      F    optimize rotation matrix (better conditioning)
   TURBO    =      0    0=normal 1=particle mesh
   IRESTART =      0    0=no restart 2=restart with 2 vectors
   NREBOOT  =      0    no. of reboots
   NMIN     =      0    reboot dimension
   EREF     =   0.00    reference energy to select bands
   IMIX   =      4    mixing-type and parameters
     AMIX     =   0.40;   BMIX     =  1.00
     AMIX_MAG =   1.60;   BMIX_MAG =  1.00
     AMIN     =   0.10
     WC   =   100.;   INIMIX=   1;  MIXPRE=   1;  MAXMIX= -45

 Intra band minimization:
   WEIMIN = 0.0000     energy-eigenvalue tresh-hold
   EBREAK =  0.42E-05  absolut break condition
   DEPER  =   0.30     relativ break condition

   TIME   =   0.40     timestep for ELM

  volume/ion in A,a.u.               =      14.83       100.08
  Fermi-wavevector in a.u.,A,eV,Ry     =   1.057751  1.998860 15.222711  1.118838
  Thomas-Fermi vector in A             =   2.193036

 Write flags
   LWAVE        =      T    write WAVECAR
   LDOWNSAMPLE  =      F    k-point downsampling of WAVECAR
   LCHARG       =      T    write CHGCAR
   LVTOT        =      F    write LOCPOT, total local potential
   LVHAR        =      F    write LOCPOT, Hartree potential only
   LELF         =      F    write electronic localiz. function (ELF)
   LORBIT       =     11    0 simple, 1 ext, 2 COOP (PROOUT), +10 PAW based schemes


 Dipole corrections
   LMONO  =      F    monopole corrections only (constant potential shift)
   LDIPOL =      F    correct potential (dipole corrections)
   IDIPOL =      0    1-x, 2-y, 3-z, 4-all directions
   EPSILON=  1.0000000 bulk dielectric constant

 Exchange correlation treatment:
   GGA     =    --    GGA type
   LEXCH   =     8    internal setting for exchange type
   LIBXC   =     F    Libxc
   VOSKOWN =     0    Vosko Wilk Nusair interpolation
   LHFCALC =     F    Hartree Fock is set to
   LHFONE  =     F    Hartree Fock one center treatment
   AEXX    =    0.0000 exact exchange contribution

 Linear response parameters
   LEPSILON=     F    determine dielectric tensor
   LRPA    =     F    only Hartree local field effects (RPA)
   LNABLA  =     F    use nabla operator in PAW spheres
   LVEL    =     F    velocity operator in full k-point grid
   CSHIFT  =0.1000    complex shift for real part using Kramers Kronig
   OMEGAMAX=  -1.0    maximum frequency
   DEG_THRESHOLD= 0.2000000E-02 threshold for treating states as degnerate
   RTIME   =   -0.100 relaxation time in fs
  (WPLASMAI=    0.000 imaginary part of plasma frequency in eV, 0.658/RTIME)
   DFIELD  = 0.0000000 0.0000000 0.0000000 field for delta impulse in time

  Optional k-point grid parameters
   LKPOINTS_OPT  =     F    use optional k-point grid
   KPOINTS_OPT_MODE=     1    mode for optional k-point grid

 Orbital magnetization related:
   ORBITALMAG=     F  switch on orbital magnetization
   LCHIMAG   =     F  perturbation theory with respect to B field
   DQ        =  0.001000  dq finite difference perturbation B field
   LLRAUG    =     F  two centre corrections for induced B field



--------------------------------------------------------------------------------------------------------


 Static calculation
 charge density and potential will be updated during run
 non-spin polarized calculation
 Variant of blocked Davidson
 Davidson routine will perform the subspace rotation
 perform sub-space diagonalisation
    after iterative eigenvector-optimisation
 modified Broyden-mixing scheme, WC =      100.0
 initial mixing is a Kerker type mixing with AMIX =  0.4000 and BMIX =      1.0000
 Hartree-type preconditioning will be used
 using additional bands             4
 reciprocal scheme for non local part
 use partial core corrections
 calculate Harris-corrections to forces
   (improved forces if not selfconsistent)
 use gradient corrections
 use of overlap-Matrix (Vanderbilt PP)
 Fermi weights with tetrahedron method with Bloechl corrections


--------------------------------------------------------------------------------------------------------


  energy-cutoff  :      240.00
  volume of cell :       14.83
      direct lattice vectors                 reciprocal lattice vectors
     1.950000000  1.950000000  0.000000000     0.256410256  0.256410256 -0.256410256
     0.000000000  1.950000000  1.950000000    -0.256410256  0.256410256  0.256410256
     1.950000000  0.000000000  1.950000000     0.256410256 -0.256410256  0.256410256

  length of vectors
     2.757716447  2.757716447  2.757716447     0.444115592  0.444115592  0.444115592



 k-points in units of 2pi/SCALE and weight: k-points
   0.00000000  0.00000000  0.00000000       0.000
   0.04761905  0.04761905 -0.04761905       0.001
   0.09523810  0.09523810 -0.09523810       0.001
   0.14285714  0.14285714 -0.14285714       0.001
   0.19047619  0.19047619 -0.19047619       0.001
   0.23809524  0.23809524 -0.23809524       0.001
   0.28571429  0.28571429 -0.28571429       0.001
   0.33333333  0.33333333 -0.33333333       0.001
   0.38095238  0.38095238 -0.38095238       0.001
   0.42857143  0.42857143 -0.42857143       0.001
   0.47619048  0.47619048 -0.47619048       0.001
   0.00000000  0.09523810  0.00000000       0.001
   0.04761905  0.14285714 -0.04761905       0.003
   0.09523810  0.19047619 -0.09523810       0.003
   0.14285714  0.23809524 -0.14285714       0.003
   0.19047619  0.28571429 -0.19047619       0.003
   0.23809524  0.33333333 -0.23809524       0.003
   0.28571429  0.38095238 -0.28571429       0.003
   0.33333333  0.42857143 -0.33333333       0.003
   0.38095238  0.47619048 -0.38095238       0.003
   0.42857143  0.52380952 -0.42857143       0.003
  -0.52380952 -0.42857143  0.52380952       0.003
  -0.47619048 -0.38095238  0.47619048       0.003
  -0.42857143 -0.33333333  0.42857143       0.003
  -0.38095238 -0.28571429  0.38095238       0.003
  -0.33333333 -0.23809524  0.33333333       0.003
  -0.28571429 -0.19047619  0.28571429       0.003
  -0.23809524 -0.14285714  0.23809524       0.003
  -0.19047619 -0.09523810  0.19047619       0.003
  -0.14285714 -0.04761905  0.14285714       0.003
  -0.09523810  0.00000000  0.09523810       0.001
   0.00000000  0.19047619  0.00000000       0.001
   0.04761905  0.23809524 -0.04761905       0.003
   0.09523810  0.28571429 -0.09523810       0.003
   0.14285714  0.33333333 -0.14285714       0.003
   0.19047619  0.38095238 -0.19047619       0.003
   0.23809524  0.42857143 -0.23809524       0.003
   0.28571429  0.47619048 -0.28571429       0.003
   0.33333333  0.52380952 -0.33333333       0.003
   0.38095238  0.57142857 -0.38095238       0.003
  -0.57142857 -0.38095238  0.57142857       0.003
  -0.52380952 -0.33333333  0.52380952       0.003
  -0.47619048 -0.28571429  0.47619048       0.003
  -0.42857143 -0.23809524  0.42857143       0.003
  -0.38095238 -0.19047619  0.38095238       0.003
  -0.33333333 -0.14285714  0.33333333       0.003
  -0.28571429 -0.09523810  0.28571429       0.003
  -0.23809524 -0.04761905  0.23809524       0.003
  -0.19047619  0.00000000  0.19047619       0.001
   0.00000000  0.28571429  0.00000000       0.001
   0.04761905  0.33333333 -0.04761905       0.003
   0.09523810  0.38095238 -0.09523810       0.003
   0.14285714  0.42857143 -0.14285714       0.003
   0.19047619  0.47619048 -0.19047619       0.003
   0.23809524  0.52380952 -0.23809524       0.003
   0.28571429  0.57142857 -0.28571429       0.003
   0.33333333  0.61904762 -0.33333333       0.003
  -0.61904762 -0.33333333  0.61904762       0.003
  -0.57142857 -0.28571429  0.57142857       0.003
  -0.52380952 -0.23809524  0.52380952       0.003
  -0.47619048 -0.19047619  0.47619048       0.003
  -0.42857143 -0.14285714  0.42857143       0.003
  -0.38095238 -0.09523810  0.38095238       0.003
  -0.33333333 -0.04761905  0.33333333       0.003
  -0.28571429  0.00000000  0.28571429       0.001
   0.00000000  0.38095238  0.00000000       0.001
   0.04761905  0.42857143 -0.04761905       0.003
   0.09523810  0.47619048 -0.09523810       0.003
   0.14285714  0.52380952 -0.14285714       0.003
   0.19047619  0.57142857 -0.19047619       0.003
   0.23809524  0.61904762 -0.23809524       0.003
   0.28571429  0.66666667 -0.28571429       0.003
  -0.66666667 -0.28571429  0.66666667       0.003
  -0.61904762 -0.23809524  0.61904762       0.003
  -0.57142857 -0.19047619  0.57142857       0.003
  -0.52380952 -0.14285714  0.52380952       0.003
  -0.47619048 -0.09523810  0.47619048       0.003
  -0.42857143 -0.04761905  0.42857143       0.003
  -0.38095238  0.00000000  0.38095238       0.001
   0.00000000  0.47619048  0.00000000       0.001
   0.04761905  0.52380952 -0.04761905       0.003
   0.09523810  0.57142857 -0.09523810       0.003
   0.14285714  0.61904762 -0.14285714       0.003
   0.19047619  0.66666667 -0.19047619       0.003
   0.23809524  0.71428571 -0.23809524       0.003
  -0.71428571 -0.23809524  0.71428571       0.003
  -0.66666667 -0.19047619  0.66666667       0.003
  -0.61904762 -0.14285714  0.61904762       0.003
  -0.57142857 -0.09523810  0.57142857       0.003
  -0.52380952 -0.04761905  0.52380952       0.003
  -0.47619048  0.00000000  0.47619048       0.001
   0.00000000  0.57142857  0.00000000       0.001
   0.04761905  0.61904762 -0.04761905       0.003
   0.09523810  0.66666667 -0.09523810       0.003
   0.14285714  0.71428571 -0.14285714       0.003
   0.19047619  0.76190476 -0.19047619       0.003
  -0.76190476 -0.19047619  0.76190476       0.003
  -0.71428571 -0.14285714  0.71428571       0.003
  -0.66666667 -0.09523810  0.66666667       0.003
  -0.61904762 -0.04761905  0.61904762       0.003
  -0.57142857  0.00000000  0.57142857       0.001
   0.00000000  0.66666667  0.00000000       0.001
   0.04761905  0.71428571 -0.04761905       0.003
   0.09523810  0.76190476 -0.09523810       0.003
   0.14285714  0.80952381 -0.14285714       0.003
  -0.80952381 -0.14285714  0.80952381       0.003
  -0.76190476 -0.09523810  0.76190476       0.003
  -0.71428571 -0.04761905  0.71428571       0.003
  -0.66666667  0.00000000  0.66666667       0.001
   0.00000000  0.76190476  0.00000000       0.001
   0.04761905  0.80952381 -0.04761905       0.003
   0.09523810  0.85714286 -0.09523810       0.003
  -0.85714286 -0.09523810  0.85714286       0.003
  -0.80952381 -0.04761905  0.80952381       0.003
  -0.76190476  0.00000000  0.76190476       0.001
   0.00000000  0.85714286  0.00000000       0.001
   0.04761905  0.90476190 -0.04761905       0.003
  -0.90476190 -0.04761905  0.90476190       0.003
  -0.85714286  0.00000000  0.85714286       0.001
   0.00000000  0.95238095  0.00000000       0.001
  -0.95238095  0.00000000  0.95238095       0.001
   0.09523810  0.19047619  0.00000000       0.003
   0.14285714  0.23809524 -0.04761905       0.005
   0.19047619  0.28571429 -0.09523810       0.005
   0.23809524  0.33333333 -0.14285714       0.005
   0.28571429  0.38095238 -0.19047619       0.005
   0.33333333  0.42857143 -0.23809524       0.005
   0.38095238  0.47619048 -0.28571429       0.005
   0.42857143  0.52380952 -0.33333333       0.005
  -0.52380952 -0.42857143  0.61904762       0.005
   0.09523810  0.28571429  0.00000000       0.003
   0.14285714  0.33333333 -0.04761905       0.005
   0.19047619  0.38095238 -0.09523810       0.005
   0.23809524  0.42857143 -0.14285714       0.005
   0.28571429  0.47619048 -0.19047619       0.005
   0.33333333  0.52380952 -0.23809524       0.005
   0.38095238  0.57142857 -0.28571429       0.005
  -0.57142857 -0.38095238  0.66666667       0.005
  -0.52380952 -0.33333333  0.61904762       0.005
  -0.47619048 -0.28571429  0.57142857       0.005
  -0.42857143 -0.23809524  0.52380952       0.005
  -0.38095238 -0.19047619  0.47619048       0.005
  -0.33333333 -0.14285714  0.42857143       0.005
  -0.28571429 -0.09523810  0.38095238       0.005
  -0.23809524 -0.04761905  0.33333333       0.005
  -0.19047619  0.00000000  0.28571429       0.003
   0.09523810  0.38095238  0.00000000       0.003
   0.14285714  0.42857143 -0.04761905       0.005
   0.19047619  0.47619048 -0.09523810       0.005
   0.23809524  0.52380952 -0.14285714       0.005
   0.28571429  0.57142857 -0.19047619       0.005
   0.33333333  0.61904762 -0.23809524       0.005
  -0.61904762 -0.33333333  0.71428571       0.005
  -0.57142857 -0.28571429  0.66666667       0.005
  -0.52380952 -0.23809524  0.61904762       0.005
  -0.47619048 -0.19047619  0.57142857       0.005
  -0.42857143 -0.14285714  0.52380952       0.005
  -0.38095238 -0.09523810  0.47619048       0.005
  -0.33333333 -0.04761905  0.42857143       0.005
  -0.28571429 -0.00000000  0.38095238       0.003
   0.09523810  0.47619048  0.00000000       0.003
   0.14285714  0.52380952 -0.04761905       0.005
   0.19047619  0.57142857 -0.09523810       0.005
   0.23809524  0.61904762 -0.14285714       0.005
   0.28571429  0.66666667 -0.19047619       0.005
  -0.66666667 -0.28571429  0.76190476       0.005
  -0.61904762 -0.23809524  0.71428571       0.005
  -0.57142857 -0.19047619  0.66666667       0.005
  -0.52380952 -0.14285714  0.61904762       0.005
  -0.47619048 -0.09523810  0.57142857       0.005
  -0.42857143 -0.04761905  0.52380952       0.005
  -0.38095238  0.00000000  0.47619048       0.003
   0.09523810  0.57142857  0.00000000       0.003
   0.14285714  0.61904762 -0.04761905       0.005
   0.19047619  0.66666667 -0.09523810       0.005
   0.23809524  0.71428571 -0.14285714       0.005
  -0.71428571 -0.23809524  0.80952381       0.005
  -0.66666667 -0.19047619  0.76190476       0.005
  -0.61904762 -0.14285714  0.71428571       0.005
  -0.57142857 -0.09523810  0.66666667       0.005
  -0.52380952 -0.04761905  0.61904762       0.005
  -0.47619048 -0.00000000  0.57142857       0.003
   0.09523810  0.66666667  0.00000000       0.003
   0.14285714  0.71428571 -0.04761905       0.005
   0.19047619  0.76190476 -0.09523810       0.005
  -0.76190476 -0.19047619  0.85714286       0.005
  -0.71428571 -0.14285714  0.80952381       0.005
  -0.66666667 -0.09523810  0.76190476       0.005
  -0.61904762 -0.04761905  0.71428571       0.005
  -0.57142857  0.00000000  0.66666667       0.003
   0.09523810  0.76190476  0.00000000       0.003
   0.14285714  0.80952381 -0.04761905       0.005
  -0.80952381 -0.14285714  0.90476190       0.005
  -0.76190476 -0.09523810  0.85714286       0.005
  -0.71428571 -0.04761905  0.80952381       0.005
  -0.66666667 -0.00000000  0.76190476       0.003
   0.09523810  0.85714286  0.00000000       0.003
  -0.85714286 -0.09523810  0.95238095       0.005
  -0.80952381 -0.04761905  0.90476190       0.005
  -0.76190476  0.00000000  0.85714286       0.003
  -0.90476190 -0.04761905  1.00000000       0.003
  -0.85714286 -0.00000000  0.95238095       0.003
   0.19047619  0.38095238  0.00000000       0.003
   0.23809524  0.42857143 -0.04761905       0.005
   0.28571429  0.47619048 -0.09523810       0.005
   0.33333333  0.52380952 -0.14285714       0.005
   0.38095238  0.57142857 -0.19047619       0.005
  -0.57142857 -0.38095238  0.76190476       0.005
  -0.52380952 -0.33333333  0.71428571       0.005
   0.19047619  0.47619048  0.00000000       0.003
   0.23809524  0.52380952 -0.04761905       0.005
   0.28571429  0.57142857 -0.09523810       0.005
   0.33333333  0.61904762 -0.14285714       0.005
  -0.61904762 -0.33333333  0.80952381       0.005
  -0.57142857 -0.28571429  0.76190476       0.005
  -0.52380952 -0.23809524  0.71428571       0.005
  -0.47619048 -0.19047619  0.66666667       0.005
  -0.42857143 -0.14285714  0.61904762       0.005
  -0.38095238 -0.09523810  0.57142857       0.005
  -0.33333333 -0.04761905  0.52380952       0.005
  -0.28571429  0.00000000  0.47619048       0.003
   0.19047619  0.57142857  0.00000000       0.003
   0.23809524  0.61904762 -0.04761905       0.005
   0.28571429  0.66666667 -0.09523810       0.005
  -0.66666667 -0.28571429  0.85714286       0.005
  -0.61904762 -0.23809524  0.80952381       0.005
  -0.57142857 -0.19047619  0.76190476       0.005
  -0.52380952 -0.14285714  0.71428571       0.005
  -0.47619048 -0.09523810  0.66666667       0.005
  -0.42857143 -0.04761905  0.61904762       0.005
  -0.38095238  0.00000000  0.57142857       0.003
   0.19047619  0.66666667  0.00000000       0.003
   0.23809524  0.71428571 -0.04761905       0.005
  -0.71428571 -0.23809524  0.90476190       0.005
  -0.66666667 -0.19047619  0.85714286       0.005
  -0.61904762 -0.14285714  0.80952381       0.005
  -0.57142857 -0.09523810  0.76190476       0.005
  -0.52380952 -0.04761905  0.71428571       0.005
  -0.47619048  0.00000000  0.66666667       0.003
   0.19047619  0.76190476  0.00000000       0.003
  -0.76190476 -0.19047619  0.95238095       0.005
  -0.71428571 -0.14285714  0.90476190       0.005
  -0.66666667 -0.09523810  0.85714286       0.005
  -0.61904762 -0.04761905  0.80952381       0.005
  -0.57142857  0.00000000  0.76190476       0.003
  -0.80952381 -0.14285714  1.00000000       0.003
  -0.76190476 -0.09523810  0.95238095       0.005
  -0.71428571 -0.04761905  0.90476190       0.005
  -0.66666667  0.00000000  0.85714286       0.003
  -0.80952381 -0.04761905  1.00000000       0.003
  -0.76190476  0.00000000  0.95238095       0.003
   0.28571429  0.57142857  0.00000000       0.003
   0.33333333  0.61904762 -0.04761905       0.005
  -0.61904762 -0.33333333  0.90476190       0.005
  -0.57142857 -0.28571429  0.85714286       0.005
  -0.52380952 -0.23809524  0.80952381       0.005
   0.28571429  0.66666667  0.00000000       0.003
  -0.66666667 -0.28571429  0.95238095       0.005
  -0.61904762 -0.23809524  0.90476190       0.005
  -0.57142857 -0.19047619  0.85714286       0.005
  -0.52380952 -0.14285714  0.80952381       0.005
  -0.47619048 -0.09523810  0.76190476       0.005
  -0.42857143 -0.04761905  0.71428571       0.005
  -0.38095238  0.00000000  0.66666667       0.003
  -0.71428571 -0.23809524  1.00000000       0.003
  -0.66666667 -0.19047619  0.95238095       0.005
  -0.61904762 -0.14285714  0.90476190       0.005
  -0.57142857 -0.09523810  0.85714286       0.005
  -0.52380952 -0.04761905  0.80952381       0.005
  -0.47619048 -0.00000000  0.76190476       0.003
  -0.71428571 -0.14285714  1.00000000       0.003
  -0.66666667 -0.09523810  0.95238095       0.005
  -0.61904762 -0.04761905  0.90476190       0.005
  -0.57142857  0.00000000  0.85714286       0.003
  -0.71428571 -0.04761905  1.00000000       0.003
  -0.66666667 -0.00000000  0.95238095       0.003
  -0.61904762 -0.23809524  1.00000000       0.003
  -0.57142857 -0.19047619  0.95238095       0.005
  -0.52380952 -0.14285714  0.90476190       0.005
  -0.61904762 -0.14285714  1.00000000       0.003
  -0.57142857 -0.09523810  0.95238095       0.005
  -0.52380952 -0.04761905  0.90476190       0.005
  -0.47619048  0.00000000  0.85714286       0.003
  -0.61904762 -0.04761905  1.00000000       0.003
  -0.57142857  0.00000000  0.95238095       0.003
  -0.52380952 -0.04761905  1.00000000       0.003

 k-points in reciprocal lattice and weights: k-points
   0.00000000  0.00000000  0.00000000       0.000
   0.04761905  0.00000000  0.00000000       0.001
   0.09523810  0.00000000  0.00000000       0.001
   0.14285714  0.00000000  0.00000000       0.001
   0.19047619  0.00000000  0.00000000       0.001
   0.23809524  0.00000000  0.00000000       0.001
   0.28571429  0.00000000  0.00000000       0.001
   0.33333333  0.00000000  0.00000000       0.001
   0.38095238  0.00000000  0.00000000       0.001
   0.42857143  0.00000000  0.00000000       0.001
   0.47619048  0.00000000  0.00000000       0.001
   0.04761905  0.04761905  0.00000000       0.001
   0.09523810  0.04761905  0.00000000       0.003
   0.14285714  0.04761905  0.00000000       0.003
   0.19047619  0.04761905  0.00000000       0.003
   0.23809524  0.04761905  0.00000000       0.003
   0.28571429  0.04761905  0.00000000       0.003
   0.33333333  0.04761905  0.00000000       0.003
   0.38095238  0.04761905  0.00000000       0.003
   0.42857143  0.04761905  0.00000000       0.003
   0.47619048  0.04761905  0.00000000       0.003
  -0.47619048  0.04761905  0.00000000       0.003
  -0.42857143  0.04761905  0.00000000       0.003
  -0.38095238  0.04761905  0.00000000       0.003
  -0.33333333  0.04761905  0.00000000       0.003
  -0.28571429  0.04761905  0.00000000       0.003
  -0.23809524  0.04761905  0.00000000       0.003
  -0.19047619  0.04761905  0.00000000       0.003
  -0.14285714  0.04761905  0.00000000       0.003
  -0.09523810  0.04761905  0.00000000       0.003
  -0.04761905  0.04761905  0.00000000       0.001
   0.09523810  0.09523810  0.00000000       0.001
   0.14285714  0.09523810  0.00000000       0.003
   0.19047619  0.09523810  0.00000000       0.003
   0.23809524  0.09523810  0.00000000       0.003
   0.28571429  0.09523810  0.00000000       0.003
   0.33333333  0.09523810  0.00000000       0.003
   0.38095238  0.09523810  0.00000000       0.003
   0.42857143  0.09523810  0.00000000       0.003
   0.47619048  0.09523810  0.00000000       0.003
  -0.47619048  0.09523810  0.00000000       0.003
  -0.42857143  0.09523810  0.00000000       0.003
  -0.38095238  0.09523810  0.00000000       0.003
  -0.33333333  0.09523810  0.00000000       0.003
  -0.28571429  0.09523810  0.00000000       0.003
  -0.23809524  0.09523810  0.00000000       0.003
  -0.19047619  0.09523810  0.00000000       0.003
  -0.14285714  0.09523810  0.00000000       0.003
  -0.09523810  0.09523810  0.00000000       0.001
   0.14285714  0.14285714  0.00000000       0.001
   0.19047619  0.14285714  0.00000000       0.003
   0.23809524  0.14285714  0.00000000       0.003
   0.28571429  0.14285714  0.00000000       0.003
   0.33333333  0.14285714  0.00000000       0.003
   0.38095238  0.14285714  0.00000000       0.003
   0.42857143  0.14285714  0.00000000       0.003
   0.47619048  0.14285714  0.00000000       0.003
  -0.47619048  0.14285714  0.00000000       0.003
  -0.42857143  0.14285714  0.00000000       0.003
  -0.38095238  0.14285714  0.00000000       0.003
  -0.33333333  0.14285714  0.00000000       0.003
  -0.28571429  0.14285714  0.00000000       0.003
  -0.23809524  0.14285714  0.00000000       0.003
  -0.19047619  0.14285714  0.00000000       0.003
  -0.14285714  0.14285714  0.00000000       0.001
   0.19047619  0.19047619  0.00000000       0.001
   0.23809524  0.19047619  0.00000000       0.003
   0.28571429  0.19047619  0.00000000       0.003
   0.33333333  0.19047619  0.00000000       0.003
   0.38095238  0.19047619  0.00000000       0.003
   0.42857143  0.19047619  0.00000000       0.003
   0.47619048  0.19047619  0.00000000       0.003
  -0.47619048  0.19047619  0.00000000       0.003
  -0.42857143  0.19047619  0.00000000       0.003
  -0.38095238  0.19047619  0.00000000       0.003
  -0.33333333  0.19047619  0.00000000       0.003
  -0.28571429  0.19047619  0.00000000       0.003
  -0.23809524  0.19047619  0.00000000       0.003
  -0.19047619  0.19047619  0.00000000       0.001
   0.23809524  0.23809524  0.00000000       0.001
   0.28571429  0.23809524  0.00000000       0.003
   0.33333333  0.23809524  0.00000000       0.003
   0.38095238  0.23809524  0.00000000       0.003
   0.42857143  0.23809524  0.00000000       0.003
   0.47619048  0.23809524  0.00000000       0.003
  -0.47619048  0.23809524  0.00000000       0.003
  -0.42857143  0.23809524  0.00000000       0.003
  -0.38095238  0.23809524  0.00000000       0.003
  -0.33333333  0.23809524  0.00000000       0.003
  -0.28571429  0.23809524  0.00000000       0.003
  -0.23809524  0.23809524  0.00000000       0.001
   0.28571429  0.28571429  0.00000000       0.001
   0.33333333  0.28571429  0.00000000       0.003
   0.38095238  0.28571429  0.00000000       0.003
   0.42857143  0.28571429  0.00000000       0.003
   0.47619048  0.28571429  0.00000000       0.003
  -0.47619048  0.28571429  0.00000000       0.003
  -0.42857143  0.28571429  0.00000000       0.003
  -0.38095238  0.28571429  0.00000000       0.003
  -0.33333333  0.28571429  0.00000000       0.003
  -0.28571429  0.28571429  0.00000000       0.001
   0.33333333  0.33333333  0.00000000       0.001
   0.38095238  0.33333333  0.00000000       0.003
   0.42857143  0.33333333  0.00000000       0.003
   0.47619048  0.33333333  0.00000000       0.003
  -0.47619048  0.33333333  0.00000000       0.003
  -0.42857143  0.33333333  0.00000000       0.003
  -0.38095238  0.33333333  0.00000000       0.003
  -0.33333333  0.33333333  0.00000000       0.001
   0.38095238  0.38095238  0.00000000       0.001
   0.42857143  0.38095238  0.00000000       0.003
   0.47619048  0.38095238  0.00000000       0.003
  -0.47619048  0.38095238  0.00000000       0.003
  -0.42857143  0.38095238  0.00000000       0.003
  -0.38095238  0.38095238  0.00000000       0.001
   0.42857143  0.42857143  0.00000000       0.001
   0.47619048  0.42857143  0.00000000       0.003
  -0.47619048  0.42857143  0.00000000       0.003
  -0.42857143  0.42857143  0.00000000       0.001
   0.47619048  0.47619048  0.00000000       0.001
  -0.47619048  0.47619048  0.00000000       0.001
   0.14285714  0.09523810  0.04761905       0.003
   0.19047619  0.09523810  0.04761905       0.005
   0.23809524  0.09523810  0.04761905       0.005
   0.28571429  0.09523810  0.04761905       0.005
   0.33333333  0.09523810  0.04761905       0.005
   0.38095238  0.09523810  0.04761905       0.005
   0.42857143  0.09523810  0.04761905       0.005
   0.47619048  0.09523810  0.04761905       0.005
  -0.47619048  0.09523810  0.04761905       0.005
   0.19047619  0.14285714  0.04761905       0.003
   0.23809524  0.14285714  0.04761905       0.005
   0.28571429  0.14285714  0.04761905       0.005
   0.33333333  0.14285714  0.04761905       0.005
   0.38095238  0.14285714  0.04761905       0.005
   0.42857143  0.14285714  0.04761905       0.005
   0.47619048  0.14285714  0.04761905       0.005
  -0.47619048  0.14285714  0.04761905       0.005
  -0.42857143  0.14285714  0.04761905       0.005
  -0.38095238  0.14285714  0.04761905       0.005
  -0.33333333  0.14285714  0.04761905       0.005
  -0.28571429  0.14285714  0.04761905       0.005
  -0.23809524  0.14285714  0.04761905       0.005
  -0.19047619  0.14285714  0.04761905       0.005
  -0.14285714  0.14285714  0.04761905       0.005
  -0.09523810  0.14285714  0.04761905       0.003
   0.23809524  0.19047619  0.04761905       0.003
   0.28571429  0.19047619  0.04761905       0.005
   0.33333333  0.19047619  0.04761905       0.005
   0.38095238  0.19047619  0.04761905       0.005
   0.42857143  0.19047619  0.04761905       0.005
   0.47619048  0.19047619  0.04761905       0.005
  -0.47619048  0.19047619  0.04761905       0.005
  -0.42857143  0.19047619  0.04761905       0.005
  -0.38095238  0.19047619  0.04761905       0.005
  -0.33333333  0.19047619  0.04761905       0.005
  -0.28571429  0.19047619  0.04761905       0.005
  -0.23809524  0.19047619  0.04761905       0.005
  -0.19047619  0.19047619  0.04761905       0.005
  -0.14285714  0.19047619  0.04761905       0.003
   0.28571429  0.23809524  0.04761905       0.003
   0.33333333  0.23809524  0.04761905       0.005
   0.38095238  0.23809524  0.04761905       0.005
   0.42857143  0.23809524  0.04761905       0.005
   0.47619048  0.23809524  0.04761905       0.005
  -0.47619048  0.23809524  0.04761905       0.005
  -0.42857143  0.23809524  0.04761905       0.005
  -0.38095238  0.23809524  0.04761905       0.005
  -0.33333333  0.23809524  0.04761905       0.005
  -0.28571429  0.23809524  0.04761905       0.005
  -0.23809524  0.23809524  0.04761905       0.005
  -0.19047619  0.23809524  0.04761905       0.003
   0.33333333  0.28571429  0.04761905       0.003
   0.38095238  0.28571429  0.04761905       0.005
   0.42857143  0.28571429  0.04761905       0.005
   0.47619048  0.28571429  0.04761905       0.005
  -0.47619048  0.28571429  0.04761905       0.005
  -0.42857143  0.28571429  0.04761905       0.005
  -0.38095238  0.28571429  0.04761905       0.005
  -0.33333333  0.28571429  0.04761905       0.005
  -0.28571429  0.28571429  0.04761905       0.005
  -0.23809524  0.28571429  0.04761905       0.003
   0.38095238  0.33333333  0.04761905       0.003
   0.42857143  0.33333333  0.04761905       0.005
   0.47619048  0.33333333  0.04761905       0.005
  -0.47619048  0.33333333  0.04761905       0.005
  -0.42857143  0.33333333  0.04761905       0.005
  -0.38095238  0.33333333  0.04761905       0.005
  -0.33333333  0.33333333  0.04761905       0.005
  -0.28571429  0.33333333  0.04761905       0.003
   0.42857143  0.38095238  0.04761905       0.003
   0.47619048  0.38095238  0.04761905       0.005
  -0.47619048  0.38095238  0.04761905       0.005
  -0.42857143  0.38095238  0.04761905       0.005
  -0.38095238  0.38095238  0.04761905       0.005
  -0.33333333  0.38095238  0.04761905       0.003
   0.47619048  0.42857143  0.04761905       0.003
  -0.47619048  0.42857143  0.04761905       0.005
  -0.42857143  0.42857143  0.04761905       0.005
  -0.38095238  0.42857143  0.04761905       0.003
  -0.47619048  0.47619048  0.04761905       0.003
  -0.42857143  0.47619048  0.04761905       0.003
   0.28571429  0.19047619  0.09523810       0.003
   0.33333333  0.19047619  0.09523810       0.005
   0.38095238  0.19047619  0.09523810       0.005
   0.42857143  0.19047619  0.09523810       0.005
   0.47619048  0.19047619  0.09523810       0.005
  -0.47619048  0.19047619  0.09523810       0.005
  -0.42857143  0.19047619  0.09523810       0.005
   0.33333333  0.23809524  0.09523810       0.003
   0.38095238  0.23809524  0.09523810       0.005
   0.42857143  0.23809524  0.09523810       0.005
   0.47619048  0.23809524  0.09523810       0.005
  -0.47619048  0.23809524  0.09523810       0.005
  -0.42857143  0.23809524  0.09523810       0.005
  -0.38095238  0.23809524  0.09523810       0.005
  -0.33333333  0.23809524  0.09523810       0.005
  -0.28571429  0.23809524  0.09523810       0.005
  -0.23809524  0.23809524  0.09523810       0.005
  -0.19047619  0.23809524  0.09523810       0.005
  -0.14285714  0.23809524  0.09523810       0.003
   0.38095238  0.28571429  0.09523810       0.003
   0.42857143  0.28571429  0.09523810       0.005
   0.47619048  0.28571429  0.09523810       0.005
  -0.47619048  0.28571429  0.09523810       0.005
  -0.42857143  0.28571429  0.09523810       0.005
  -0.38095238  0.28571429  0.09523810       0.005
  -0.33333333  0.28571429  0.09523810       0.005
  -0.28571429  0.28571429  0.09523810       0.005
  -0.23809524  0.28571429  0.09523810       0.005
  -0.19047619  0.28571429  0.09523810       0.003
   0.42857143  0.33333333  0.09523810       0.003
   0.47619048  0.33333333  0.09523810       0.005
  -0.47619048  0.33333333  0.09523810       0.005
  -0.42857143  0.33333333  0.09523810       0.005
  -0.38095238  0.33333333  0.09523810       0.005
  -0.33333333  0.33333333  0.09523810       0.005
  -0.28571429  0.33333333  0.09523810       0.005
  -0.23809524  0.33333333  0.09523810       0.003
   0.47619048  0.38095238  0.09523810       0.003
  -0.47619048  0.38095238  0.09523810       0.005
  -0.42857143  0.38095238  0.09523810       0.005
  -0.38095238  0.38095238  0.09523810       0.005
  -0.33333333  0.38095238  0.09523810       0.005
  -0.28571429  0.38095238  0.09523810       0.003
  -0.47619048  0.42857143  0.09523810       0.003
  -0.42857143  0.42857143  0.09523810       0.005
  -0.38095238  0.42857143  0.09523810       0.005
  -0.33333333  0.42857143  0.09523810       0.003
  -0.42857143  0.47619048  0.09523810       0.003
  -0.38095238  0.47619048  0.09523810       0.003
   0.42857143  0.28571429  0.14285714       0.003
   0.47619048  0.28571429  0.14285714       0.005
  -0.47619048  0.28571429  0.14285714       0.005
  -0.42857143  0.28571429  0.14285714       0.005
  -0.38095238  0.28571429  0.14285714       0.005
   0.47619048  0.33333333  0.14285714       0.003
  -0.47619048  0.33333333  0.14285714       0.005
  -0.42857143  0.33333333  0.14285714       0.005
  -0.38095238  0.33333333  0.14285714       0.005
  -0.33333333  0.33333333  0.14285714       0.005
  -0.28571429  0.33333333  0.14285714       0.005
  -0.23809524  0.33333333  0.14285714       0.005
  -0.19047619  0.33333333  0.14285714       0.003
  -0.47619048  0.38095238  0.14285714       0.003
  -0.42857143  0.38095238  0.14285714       0.005
  -0.38095238  0.38095238  0.14285714       0.005
  -0.33333333  0.38095238  0.14285714       0.005
  -0.28571429  0.38095238  0.14285714       0.005
  -0.23809524  0.38095238  0.14285714       0.003
  -0.42857143  0.42857143  0.14285714       0.003
  -0.38095238  0.42857143  0.14285714       0.005
  -0.33333333  0.42857143  0.14285714       0.005
  -0.28571429  0.42857143  0.14285714       0.003
  -0.38095238  0.47619048  0.14285714       0.003
  -0.33333333  0.47619048  0.14285714       0.003
  -0.42857143  0.38095238  0.19047619       0.003
  -0.38095238  0.38095238  0.19047619       0.005
  -0.33333333  0.38095238  0.19047619       0.005
  -0.38095238  0.42857143  0.19047619       0.003
  -0.33333333  0.42857143  0.19047619       0.005
  -0.28571429  0.42857143  0.19047619       0.005
  -0.23809524  0.42857143  0.19047619       0.003
  -0.33333333  0.47619048  0.19047619       0.003
  -0.28571429  0.47619048  0.19047619       0.003
  -0.28571429  0.47619048  0.23809524       0.003

 position of ions in fractional coordinates (direct lattice)
   0.00000000  0.00000000  0.00000000

 position of ions in cartesian coordinates  (Angst):
   0.00000000  0.00000000  0.00000000



--------------------------------------------------------------------------------------------------------


 k-point   1 :   0.0000 0.0000 0.0000  plane waves:     137
 k-point   2 :   0.0476 0.0000 0.0000  plane waves:     128
 k-point   3 :   0.0952 0.0000 0.0000  plane waves:     128
 k-point   4 :   0.1429 0.0000 0.0000  plane waves:     128
 k-point   5 :   0.1905 0.0000 0.0000  plane waves:     129
 k-point   6 :   0.2381 0.0000 0.0000  plane waves:     132
 k-point   7 :   0.2857 0.0000 0.0000  plane waves:     132
 k-point   8 :   0.3333 0.0000 0.0000  plane waves:     126
 k-point   9 :   0.3810 0.0000 0.0000  plane waves:     123
 k-point  10 :   0.4286 0.0000 0.0000  plane waves:     123
 k-point  11 :   0.4762 0.0000 0.0000  plane waves:     120
 k-point  12 :   0.0476 0.0476 0.0000  plane waves:     125
 k-point  13 :   0.0952 0.0476 0.0000  plane waves:     127
 k-point  14 :   0.1429 0.0476 0.0000  plane waves:     125
 k-point  15 :   0.1905 0.0476 0.0000  plane waves:     127
 k-point  16 :   0.2381 0.0476 0.0000  plane waves:     127
 k-point  17 :   0.2857 0.0476 0.0000  plane waves:     131
 k-point  18 :   0.3333 0.0476 0.0000  plane waves:     131
 k-point  19 :   0.3810 0.0476 0.0000  plane waves:     127
 k-point  20 :   0.4286 0.0476 0.0000  plane waves:     126
 k-point  21 :   0.4762 0.0476 0.0000  plane waves:     125
 k-point  22 :  -0.4762 0.0476 0.0000  plane waves:     122
 k-point  23 :  -0.4286 0.0476 0.0000  plane waves:     126
 k-point  24 :  -0.3810 0.0476 0.0000  plane waves:     126
 k-point  25 :  -0.3333 0.0476 0.0000  plane waves:     128
 k-point  26 :  -0.2857 0.0476 0.0000  plane waves:     131
 k-point  27 :  -0.2381 0.0476 0.0000  plane waves:     131
 k-point  28 :  -0.1905 0.0476 0.0000  plane waves:     128
 k-point  29 :  -0.1429 0.0476 0.0000  plane waves:     126
 k-point  30 :  -0.0952 0.0476 0.0000  plane waves:     125
 k-point  31 :  -0.0476 0.0476 0.0000  plane waves:     127
 k-point  32 :   0.0952 0.0952 0.0000  plane waves:     125
 k-point  33 :   0.1429 0.0952 0.0000  plane waves:     125
 k-point  34 :   0.1905 0.0952 0.0000  plane waves:     131
 k-point  35 :   0.2381 0.0952 0.0000  plane waves:     129
 k-point  36 :   0.2857 0.0952 0.0000  plane waves:     132
 k-point  37 :   0.3333 0.0952 0.0000  plane waves:     130
 k-point  38 :   0.3810 0.0952 0.0000  plane waves:     128
 k-point  39 :   0.4286 0.0952 0.0000  plane waves:     125
 k-point  40 :   0.4762 0.0952 0.0000  plane waves:     127
 k-point  41 :  -0.4762 0.0952 0.0000  plane waves:     127
 k-point  42 :  -0.4286 0.0952 0.0000  plane waves:     126
 k-point  43 :  -0.3810 0.0952 0.0000  plane waves:     124
 k-point  44 :  -0.3333 0.0952 0.0000  plane waves:     127
 k-point  45 :  -0.2857 0.0952 0.0000  plane waves:     131
 k-point  46 :  -0.2381 0.0952 0.0000  plane waves:     131
 k-point  47 :  -0.1905 0.0952 0.0000  plane waves:     130
 k-point  48 :  -0.1429 0.0952 0.0000  plane waves:     128
 k-point  49 :  -0.0952 0.0952 0.0000  plane waves:     127
 k-point  50 :   0.1429 0.1429 0.0000  plane waves:     129
 k-point  51 :   0.1905 0.1429 0.0000  plane waves:     129
 k-point  52 :   0.2381 0.1429 0.0000  plane waves:     130
 k-point  53 :   0.2857 0.1429 0.0000  plane waves:     132
 k-point  54 :   0.3333 0.1429 0.0000  plane waves:     130
 k-point  55 :   0.3810 0.1429 0.0000  plane waves:     128
 k-point  56 :   0.4286 0.1429 0.0000  plane waves:     130
 k-point  57 :   0.4762 0.1429 0.0000  plane waves:     125
 k-point  58 :  -0.4762 0.1429 0.0000  plane waves:     123
 k-point  59 :  -0.4286 0.1429 0.0000  plane waves:     127
 k-point  60 :  -0.3810 0.1429 0.0000  plane waves:     127
 k-point  61 :  -0.3333 0.1429 0.0000  plane waves:     128
 k-point  62 :  -0.2857 0.1429 0.0000  plane waves:     131
 k-point  63 :  -0.2381 0.1429 0.0000  plane waves:     131
 k-point  64 :  -0.1905 0.1429 0.0000  plane waves:     131
 k-point  65 :  -0.1429 0.1429 0.0000  plane waves:     133
 k-point  66 :   0.1905 0.1905 0.0000  plane waves:     129
 k-point  67 :   0.2381 0.1905 0.0000  plane waves:     130
 k-point  68 :   0.2857 0.1905 0.0000  plane waves:     128
 k-point  69 :   0.3333 0.1905 0.0000  plane waves:     130
 k-point  70 :   0.3810 0.1905 0.0000  plane waves:     128
 k-point  71 :   0.4286 0.1905 0.0000  plane waves:     126
 k-point  72 :   0.4762 0.1905 0.0000  plane waves:     125
 k-point  73 :  -0.4762 0.1905 0.0000  plane waves:     123
 k-point  74 :  -0.4286 0.1905 0.0000  plane waves:     125
 k-point  75 :  -0.3810 0.1905 0.0000  plane waves:     125
 k-point  76 :  -0.3333 0.1905 0.0000  plane waves:     129
 k-point  77 :  -0.2857 0.1905 0.0000  plane waves:     129
 k-point  78 :  -0.2381 0.1905 0.0000  plane waves:     131
 k-point  79 :  -0.1905 0.1905 0.0000  plane waves:     131
 k-point  80 :   0.2381 0.2381 0.0000  plane waves:     129
 k-point  81 :   0.2857 0.2381 0.0000  plane waves:     128
 k-point  82 :   0.3333 0.2381 0.0000  plane waves:     128
 k-point  83 :   0.3810 0.2381 0.0000  plane waves:     126
 k-point  84 :   0.4286 0.2381 0.0000  plane waves:     124
 k-point  85 :   0.4762 0.2381 0.0000  plane waves:     122
 k-point  86 :  -0.4762 0.2381 0.0000  plane waves:     123
 k-point  87 :  -0.4286 0.2381 0.0000  plane waves:     125
 k-point  88 :  -0.3810 0.2381 0.0000  plane waves:     125
 k-point  89 :  -0.3333 0.2381 0.0000  plane waves:     126
 k-point  90 :  -0.2857 0.2381 0.0000  plane waves:     128
 k-point  91 :  -0.2381 0.2381 0.0000  plane waves:     129
 k-point  92 :   0.2857 0.2857 0.0000  plane waves:     129
 k-point  93 :   0.3333 0.2857 0.0000  plane waves:     129
 k-point  94 :   0.3810 0.2857 0.0000  plane waves:     128
 k-point  95 :   0.4286 0.2857 0.0000  plane waves:     122
 k-point  96 :   0.4762 0.2857 0.0000  plane waves:     124
 k-point  97 :  -0.4762 0.2857 0.0000  plane waves:     124
 k-point  98 :  -0.4286 0.2857 0.0000  plane waves:     123
 k-point  99 :  -0.3810 0.2857 0.0000  plane waves:     122
 k-point 100 :  -0.3333 0.2857 0.0000  plane waves:     122
 k-point 101 :  -0.2857 0.2857 0.0000  plane waves:     126
 k-point 102 :   0.3333 0.3333 0.0000  plane waves:     129
 k-point 103 :   0.3810 0.3333 0.0000  plane waves:     129
 k-point 104 :   0.4286 0.3333 0.0000  plane waves:     123
 k-point 105 :   0.4762 0.3333 0.0000  plane waves:     122
 k-point 106 :  -0.4762 0.3333 0.0000  plane waves:     124
 k-point 107 :  -0.4286 0.3333 0.0000  plane waves:     125
 k-point 108 :  -0.3810 0.3333 0.0000  plane waves:     122
 k-point 109 :  -0.3333 0.3333 0.0000  plane waves:     122
 k-point 110 :   0.3810 0.3810 0.0000  plane waves:     129
 k-point 111 :   0.4286 0.3810 0.0000  plane waves:     121
 k-point 112 :   0.4762 0.3810 0.0000  plane waves:     121
 k-point 113 :  -0.4762 0.3810 0.0000  plane waves:     121
 k-point 114 :  -0.4286 0.3810 0.0000  plane waves:     123
 k-point 115 :  -0.3810 0.3810 0.0000  plane waves:     126
 k-point 116 :   0.4286 0.4286 0.0000  plane waves:     121
 k-point 117 :   0.4762 0.4286 0.0000  plane waves:     119
 k-point 118 :  -0.4762 0.4286 0.0000  plane waves:     118
 k-point 119 :  -0.4286 0.4286 0.0000  plane waves:     120
 k-point 120 :   0.4762 0.4762 0.0000  plane waves:     116
 k-point 121 :  -0.4762 0.4762 0.0000  plane waves:     116
 k-point 122 :   0.1429 0.0952 0.0476  plane waves:     127
 k-point 123 :   0.1905 0.0952 0.0476  plane waves:     127
 k-point 124 :   0.2381 0.0952 0.0476  plane waves:     129
 k-point 125 :   0.2857 0.0952 0.0476  plane waves:     131
 k-point 126 :   0.3333 0.0952 0.0476  plane waves:     132
 k-point 127 :   0.3810 0.0952 0.0476  plane waves:     129
 k-point 128 :   0.4286 0.0952 0.0476  plane waves:     126
 k-point 129 :   0.4762 0.0952 0.0476  plane waves:     125
 k-point 130 :  -0.4762 0.0952 0.0476  plane waves:     125
 k-point 131 :   0.1905 0.1429 0.0476  plane waves:     127
 k-point 132 :   0.2381 0.1429 0.0476  plane waves:     131
 k-point 133 :   0.2857 0.1429 0.0476  plane waves:     131
 k-point 134 :   0.3333 0.1429 0.0476  plane waves:     131
 k-point 135 :   0.3810 0.1429 0.0476  plane waves:     130
 k-point 136 :   0.4286 0.1429 0.0476  plane waves:     128
 k-point 137 :   0.4762 0.1429 0.0476  plane waves:     124
 k-point 138 :  -0.4762 0.1429 0.0476  plane waves:     123
 k-point 139 :  -0.4286 0.1429 0.0476  plane waves:     124
 k-point 140 :  -0.3810 0.1429 0.0476  plane waves:     126
 k-point 141 :  -0.3333 0.1429 0.0476  plane waves:     126
 k-point 142 :  -0.2857 0.1429 0.0476  plane waves:     131
 k-point 143 :  -0.2381 0.1429 0.0476  plane waves:     130
 k-point 144 :  -0.1905 0.1429 0.0476  plane waves:     132
 k-point 145 :  -0.1429 0.1429 0.0476  plane waves:     133
 k-point 146 :  -0.0952 0.1429 0.0476  plane waves:     129
 k-point 147 :   0.2381 0.1905 0.0476  plane waves:     129
 k-point 148 :   0.2857 0.1905 0.0476  plane waves:     131
 k-point 149 :   0.3333 0.1905 0.0476  plane waves:     129
 k-point 150 :   0.3810 0.1905 0.0476  plane waves:     129
 k-point 151 :   0.4286 0.1905 0.0476  plane waves:     129
 k-point 152 :   0.4762 0.1905 0.0476  plane waves:     126
 k-point 153 :  -0.4762 0.1905 0.0476  plane waves:     123
 k-point 154 :  -0.4286 0.1905 0.0476  plane waves:     124
 k-point 155 :  -0.3810 0.1905 0.0476  plane waves:     126
 k-point 156 :  -0.3333 0.1905 0.0476  plane waves:     126
 k-point 157 :  -0.2857 0.1905 0.0476  plane waves:     128
 k-point 158 :  -0.2381 0.1905 0.0476  plane waves:     128
 k-point 159 :  -0.1905 0.1905 0.0476  plane waves:     130
 k-point 160 :  -0.1429 0.1905 0.0476  plane waves:     132
 k-point 161 :   0.2857 0.2381 0.0476  plane waves:     130
 k-point 162 :   0.3333 0.2381 0.0476  plane waves:     128
 k-point 163 :   0.3810 0.2381 0.0476  plane waves:     129
 k-point 164 :   0.4286 0.2381 0.0476  plane waves:     124
 k-point 165 :   0.4762 0.2381 0.0476  plane waves:     125
 k-point 166 :  -0.4762 0.2381 0.0476  plane waves:     122
 k-point 167 :  -0.4286 0.2381 0.0476  plane waves:     124
 k-point 168 :  -0.3810 0.2381 0.0476  plane waves:     125
 k-point 169 :  -0.3333 0.2381 0.0476  plane waves:     126
[...]
      2       7.3245      2.00000
      3       9.4365      1.86991
      4      11.2747      0.00000
      5      18.1911      0.00000
      6      20.1394      0.00000

 k-point   248 :      -0.3810    0.4286    0.0952
  band No.  band energies     occupation
      1       4.8699      2.00000
      2       6.6815      2.00000
      3       8.0778      2.00000
      4      11.4505      0.00000
      5      18.5172      0.00000
      6      21.7985      0.00000

 k-point   249 :      -0.3333    0.4286    0.0952
  band No.  band energies     occupation
      1       5.7999      2.00000
      2       6.1353      2.00000
      3       7.0528      2.00000
      4      11.7738      0.00000
      5      18.8865      0.00000
      6      23.6083      0.00000

 k-point   250 :      -0.4286    0.4762    0.0952
  band No.  band energies     occupation
      1       4.3847      2.00000
      2       6.2619      2.00000
      3      10.5038      0.19146
      4      11.2897      0.00000
      5      17.4781      0.00000
      6      18.8047      0.00000

 k-point   251 :      -0.3810    0.4762    0.0952
  band No.  band energies     occupation
      1       5.1460      2.00000
      2       5.8613      2.00000
      3       9.3464      1.93032
      4      11.1897      0.00000
      5      18.1126      0.00000
      6      20.0705      0.00000

 k-point   252 :       0.4286    0.2857    0.1429
  band No.  band energies     occupation
      1      -0.5163      2.00000
      2      10.8344     -0.22527
      3      11.5371      0.00000
      4      14.9992      0.00000
      5      21.1368      0.00000
      6      21.8798      0.00000

 k-point   253 :       0.4762    0.2857    0.1429
  band No.  band energies     occupation
      1       0.3095      2.00000
      2       9.3879      1.90846
      3      11.1992     -0.00172
      4      14.1545      0.00000
      5      21.3788      0.00000
      6      22.8265      0.00000

 k-point   254 :      -0.4762    0.2857    0.1429
  band No.  band energies     occupation
      1       1.2565      2.00000
      2       7.7967      2.00000
      3      11.2073     -0.06761
      4      13.4193      0.00000
      5      21.4259      0.00000
      6      23.4222      0.00000

 k-point   255 :      -0.4286    0.2857    0.1429
  band No.  band energies     occupation
      1       2.3182      2.00000
      2       6.2894      2.00000
      3      11.3344     -0.05891
      4      12.8153      0.00000
      5      21.5136      0.00000
      6      23.1845      0.00000

 k-point   256 :      -0.3810    0.2857    0.1429
  band No.  band energies     occupation
      1       3.4571      2.00000
      2       4.9253      2.00000
      3      11.5025     -0.00736
      4      12.4093      0.00000
      5      21.6005      0.00000
      6      22.9317      0.00000

 k-point   257 :       0.4762    0.3333    0.1429
  band No.  band energies     occupation
      1       0.5851      2.00000
      2      10.1882      0.77459
      3      10.8486     -0.00044
      4      12.8498      0.00000
      5      20.5057      0.00000
      6      21.3851      0.00000

 k-point   258 :      -0.4762    0.3333    0.1429
  band No.  band energies     occupation
      1       1.4895      2.00000
      2       8.8144      2.06686
      3      10.5719     -0.07207
      4      12.0728      0.00000
      5      20.8743      0.00000
      6      22.5138      0.00000

 k-point   259 :      -0.4286    0.3333    0.1429
  band No.  band energies     occupation
      1       2.5107      2.00000
      2       7.3034      2.00000
      3      10.5597      0.03402
      4      11.4949      0.00000
      5      21.0499      0.00000
      6      23.7875      0.00000

 k-point   260 :      -0.3810    0.3333    0.1429
  band No.  band energies     occupation
      1       3.6330      2.00000
      2       5.8889      2.00000
      3      10.4055      0.25643
      4      11.3189      0.00000
      5      21.2810      0.00000
      6      24.1182      0.00000

 k-point   261 :      -0.3333    0.3333    0.1429
  band No.  band energies     occupation
      1       4.3386      2.00000
      2       5.1081      2.00000
      3      10.0798      0.73439
      4      11.5617      0.00000
      5      21.5872      0.00000
      6      23.8875      0.00000

 k-point   262 :      -0.2857    0.3333    0.1429
  band No.  band energies     occupation
      1       3.2499      2.00000
      2       6.3395      2.00000
      3       9.7934      1.17724
      4      12.0139      0.00000
      5      21.9562      0.00000
      6      23.6576      0.00000

 k-point   263 :      -0.2381    0.3333    0.1429
  band No.  band energies     occupation
      1       2.1568      2.00000
      2       7.7716      2.00000
      3       9.6296      1.40492
      4      12.6077      0.00000
      5      22.3134      0.00000
      6      23.4401      0.00000

 k-point   264 :      -0.1905    0.3333    0.1429
  band No.  band energies     occupation
      1       1.1738      2.00000
      2       9.0569      2.00830
      3       9.8346      0.58767
      4      13.3253      0.00000
      5      22.5746      0.00000
      6      22.7152      0.00000

 k-point   265 :      -0.4762    0.3810    0.1429
  band No.  band energies     occupation
      1       1.8471      2.00000
      2       9.7035      1.93402
      3      10.0286      0.47212
      4      11.0690      0.00000
      5      20.0356      0.00000
      6      20.9961      0.00000

 k-point   266 :      -0.4286    0.3810    0.1429
  band No.  band energies     occupation
      1       2.8254      2.00000
      2       8.3797      2.00000
      3       9.6146      1.71383
      4      10.6004     -0.01150
      5      20.5042      0.00000
      6      22.2330      0.00000

 k-point   267 :      -0.3810    0.3810    0.1429
  band No.  band energies     occupation
      1       3.9126      2.00000
      2       6.9622      2.00000
      3       9.1365      2.05521
      4      10.6332     -0.05486
      5      20.7686      0.00000
      6      23.8048      0.00000

 k-point   268 :      -0.3333    0.3810    0.1429
  band No.  band energies     occupation
      1       5.0038      2.00000
      2       5.7265      2.00000
      3       8.6847      2.07346
      4      10.9128     -0.08103
      5      21.0915      0.00000
      6      25.0116      0.00000

 k-point   269 :      -0.2857    0.3810    0.1429
  band No.  band energies     occupation
      1       4.2922      2.00000
      2       6.4815      2.00000
      3       8.3576      2.01726
      4      11.3486     -0.03682
      5      21.5041      0.00000
      6      25.1312      0.00000

 k-point   270 :      -0.2381    0.3810    0.1429
  band No.  band energies     occupation
      1       3.1735      2.00000
      2       7.5942      2.00000
      3       8.4099      2.00000
      4      11.9159      0.00000
      5      21.9762      0.00000
      6      24.6161      0.00000

 k-point   271 :      -0.4286    0.4286    0.1429
  band No.  band energies     occupation
      1       3.2613      2.00000
      2       8.4123      2.00000
      3       9.3795      2.04637
      4      10.3660     -0.00863
      5      19.7208      0.00000
      6      20.7292      0.00000

 k-point   272 :      -0.3810    0.4286    0.1429
  band No.  band energies     occupation
      1       4.3032      2.00000
      2       7.6660      2.00000
      3       8.3419      2.00000
      4      10.1840      0.14994
      5      20.2711      0.00000
      6      22.0446      0.00000

 k-point   273 :      -0.3333    0.4286    0.1429
  band No.  band energies     occupation
      1       5.4186      2.00000
      2       6.6689      2.00000
      3       7.5260      2.00000
      4      10.4154      0.12134
      5      20.6222      0.00000
      6      23.7484      0.00000

 k-point   274 :      -0.2857    0.4286    0.1429
  band No.  band energies     occupation
      1       5.4193      2.00000
      2       6.4530      2.00000
      3       7.3355      2.00000
      4      10.8135     -0.08694
      5      21.0241      0.00000
      6      25.3332      0.00000

 k-point   275 :      -0.3810    0.4762    0.1429
  band No.  band energies     occupation
      1       4.7918      2.00000
      2       6.6445      2.00000
      3       9.2167      2.01589
      4      10.1492      0.04614
      5      19.5501      0.00000
      6      20.5949      0.00000

 k-point   276 :      -0.3333    0.4762    0.1429
  band No.  band energies     occupation
      1       5.6363      2.00000
      2       6.2968      2.00000
      3       8.1726      2.00000
      4      10.0817      0.33397
      5      20.1982      0.00000
      6      21.9884      0.00000

 k-point   277 :      -0.4286    0.3810    0.1905
  band No.  band energies     occupation
      1       2.4297      2.00000
      2       8.5699      2.00000
      3       9.2906      2.00413
      4      11.2837     -0.00965
      5      22.2626      0.00000
      6      22.6254      0.00000

 k-point   278 :      -0.3810    0.3810    0.1905
  band No.  band energies     occupation
      1       3.4837      2.00000
      2       7.3593      2.00000
      3       9.1511      2.05820
      4      10.6545     -0.06656
      5      22.5339      0.00000
      6      23.6311      0.00000

 k-point   279 :      -0.3333    0.3810    0.1905
  band No.  band energies     occupation
      1       4.6191      2.00000
      2       6.0335      2.00000
      3       9.2907      2.04619
      4      10.2398      0.09146
      5      22.6140      0.00000
      6      23.8908      0.00000

 k-point   280 :      -0.3810    0.4286    0.1905
  band No.  band energies     occupation
      1       3.8357      2.00000
      2       8.2448      2.00000
      3       8.5952      2.00000
      4       9.6706      0.88085
      5      21.9549      0.00000
      6      22.5263      0.00000

 k-point   281 :      -0.3333    0.4286    0.1905
  band No.  band energies     occupation
      1       4.9453      2.00000
      2       7.0886      2.00000
      3       8.3285      2.00000
      4       9.3649      1.79872
      5      22.4344      0.00000
      6      23.8513      0.00000

 k-point   282 :      -0.2857    0.4286    0.1905
  band No.  band energies     occupation
      1       5.6661      2.00000
      2       6.3015      2.00000
      3       8.0399      2.00000
      4       9.5644      1.49724
      5      22.7416      0.00000
      6      24.7994      0.00000

 k-point   283 :      -0.2381    0.4286    0.1905
  band No.  band energies     occupation
      1       4.5649      2.00000
      2       7.2691      2.00000
      3       8.0248      2.00000
      4      10.0205      0.61555
      5      23.0137      0.00000
      6      24.3381      0.00000

 k-point   284 :      -0.3333    0.4762    0.1905
  band No.  band energies     occupation
      1       5.3560      2.00000
      2       7.1328      2.00000
      3       8.0822      2.00000
      4       9.1592      2.21701
      5      21.8005      0.00000
      6      22.4543      0.00000

 k-point   285 :      -0.2857    0.4762    0.1905
  band No.  band energies     occupation
      1       6.2900      2.00000
      2       6.6332      2.00000
      3       7.3569      2.00000
      4       9.1403      2.02321
      5      22.3981      0.00000
      6      23.8884      0.00000

 k-point   286 :      -0.2857    0.4762    0.2381
  band No.  band energies     occupation
      1       6.0564      2.00000
      2       7.1059      2.00000
      3       7.4600      2.00000
      4       8.6439      2.01190
      5      23.7776      0.00000
      6      24.1883      0.00000


--------------------------------------------------------------------------------------------------------


 soft charge-density along one line, spin component            1
         0         1         2         3         4         5         6         7         8         9
 total charge-density along one line

 pseudopotential strength for first ion, spin component:            1
 18.006  25.120   0.000   0.000  -0.000   0.000   0.000  -0.000
 25.120  35.049   0.000   0.000  -0.000   0.000   0.000  -0.000
  0.000   0.000   4.102  -0.000  -0.000   7.641  -0.000  -0.000
  0.000   0.000  -0.000   4.102  -0.000  -0.000   7.641  -0.000
 -0.000  -0.000  -0.000  -0.000   4.102  -0.000  -0.000   7.641
  0.000   0.000   7.641  -0.000  -0.000  14.245  -0.000  -0.000
  0.000   0.000  -0.000   7.641  -0.000  -0.000  14.245  -0.000
 -0.000  -0.000  -0.000  -0.000   7.641  -0.000  -0.000  14.245
 total augmentation occupancy for first ion, spin component:            1
  5.187  -2.130   0.000   0.000   0.000   0.000   0.000   0.000
 -2.130   1.293   0.000   0.000   0.000   0.000   0.000   0.000
  0.000   0.000   2.588  -0.000   0.000  -0.662   0.000  -0.000
  0.000   0.000  -0.000   2.588   0.000   0.000  -0.662  -0.000
  0.000   0.000   0.000   0.000   2.588  -0.000   0.000  -0.662
  0.000   0.000  -0.662  -0.000  -0.000   0.182  -0.000   0.000
  0.000   0.000   0.000  -0.662   0.000  -0.000   0.182  -0.000
  0.000   0.000   0.000  -0.000  -0.662   0.000  -0.000   0.182


------------------------ aborting loop because EDIFF is reached ----------------------------------------





 total charge

# of ion       s       p       d       tot
------------------------------------------
    1        0.853   0.699   0.000   1.552

    CHARGE:  cpu time      0.9125: real time      0.0380
    FORLOC:  cpu time      0.0001: real time      0.0000
    FORNL :  cpu time      0.2919: real time      0.0129
    STRESS:  cpu time      3.3486: real time      0.1403
    FORCOR:  cpu time      0.0230: real time      0.0010
    FORHAR:  cpu time      0.0110: real time      0.0005
    MIXING:  cpu time      0.0032: real time      0.0001
    OFIELD:  cpu time      0.0000: real time      0.0000

  FORCE on cell =-STRESS in cart. coord.  units (eV):
  Direction    XX          YY          ZZ          XY          YZ          ZX
  --------------------------------------------------------------------------------------
  Alpha Z     2.26997     2.26997     2.26997
  Ewald     -45.14259   -45.14259   -45.14259    -0.00000     0.00000    -0.00000
  Hartree     0.16347     0.16347     0.16347    -0.00000    -0.00000    -0.00000
  E(xc)     -12.63342   -12.63341   -12.63342    -0.00000    -0.00000    -0.00000
  Local      -5.27201    -5.27201    -5.27201     0.00003     0.00003     0.00004
  n-local    39.05356    37.19515    39.32938    -0.58117     0.56874     0.94035
  augment    -6.30537    -6.30537    -6.30537    -0.00005    -0.00005    -0.00005
  Kinetic    20.75452    39.56142    24.28332     9.92591    -8.52651   -16.23761
  Fock        0.00000     0.00000     0.00000     0.00000     0.00000     0.00000
  -------------------------------------------------------------------------------------
  Total      -0.19415    -0.19415    -0.19415     0.00000     0.00000     0.00000
  in kB     -20.97586   -20.97586   -20.97586     0.00000     0.00000     0.00000
  external pressure =      -20.98 kB  Pullay stress =        0.00 kB


 VOLUME and BASIS-vectors are now :
 -----------------------------------------------------------------------------
  energy-cutoff  :      240.00
  volume of cell :       14.83
      direct lattice vectors                 reciprocal lattice vectors
     1.950000000  1.950000000  0.000000000     0.256410256  0.256410256 -0.256410256
     0.000000000  1.950000000  1.950000000    -0.256410256  0.256410256  0.256410256
     1.950000000  0.000000000  1.950000000     0.256410256 -0.256410256  0.256410256

  length of vectors
     2.757716447  2.757716447  2.757716447     0.444115592  0.444115592  0.444115592


 FORCES acting on ions
    electron-ion (+dipol)            ewald-force                    non-local-force                 convergence-correction
 -----------------------------------------------------------------------------------------------
   0.000E+00 0.000E+00 0.000E+00   0.349E-16 0.215E-15 -.250E-15   0.000E+00 0.000E+00 0.000E+00   0.000E+00 0.000E+00 0.000E+00
 -----------------------------------------------------------------------------------------------
   0.000E+00 0.000E+00 0.000E+00   0.349E-16 0.215E-15 -.250E-15   0.000E+00 0.000E+00 0.000E+00   0.000E+00 0.000E+00 0.000E+00


 POSITION                                       TOTAL-FORCE (eV/Angst)
 -----------------------------------------------------------------------------------
      0.00000      0.00000      0.00000         0.000000     -0.000000      0.000000
 -----------------------------------------------------------------------------------
    total drift:                                0.000000      0.000000     -0.000000


--------------------------------------------------------------------------------------------------------



  FREE ENERGIE OF THE ION-ELECTRON SYSTEM (eV)
  ---------------------------------------------------
  free  energy   TOTEN  =        -4.86639539 eV

  energy  without entropy=       -4.86639539  energy(sigma->0) =       -4.86639539



--------------------------------------------------------------------------------------------------------


    POTLOK:  cpu time      0.0460: real time      0.0019


--------------------------------------------------------------------------------------------------------


 writing wavefunctions
     LOOP+:  cpu time    268.8806: real time     11.2158
 -----------------------------------------------------------------------------
|                                                                             |
|           W    W    AA    RRRRR   N    N  II  N    N   GGGG   !!!           |
|           W    W   A  A   R    R  NN   N  II  NN   N  G    G  !!!           |
|           W    W  A    A  R    R  N N  N  II  N N  N  G       !!!           |
|           W WW W  AAAAAA  RRRRR   N  N N  II  N  N N  G  GGG   !            |
|           WW  WW  A    A  R   R   N   NN  II  N   NN  G    G                |
|           W    W  A    A  R    R  N    N  II  N    N   GGGG   !!!           |
|                                                                             |
|     Tetrahedron method does not include variations of the Fermi             |
|     occupations, so forces and stress will be inaccurate. We suggest        |
|     using a different smearing scheme ISMEAR = 1 or 2 for metals in         |
|     relaxations.                                                            |
|                                                                             |
 -----------------------------------------------------------------------------

    4ORBIT:  cpu time      0.0001: real time      0.0000



 total charge

# of ion       s       p       d       tot
------------------------------------------
    1        0.853   0.699   0.000   1.552

 BZINTS: Fermi energy:    9.895103;    4.000000 electrons
         Band energy: 0.169525E+02;  BLOECHL correction:   -0.059722

 total amount of memory used by VASP MPI-rank0    37240. kBytes
=======================================================================

   base      :      30000. kBytes
   nonl-proj :       2509. kBytes
   fftplans  :        296. kBytes
   grid      :        451. kBytes
   one-center:          3. kBytes
   wavefun   :       3981. kBytes



 General timing and accounting informations for this job:
 ========================================================

                  Total CPU time used (sec):      284.773
                            User time (sec):      281.142
                          System time (sec):        3.631
                         Elapsed time (sec):       11.927

                   Maximum memory used (kb):       72932.
                   Average memory used (kb):          N/A

                          Minor page faults:         7029
                          Major page faults:           51
                 Voluntary context switches:         3484
