PROCAR lm decomposed
# of k-points:  286         # of bands:    6         # of ions:    1

 k-point     1 :    0.00000000 0.00000000 0.00000000     weight = 0.00010798

band     1 # energy   -4.37837584 # occ.  2.00000000

ion      s     py     pz     px    dxy    dyz    dz2    dxz  x2-y2    tot
    1  0.384  0.000  0.000  0.000  0.000  0.000  0.000  0.000  0.000  0.384

band     2 # energy   20.69467653 # occ.  0.00000000

ion      s     py     pz     px    dxy    dyz    dz2    dxz  x2-y2    tot
    1  0.000  0.225  0.229  0.224  0.000  0.000  0.000  0.000  0.000  0.677

band     3 # energy   20.69485687 # occ.  0.00000000

ion      s     py     pz     px    dxy    dyz    dz2    dxz  x2-y2    tot
    1  0.000  0.356  0.004  0.318  0.000  0.000  0.000  0.000  0.000  0.677

band     4 # energy   20.69485889 # occ.  0.00000000

ion      s     py     pz     px    dxy    dyz    dz2    dxz  x2-y2    tot
    1  0.000  0.097  0.445  0.136  0.000  0.000  0.000  0.000  0.000  0.678

band     5 # energy   21.77099882 # occ.  0.00000000

ion      s     py     pz     px    dxy    dyz    dz2    dxz  x2-y2    tot
    1  0.000  0.000  0.000  0.000  0.000  0.000  0.000  0.000  0.000  0.000

band     6 # energy   21.77109980 # occ.  0.00000000

ion      s     py     pz     px    dxy    dyz    dz2    dxz  x2-y2    tot
    1  0.000  0.000  0.000  0.000  0.000  0.000  0.000  0.000  0.000  0.000


 k-point     2 :    0.04761905 0.00000000 0.00000000     weight = 0.00086384

band     1 # energy   -4.31315804 # occ.  2.00000000

ion      s     py     pz     px    dxy    dyz    dz2    dxz  x2-y2    tot
    1  0.383  0.001  0.001  0.001  0.000  0.000  0.000  0.000  0.000  0.385

band     2 # energy   19.44908441 # occ.  0.00000000

ion      s     py     pz     px    dxy    dyz    dz2    dxz  x2-y2    tot
    1  0.009  0.145  0.144  0.145  0.000  0.000  0.000  0.000  0.000  0.442

band     3 # energy   20.34205385 # occ.  0.00000000

ion      s     py     pz     px    dxy    dyz    dz2    dxz  x2-y2    tot
    1  0.000  0.092  0.365  0.091  0.000  0.000  0.000  0.000  0.000  0.548

band     4 # energy   20.34222196 # occ.  0.00000000

ion      s     py     pz     px    dxy    dyz    dz2    dxz  x2-y2    tot
    1  0.000  0.274  0.000  0.274  0.000  0.000  0.000  0.000  0.000  0.548

band     5 # energy   22.23904849 # occ.  0.00000000

ion      s     py     pz     px    dxy    dyz    dz2    dxz  x2-y2    tot
    1  0.000  0.022  0.089  0.022  0.000  0.000  0.000  0.000  0.000  0.134

band     6 # energy   22.23916242 # occ.  0.00000000

ion      s     py     pz     px    dxy    dyz    dz2    dxz  x2-y2    tot
    1  0.000  0.067  0.000  0.067  0.000  0.000  0.000  0.000  0.000  0.134


 k-point     3 :    0.09523810 0.00000000 0.00000000     weight = 0.00086384

band     1 # energy   -4.11839131 # occ.  2.00000000

ion      s     py     pz     px    dxy    dyz    dz2    dxz  x2-y2    tot
    1  0.379  0.002  0.002  0.002  0.000  0.000  0.000  0.000  0.000  0.385

band     2 # energy   17.54374520 # occ.  0.00000000

ion      s     py     pz     px    dxy    dyz    dz2    dxz  x2-y2    tot
    1  0.024  0.119  0.119  0.119  0.000  0.000  0.000  0.000  0.000  0.381

band     3 # energy   19.79438735 # occ.  0.00000000

ion      s     py     pz     px    dxy    dyz    dz2    dxz  x2-y2    tot
    1  0.000  0.081  0.323  0.081  0.000  0.000  0.000  0.000  0.000  0.485

band     4 # energy   19.79455604 # occ.  0.00000000

ion      s     py     pz     px    dxy    dyz    dz2    dxz  x2-y2    tot
    1  0.000  0.242  0.000  0.243  0.000  0.000  0.000  0.000  0.000  0.485

band     5 # energy   22.87734485 # occ.  0.00000000

ion      s     py     pz     px    dxy    dyz    dz2    dxz  x2-y2    tot
    1  0.031  0.079  0.082  0.076  0.000  0.000  0.000  0.000  0.000  0.268

band     6 # energy   22.99963277 # occ.  0.00000000

ion      s     py     pz     px    dxy    dyz    dz2    dxz  x2-y2    tot
    1  0.000  0.128  0.037  0.040  0.000  0.000  0.000  0.000  0.000  0.205


 k-point     4 :    0.14285714 0.00000000 0.00000000     weight = 0.00086384

band     1 # energy   -3.79423262 # occ.  2.00000000

ion      s     py     pz     px    dxy    dyz    dz2    dxz  x2-y2    tot
    1  0.372  0.005  0.005  0.005  0.000  0.000  0.000  0.000  0.000  0.386

band     2 # energy   15.54204645 # occ.  0.00000000

ion      s     py     pz     px    dxy    dyz    dz2    dxz  x2-y2    tot
    1  0.042  0.107  0.107  0.107  0.000  0.000  0.000  0.000  0.000  0.364

band     3 # energy   19.29847553 # occ.  0.00000000

ion      s     py     pz     px    dxy    dyz    dz2    dxz  x2-y2    tot
    1  0.000  0.079  0.313  0.078  0.000  0.000  0.000  0.000  0.000  0.470

band     4 # energy   19.29864656 # occ.  0.00000000

ion      s     py     pz     px    dxy    dyz    dz2    dxz  x2-y2    tot
    1  0.000  0.235  0.000  0.235  0.000  0.000  0.000  0.000  0.000  0.470

band     5 # energy   22.94799410 # occ.  0.00000000

ion      s     py     pz     px    dxy    dyz    dz2    dxz  x2-y2    tot
    1  0.065  0.065  0.065  0.065  0.000  0.000  0.000  0.000  0.000  0.261

band     6 # energy   23.69813363 # occ.  0.00000000

ion      s     py     pz     px    dxy    dyz    dz2    dxz  x2-y2    tot
    1  0.000  0.146  0.070  0.014  0.000  0.000  0.000  0.000  0.000  0.230


 k-point     5 :    0.19047619 0.00000000 0.00000000     weight = 0.00086384

band     1 # energy   -3.34142052 # occ.  2.00000000

ion      s     py     pz     px    dxy    dyz    dz2    dxz  x2-y2    tot
    1  0.362  0.008  0.008  0.008  0.000  0.000  0.000  0.000  0.000  0.387

band     2 # energy   13.54791622 # occ.  0.00000000

ion      s     py     pz     px    dxy    dyz    dz2    dxz  x2-y2    tot
    1  0.062  0.099  0.099  0.099  0.000  0.000  0.000  0.000  0.000  0.358

band     3 # energy   18.89127214 # occ.  0.00000000

ion      s     py     pz     px    dxy    dyz    dz2    dxz  x2-y2    tot
    1  0.000  0.079  0.315  0.079  0.000  0.000  0.000  0.000  0.000  0.473

band     4 # energy   18.89144601 # occ.  0.00000000

ion      s     py     pz     px    dxy    dyz    dz2    dxz  x2-y2    tot
    1  0.000  0.236  0.000  0.237  0.000  0.000  0.000  0.000  0.000  0.473

band     5 # energy   22.88336624 # occ.  0.00000000

ion      s     py     pz     px    dxy    dyz    dz2    dxz  x2-y2    tot
    1  0.102  0.050  0.050  0.050  0.000  0.000  0.000  0.000  0.000  0.251

band     6 # energy   23.88307714 # occ.  0.00000000

ion      s     py     pz     px    dxy    dyz    dz2    dxz  x2-y2    tot
    1  0.000  0.049  0.134  0.021  0.000  0.000  0.000  0.000  0.000  0.204


 k-point     6 :    0.23809524 0.00000000 0.00000000     weight = 0.00086384

band     1 # energy   -2.76086272 # occ.  2.00000000

ion      s     py     pz     px    dxy    dyz    dz2    dxz  x2-y2    tot
    1  0.349  0.013  0.013  0.013  0.000  0.000  0.000  0.000  0.000  0.388

band     2 # energy   11.61631261 # occ. -0.00563405

ion      s     py     pz     px    dxy    dyz    dz2    dxz  x2-y2    tot
    1  0.081  0.093  0.093  0.093  0.000  0.000  0.000  0.000  0.000  0.359

band     3 # energy   18.57999490 # occ.  0.00000000

ion      s     py     pz     px    dxy    dyz    dz2    dxz  x2-y2    tot
    1  0.000  0.081  0.323  0.081  0.000  0.000  0.000  0.000  0.000  0.485

band     4 # energy   18.58016965 # occ.  0.00000000

ion      s     py     pz     px    dxy    dyz    dz2    dxz  x2-y2    tot
    1  0.000  0.243  0.000  0.243  0.000  0.000  0.000  0.000  0.000  0.485

band     5 # energy   22.80129832 # occ.  0.00000000

ion      s     py     pz     px    dxy    dyz    dz2    dxz  x2-y2    tot
    1  0.136  0.035  0.035  0.035  0.000  0.000  0.000  0.000  0.000  0.242

band     6 # energy   23.39367344 # occ.  0.00000000

ion      s     py     pz     px    dxy    dyz    dz2    dxz  x2-y2    tot
    1  0.000  0.012  0.080  0.058  0.000  0.000  0.000  0.000  0.000  0.150


 k-point     7 :    0.28571429 0.00000000 0.00000000     weight = 0.00086384

band     1 # energy   -2.05384776 # occ.  2.00000000

ion      s     py     pz     px    dxy    dyz    dz2    dxz  x2-y2    tot
    1  0.336  0.018  0.018  0.018  0.000  0.000  0.000  0.000  0.000  0.389

band     2 # energy    9.76762148 # occ.  1.15493283

ion      s     py     pz     px    dxy    dyz    dz2    dxz  x2-y2    tot
    1  0.102  0.087  0.087  0.087  0.000  0.000  0.000  0.000  0.000  0.363

band     3 # energy   18.36339993 # occ.  0.00000000

ion      s     py     pz     px    dxy    dyz    dz2    dxz  x2-y2    tot
    1  0.000  0.084  0.336  0.084  0.000  0.000  0.000  0.000  0.000  0.504

band     4 # energy   18.36357227 # occ.  0.00000000

ion      s     py     pz     px    dxy    dyz    dz2    dxz  x2-y2    tot
    1  0.000  0.252  0.000  0.252  0.000  0.000  0.000  0.000  0.000  0.504

band     5 # energy   22.68934673 # occ.  0.00000000

ion      s     py     pz     px    dxy    dyz    dz2    dxz  x2-y2    tot
    1  0.000  0.054  0.058  0.003  0.000  0.000  0.000  0.000  0.000  0.116

band     6 # energy   22.69910851 # occ.  0.00000000

ion      s     py     pz     px    dxy    dyz    dz2    dxz  x2-y2    tot
    1  0.004  0.016  0.013  0.084  0.000  0.000  0.000  0.000  0.000  0.118


 k-point     8 :    0.33333333 0.00000000 0.00000000     weight = 0.00086384

band     1 # energy   -1.22127052 # occ.  2.00000000

ion      s     py     pz     px    dxy    dyz    dz2    dxz  x2-y2    tot
    1  0.322  0.024  0.024  0.024  0.000  0.000  0.000  0.000  0.000  0.393

band     2 # energy    8.01518551 # occ.  2.00000000

ion      s     py     pz     px    dxy    dyz    dz2    dxz  x2-y2    tot
    1  0.122  0.081  0.081  0.081  0.000  0.000  0.000  0.000  0.000  0.366

band     3 # energy   18.23834506 # occ.  0.00000000

ion      s     py     pz     px    dxy    dyz    dz2    dxz  x2-y2    tot
    1  0.000  0.089  0.353  0.088  0.000  0.000  0.000  0.000  0.000  0.530

band     4 # energy   18.23849730 # occ.  0.00000000

ion      s     py     pz     px    dxy    dyz    dz2    dxz  x2-y2    tot
    1  0.000  0.265  0.000  0.265  0.000  0.000  0.000  0.000  0.000  0.530

band     5 # energy   22.00278677 # occ.  0.00000000

ion      s     py     pz     px    dxy    dyz    dz2    dxz  x2-y2    tot
    1  0.000  0.014  0.056  0.014  0.000  0.000  0.000  0.000  0.000  0.084

band     6 # energy   22.00334943 # occ.  0.00000000

ion      s     py     pz     px    dxy    dyz    dz2    dxz  x2-y2    tot
    1  0.000  0.042  0.000  0.042  0.000  0.000  0.000  0.000  0.000  0.084


 k-point     9 :    0.38095238 0.00000000 0.00000000     weight = 0.00086384

band     1 # energy   -0.26693325 # occ.  2.00000000

ion      s     py     pz     px    dxy    dyz    dz2    dxz  x2-y2    tot
    1  0.309  0.029  0.029  0.029  0.000  0.000  0.000  0.000  0.000  0.396

band     2 # energy    6.36560773 # occ.  2.00000000

ion      s     py     pz     px    dxy    dyz    dz2    dxz  x2-y2    tot
    1  0.140  0.076  0.076  0.076  0.000  0.000  0.000  0.000  0.000  0.369

band     3 # energy   18.18233584 # occ.  0.00000000

ion      s     py     pz     px    dxy    dyz    dz2    dxz  x2-y2    tot
    1  0.000  0.094  0.374  0.093  0.000  0.000  0.000  0.000  0.000  0.560

band     4 # energy   18.18247681 # occ.  0.00000000

ion      s     py     pz     px    dxy    dyz    dz2    dxz  x2-y2    tot
    1  0.000  0.280  0.000  0.281  0.000  0.000  0.000  0.000  0.000  0.561

band     5 # energy   21.42099185 # occ.  0.00000000

ion      s     py     pz     px    dxy    dyz    dz2    dxz  x2-y2    tot
    1  0.000  0.009  0.037  0.009  0.000  0.000  0.000  0.000  0.000  0.055

band     6 # energy   21.42155091 # occ.  0.00000000

ion      s     py     pz     px    dxy    dyz    dz2    dxz  x2-y2    tot
    1  0.000  0.028  0.000  0.028  0.000  0.000  0.000  0.000  0.000  0.055


 k-point    10 :    0.42857143 0.00000000 0.00000000     weight = 0.00086384

band     1 # energy    0.80139765 # occ.  2.00000000

ion      s     py     pz     px    dxy    dyz    dz2    dxz  x2-y2    tot
    1  0.303  0.032  0.032  0.032  0.000  0.000  0.000  0.000  0.000  0.400

band     2 # energy    4.83088117 # occ.  2.00000000

ion      s     py     pz     px    dxy    dyz    dz2    dxz  x2-y2    tot
    1  0.149  0.073  0.073  0.073  0.000  0.000  0.000  0.000  0.000  0.368

band     3 # energy   18.17615743 # occ.  0.00000000

ion      s     py     pz     px    dxy    dyz    dz2    dxz  x2-y2    tot
    1  0.000  0.099  0.395  0.099  0.000  0.000  0.000  0.000  0.000  0.593

band     4 # energy   18.17628311 # occ.  0.00000000

ion      s     py     pz     px    dxy    dyz    dz2    dxz  x2-y2    tot
    1  0.000  0.296  0.000  0.297  0.000  0.000  0.000  0.000  0.000  0.593

band     5 # energy   20.99356848 # occ.  0.00000000

ion      s     py     pz     px    dxy    dyz    dz2    dxz  x2-y2    tot
    1  0.000  0.004  0.017  0.004  0.000  0.000  0.000  0.000  0.000  0.025

band     6 # energy   20.99413316 # occ.  0.00000000

ion      s     py     pz     px    dxy    dyz    dz2    dxz  x2-y2    tot
    1  0.000  0.013  0.000  0.013  0.000  0.000  0.000  0.000  0.000  0.025


 k-point    11 :    0.47619048 0.00000000 0.00000000     weight = 0.00086384

band     1 # energy    1.94161673 # occ.  2.00000000

ion      s     py     pz     px    dxy    dyz    dz2    dxz  x2-y2    tot
    1  0.349  0.024  0.024  0.024  0.000  0.000  0.000  0.000  0.000  0.420

band     2 # energy    3.45746116 # occ.  2.00000000

ion      s     py     pz     px    dxy    dyz    dz2    dxz  x2-y2    tot
    1  0.105  0.082  0.082  0.082  0.000  0.000  0.000  0.000  0.000  0.351

band     3 # energy   18.18720963 # occ.  0.00000000

ion      s     py     pz     px    dxy    dyz    dz2    dxz  x2-y2    tot
    1  0.000  0.103  0.411  0.102  0.000  0.000  0.000  0.000  0.000  0.616

band     4 # energy   18.18732661 # occ.  0.00000000

ion      s     py     pz     px    dxy    dyz    dz2    dxz  x2-y2    tot
    1  0.000  0.308  0.000  0.308  0.000  0.000  0.000  0.000  0.000  0.616

band     5 # energy   20.76400480 # occ.  0.00000000

ion      s     py     pz     px    dxy    dyz    dz2    dxz  x2-y2    tot
    1  0.000  0.001  0.002  0.001  0.000  0.000  0.000  0.000  0.000  0.003

band     6 # energy   20.76457489 # occ.  0.00000000

ion      s     py     pz     px    dxy    dyz    dz2    dxz  x2-y2    tot
    1  0.000  0.002  0.000  0.002  0.000  0.000  0.000  0.000  0.000  0.003


 k-point    12 :    0.04761905 0.04761905 0.00000000     weight = 0.00064788

band     1 # energy   -4.29141867 # occ.  2.00000000

ion      s     py     pz     px    dxy    dyz    dz2    dxz  x2-y2    tot
    1  0.383  0.002  0.000  0.000  0.000  0.000  0.000  0.000  0.000  0.385

band     2 # energy   19.69014938 # occ.  0.00000000

ion      s     py     pz     px    dxy    dyz    dz2    dxz  x2-y2    tot
    1  0.000  0.000  0.232  0.235  0.000  0.000  0.000  0.000  0.000  0.467

band     3 # energy   19.69026771 # occ.  0.00000000

ion      s     py     pz     px    dxy    dyz    dz2    dxz  x2-y2    tot
    1  0.000  0.000  0.235  0.232  0.000  0.000  0.000  0.000  0.000  0.467

band     4 # energy   20.48597097 # occ.  0.00000000

ion      s     py     pz     px    dxy    dyz    dz2    dxz  x2-y2    tot
    1  0.020  0.658  0.000  0.000  0.000  0.000  0.000  0.000  0.000  0.678

band     5 # energy   21.29281483 # occ.  0.00000000

ion      s     py     pz     px    dxy    dyz    dz2    dxz  x2-y2    tot
    1  0.000  0.000  0.000  0.000  0.000  0.000  0.000  0.000  0.000  0.000

band     6 # energy   22.93308791 # occ.  0.00000000

ion      s     py     pz     px    dxy    dyz    dz2    dxz  x2-y2    tot
    1  0.000  0.000  0.003  0.210  0.000  0.000  0.000  0.000  0.000  0.214


 k-point    13 :    0.09523810 0.04761905 0.00000000     weight = 0.00259151

band     1 # energy   -4.13998610 # occ.  2.00000000

ion      s     py     pz     px    dxy    dyz    dz2    dxz  x2-y2    tot
    1  0.379  0.005  0.001  0.001  0.000  0.000  0.000  0.000  0.000  0.385

band     2 # energy   18.20030841 # occ.  0.00000000

ion      s     py     pz     px    dxy    dyz    dz2    dxz  x2-y2    tot
    1  0.015  0.074  0.154  0.154  0.000  0.000  0.000  0.000  0.000  0.397

band     3 # energy   19.06883327 # occ.  0.00000000

ion      s     py     pz     px    dxy    dyz    dz2    dxz  x2-y2    tot
    1  0.000  0.000  0.222  0.221  0.000  0.000  0.000  0.000  0.000  0.443

band     4 # energy   20.26272120 # occ.  0.00000000

ion      s     py     pz     px    dxy    dyz    dz2    dxz  x2-y2    tot
    1  0.023  0.483  0.027  0.027  0.000  0.000  0.000  0.000  0.000  0.561

band     5 # energy   21.43867650 # occ.  0.00000000

ion      s     py     pz     px    dxy    dyz    dz2    dxz  x2-y2    tot
    1  0.001  0.062  0.050  0.050  0.000  0.000  0.000  0.000  0.000  0.162

band     6 # energy   23.53562033 # occ.  0.00000000

ion      s     py     pz     px    dxy    dyz    dz2    dxz  x2-y2    tot
    1  0.012  0.018  0.099  0.100  0.000  0.000  0.000  0.000  0.000  0.230


 k-point    14 :    0.14285714 0.04761905 0.00000000     weight = 0.00259151

band     1 # energy   -3.85893433 # occ.  2.00000000

ion      s     py     pz     px    dxy    dyz    dz2    dxz  x2-y2    tot
    1  0.373  0.009  0.002  0.002  0.000  0.000  0.000  0.000  0.000  0.386

band     2 # energy   16.24822157 # occ.  0.00000000

ion      s     py     pz     px    dxy    dyz    dz2    dxz  x2-y2    tot
    1  0.034  0.083  0.126  0.126  0.000  0.000  0.000  0.000  0.000  0.368

band     3 # energy   18.53367897 # occ.  0.00000000

ion      s     py     pz     px    dxy    dyz    dz2    dxz  x2-y2    tot
    1  0.000  0.000  0.219  0.219  0.000  0.000  0.000  0.000  0.000  0.438

band     4 # energy   19.80882447 # occ.  0.00000000

ion      s     py     pz     px    dxy    dyz    dz2    dxz  x2-y2    tot
    1  0.026  0.409  0.029  0.029  0.000  0.000  0.000  0.000  0.000  0.492

band     5 # energy   22.10212927 # occ.  0.00000000

ion      s     py     pz     px    dxy    dyz    dz2    dxz  x2-y2    tot
    1  0.000  0.093  0.091  0.091  0.000  0.000  0.000  0.000  0.000  0.275

band     6 # energy   23.79422133 # occ.  0.00000000

ion      s     py     pz     px    dxy    dyz    dz2    dxz  x2-y2    tot
    1  0.040  0.035  0.065  0.065  0.000  0.000  0.000  0.000  0.000  0.204


 k-point    15 :    0.19047619 0.04761905 0.00000000     weight = 0.00259151

band     1 # energy   -3.44905489 # occ.  2.00000000

ion      s     py     pz     px    dxy    dyz    dz2    dxz  x2-y2    tot
    1  0.364  0.013  0.005  0.005  0.000  0.000  0.000  0.000  0.000  0.387

band     2 # energy   14.25163794 # occ.  0.00000000

ion      s     py     pz     px    dxy    dyz    dz2    dxz  x2-y2    tot
    1  0.053  0.081  0.112  0.112  0.000  0.000  0.000  0.000  0.000  0.358

band     3 # energy   18.09825038 # occ.  0.00000000

ion      s     py     pz     px    dxy    dyz    dz2    dxz  x2-y2    tot
    1  0.000  0.000  0.221  0.221  0.000  0.000  0.000  0.000  0.000  0.442

band     4 # energy   19.37336470 # occ.  0.00000000

ion      s     py     pz     px    dxy    dyz    dz2    dxz  x2-y2    tot
    1  0.029  0.388  0.035  0.035  0.000  0.000  0.000  0.000  0.000  0.487

band     5 # energy   22.50326787 # occ.  0.00000000

ion      s     py     pz     px    dxy    dyz    dz2    dxz  x2-y2    tot
    1  0.005  0.090  0.095  0.095  0.000  0.000  0.000  0.000  0.000  0.286

band     6 # energy   23.77114248 # occ.  0.00000000

ion      s     py     pz     px    dxy    dyz    dz2    dxz  x2-y2    tot
    1  0.059  0.037  0.044  0.044  0.000  0.000  0.000  0.000  0.000  0.185


 k-point    16 :    0.23809524 0.04761905 0.00000000     weight = 0.00259151

band     1 # energy   -2.91107456 # occ.  2.00000000

ion      s     py     pz     px    dxy    dyz    dz2    dxz  x2-y2    tot
    1  0.353  0.019  0.008  0.008  0.000  0.000  0.000  0.000  0.000  0.388

band     2 # energy   12.30285200 # occ.  0.00000000

ion      s     py     pz     px    dxy    dyz    dz2    dxz  x2-y2    tot
    1  0.073  0.077  0.104  0.104  0.000  0.000  0.000  0.000  0.000  0.359

band     3 # energy   17.76757951 # occ.  0.00000000

ion      s     py     pz     px    dxy    dyz    dz2    dxz  x2-y2    tot
    1  0.000  0.000  0.225  0.225  0.000  0.000  0.000  0.000  0.000  0.450

band     4 # energy   19.00472269 # occ.  0.00000000

ion      s     py     pz     px    dxy    dyz    dz2    dxz  x2-y2    tot
    1  0.033  0.383  0.043  0.043  0.000  0.000  0.000  0.000  0.000  0.502

band     5 # energy   22.32055700 # occ.  0.00000000

ion      s     py     pz     px    dxy    dyz    dz2    dxz  x2-y2    tot
    1  0.006  0.081  0.050  0.050  0.000  0.000  0.000  0.000  0.000  0.188

band     6 # energy   23.52530653 # occ.  0.00000000

ion      s     py     pz     px    dxy    dyz    dz2    dxz  x2-y2    tot
    1  0.085  0.007  0.060  0.061  0.000  0.000  0.000  0.000  0.000  0.213


 k-point    17 :    0.28571429 0.04761905 0.00000000     weight = 0.00259151

band     1 # energy   -2.24624391 # occ.  2.00000000

ion      s     py     pz     px    dxy    dyz    dz2    dxz  x2-y2    tot
    1  0.339  0.025  0.013  0.013  0.000  0.000  0.000  0.000  0.000  0.389

band     2 # energy   10.42604602 # occ.  0.22315470

ion      s     py     pz     px    dxy    dyz    dz2    dxz  x2-y2    tot
    1  0.094  0.073  0.097  0.097  0.000  0.000  0.000  0.000  0.000  0.361

band     3 # energy   17.54153674 # occ.  0.00000000

ion      s     py     pz     px    dxy    dyz    dz2    dxz  x2-y2    tot
    1  0.000  0.000  0.230  0.230  0.000  0.000  0.000  0.000  0.000  0.460

band     4 # energy   18.70158816 # occ.  0.00000000

ion      s     py     pz     px    dxy    dyz    dz2    dxz  x2-y2    tot
    1  0.035  0.388  0.053  0.053  0.000  0.000  0.000  0.000  0.000  0.528

band     5 # energy   21.72754456 # occ.  0.00000000

ion      s     py     pz     px    dxy    dyz    dz2    dxz  x2-y2    tot
    1  0.003  0.056  0.018  0.018  0.000  0.000  0.000  0.000  0.000  0.095

band     6 # energy   23.37591331 # occ.  0.00000000

ion      s     py     pz     px    dxy    dyz    dz2    dxz  x2-y2    tot
    1  0.120  0.000  0.063  0.063  0.000  0.000  0.000  0.000  0.000  0.247


 k-point    18 :    0.33333333 0.04761905 0.00000000     weight = 0.00259151

band     1 # energy   -1.45578540 # occ.  2.00000000

ion      s     py     pz     px    dxy    dyz    dz2    dxz  x2-y2    tot
    1  0.325  0.032  0.017  0.017  0.000  0.000  0.000  0.000  0.000  0.391

band     2 # energy    8.64063690 # occ.  2.11924425

ion      s     py     pz     px    dxy    dyz    dz2    dxz  x2-y2    tot
    1  0.115  0.069  0.091  0.091  0.000  0.000  0.000  0.000  0.000  0.366

band     3 # energy   17.42206402 # occ.  0.00000000

ion      s     py     pz     px    dxy    dyz    dz2    dxz  x2-y2    tot
    1  0.000  0.000  0.236  0.236  0.000  0.000  0.000  0.000  0.000  0.472

band     4 # energy   18.44580834 # occ.  0.00000000

ion      s     py     pz     px    dxy    dyz    dz2    dxz  x2-y2    tot
    1  0.036  0.397  0.063  0.063  0.000  0.000  0.000  0.000  0.000  0.560

band     5 # energy   21.11519151 # occ.  0.00000000

ion      s     py     pz     px    dxy    dyz    dz2    dxz  x2-y2    tot
    1  0.003  0.028  0.006  0.006  0.000  0.000  0.000  0.000  0.000  0.043

band     6 # energy   23.14352881 # occ.  0.00000000

ion      s     py     pz     px    dxy    dyz    dz2    dxz  x2-y2    tot
    1  0.000  0.000  0.068  0.074  0.000  0.000  0.000  0.000  0.000  0.142


 k-point    19 :    0.38095238 0.04761905 0.00000000     weight = 0.00259151

band     1 # energy   -0.54151544 # occ.  2.00000000

ion      s     py     pz     px    dxy    dyz    dz2    dxz  x2-y2    tot
    1  0.312  0.038  0.022  0.022  0.000  0.000  0.000  0.000  0.000  0.395

band     2 # energy    6.95677416 # occ.  2.00000000

ion      s     py     pz     px    dxy    dyz    dz2    dxz  x2-y2    tot
    1  0.134  0.064  0.085  0.085  0.000  0.000  0.000  0.000  0.000  0.368

band     3 # energy   17.40341733 # occ.  0.00000000

ion      s     py     pz     px    dxy    dyz    dz2    dxz  x2-y2    tot
    1  0.000  0.000  0.244  0.244  0.000  0.000  0.000  0.000  0.000  0.488

band     4 # energy   18.20570087 # occ.  0.00000000

ion      s     py     pz     px    dxy    dyz    dz2    dxz  x2-y2    tot
    1  0.036  0.404  0.073  0.073  0.000  0.000  0.000  0.000  0.000  0.585

band     5 # energy   20.65321665 # occ.  0.00000000

ion      s     py     pz     px    dxy    dyz    dz2    dxz  x2-y2    tot
    1  0.004  0.007  0.001  0.001  0.000  0.000  0.000  0.000  0.000  0.012

band     6 # energy   22.45740178 # occ.  0.00000000

ion      s     py     pz     px    dxy    dyz    dz2    dxz  x2-y2    tot
    1  0.000  0.000  0.063  0.063  0.000  0.000  0.000  0.000  0.000  0.125


 k-point    20 :    0.42857143 0.04761905 0.00000000     weight = 0.00259151

band     1 # energy    0.48995529 # occ.  2.00000000

ion      s     py     pz     px    dxy    dyz    dz2    dxz  x2-y2    tot
    1  0.302  0.043  0.026  0.026  0.000  0.000  0.000  0.000  0.000  0.398

band     2 # energy    5.38281385 # occ.  2.00000000

ion      s     py     pz     px    dxy    dyz    dz2    dxz  x2-y2    tot
    1  0.147  0.061  0.080  0.080  0.000  0.000  0.000  0.000  0.000  0.369

band     3 # energy   17.48135393 # occ.  0.00000000

ion      s     py     pz     px    dxy    dyz    dz2    dxz  x2-y2    tot
    1  0.000  0.000  0.254  0.254  0.000  0.000  0.000  0.000  0.000  0.507

band     4 # energy   17.94722732 # occ.  0.00000000

ion      s     py     pz     px    dxy    dyz    dz2    dxz  x2-y2    tot
    1  0.034  0.396  0.079  0.079  0.000  0.000  0.000  0.000  0.000  0.588

band     5 # energy   20.40717181 # occ.  0.00000000

ion      s     py     pz     px    dxy    dyz    dz2    dxz  x2-y2    tot
    1  0.006  0.000  0.001  0.001  0.000  0.000  0.000  0.000  0.000  0.009

band     6 # energy   21.88438576 # occ.  0.00000000

ion      s     py     pz     px    dxy    dyz    dz2    dxz  x2-y2    tot
    1  0.000  0.000  0.054  0.054  0.000  0.000  0.000  0.000  0.000  0.108


 k-point    21 :    0.47619048 0.04761905 0.00000000     weight = 0.00259151

band     1 # energy    1.62007141 # occ.  2.00000000

ion      s     py     pz     px    dxy    dyz    dz2    dxz  x2-y2    tot
    1  0.317  0.043  0.025  0.025  0.000  0.000  0.000  0.000  0.000  0.409

band     2 # energy    3.94188916 # occ.  2.00000000

ion      s     py     pz     px    dxy    dyz    dz2    dxz  x2-y2    tot
    1  0.135  0.063  0.082  0.082  0.000  0.000  0.000  0.000  0.000  0.361

band     3 # energy   17.64596148 # occ.  0.00000000

ion      s     py     pz     px    dxy    dyz    dz2    dxz  x2-y2    tot
    1  0.000  0.000  0.266  0.265  0.000  0.000  0.000  0.000  0.000  0.531

band     4 # energy   17.66667694 # occ.  0.00000000

ion      s     py     pz     px    dxy    dyz    dz2    dxz  x2-y2    tot
    1  0.031  0.371  0.080  0.081  0.000  0.000  0.000  0.000  0.000  0.564

band     5 # energy   20.38523898 # occ.  0.00000000

ion      s     py     pz     px    dxy    dyz    dz2    dxz  x2-y2    tot
    1  0.009  0.009  0.007  0.007  0.000  0.000  0.000  0.000  0.000  0.032

band     6 # energy   21.43546522 # occ.  0.00000000

ion      s     py     pz     px    dxy    dyz    dz2    dxz  x2-y2    tot
    1  0.000  0.000  0.043  0.043  0.000  0.000  0.000  0.000  0.000  0.086


 k-point    22 :   -0.47619048 0.04761905 0.00000000     weight = 0.00259151

band     1 # energy    2.31119071 # occ.  2.00000000

ion      s     py     pz     px    dxy    dyz    dz2    dxz  x2-y2    tot
    1  0.423  0.002  0.010  0.010  0.000  0.000  0.000  0.000  0.000  0.445

band     2 # energy    3.17313858 # occ.  2.00000000

ion      s     py     pz     px    dxy    dyz    dz2    dxz  x2-y2    tot
    1  0.030  0.106  0.095  0.095  0.000  0.000  0.000  0.000  0.000  0.326

band     3 # energy   17.40057054 # occ.  0.00000000

ion      s     py     pz     px    dxy    dyz    dz2    dxz  x2-y2    tot
    1  0.029  0.341  0.081  0.081  0.000  0.000  0.000  0.000  0.000  0.532

band     4 # energy   17.88373577 # occ.  0.00000000

ion      s     py     pz     px    dxy    dyz    dz2    dxz  x2-y2    tot
    1  0.000  0.000  0.282  0.282  0.000  0.000  0.000  0.000  0.000  0.563

band     5 # energy   20.58960851 # occ.  0.00000000

ion      s     py     pz     px    dxy    dyz    dz2    dxz  x2-y2    tot
    1  0.012  0.024  0.015  0.015  0.000  0.000  0.000  0.000  0.000  0.064

band     6 # energy   21.14582783 # occ.  0.00000000

ion      s     py     pz     px    dxy    dyz    dz2    dxz  x2-y2    tot
    1  0.000  0.000  0.028  0.028  0.000  0.000  0.000  0.000  0.000  0.055


 k-point    23 :   -0.42857143 0.04761905 0.00000000     weight = 0.00259151

band     1 # energy    1.23591593 # occ.  2.00000000

ion      s     py     pz     px    dxy    dyz    dz2    dxz  x2-y2    tot
    1  0.306  0.022  0.038  0.038  0.000  0.000  0.000  0.000  0.000  0.404

band     2 # energy    4.40369072 # occ.  2.00000000

ion      s     py     pz     px    dxy    dyz    dz2    dxz  x2-y2    tot
    1  0.146  0.087  0.067  0.067  0.000  0.000  0.000  0.000  0.000  0.366

band     3 # energy   17.18364039 # occ.  0.00000000

ion      s     py     pz     px    dxy    dyz    dz2    dxz  x2-y2    tot
    1  0.027  0.314  0.081  0.081  0.000  0.000  0.000  0.000  0.000  0.504

band     4 # energy   18.16127587 # occ.  0.00000000

ion      s     py     pz     px    dxy    dyz    dz2    dxz  x2-y2    tot
    1  0.000  0.000  0.296  0.296  0.000  0.000  0.000  0.000  0.000  0.591

band     5 # energy   20.95093635 # occ.  0.00000000

ion      s     py     pz     px    dxy    dyz    dz2    dxz  x2-y2    tot
    1  0.012  0.035  0.022  0.022  0.000  0.000  0.000  0.000  0.000  0.092
