<?xml version="1.0" encoding="ISO-8859-1"?>
<modeling>
 <generator>
  <i name="program" type="string">vasp </i>
  <i name="version" type="string">6.3.2  </i>
  <i name="subversion" type="string">27Jun22 (build Feb 18 2024 17:04:25) complex                          parallel </i>
  <i name="platform" type="string">LinuxAMD </i>
  <i name="date" type="string">2024 02 19 </i>
  <i name="time" type="string">10:56:54 </i>
 </generator>
 <incar>
  <i type="string" name="SYSTEM">fcc Si</i>
  <i type="int" name="ISTART">     0</i>
  <i name="ENCUT">    240.00000000</i>
  <i type="int" name="ISMEAR">    -5</i>
  <i type="int" name="LORBIT">    11</i>
 </incar>
 <primitive_cell>
  <structure name="primitive_cell" >
   <crystal>
    <varray name="basis" >
     <v>       1.95000000       1.95000000       0.00000000 </v>
     <v>       0.00000000       1.95000000       1.95000000 </v>
     <v>       1.95000000       0.00000000       1.95000000 </v>
    </varray>
    <i name="volume">     14.82975000 </i>
    <varray name="rec_basis" >
     <v>       0.25641026       0.25641026      -0.25641026 </v>
     <v>      -0.25641026       0.25641026       0.25641026 </v>
     <v>       0.25641026      -0.25641026       0.25641026 </v>
    </varray>
   </crystal>
   <varray name="positions" >
    <v>       0.00000000       0.00000000       0.00000000 </v>
   </varray>
  </structure>
  <varray name="primitive_index" >
   <v type="int" >        1 </v>
  </varray>
 </primitive_cell>
 <kpoints>
  <generation param="Monkhorst-Pack">
   <v type="int" name="divisions">      21       21       21 </v>
   <v name="usershift">      0.00000000       0.00000000       0.00000000 </v>
   <v name="genvec1">      0.04761905       0.00000000       0.00000000 </v>
   <v name="genvec2">      0.00000000       0.04761905       0.00000000 </v>
   <v name="genvec3">      0.00000000       0.00000000       0.04761905 </v>
   <v name="shift">      0.00000000       0.00000000       0.00000000 </v>
  </generation>
  <varray name="kpointlist" >
   <v>       0.00000000       0.00000000       0.00000000 </v>
   <v>       0.04761905       0.00000000       0.00000000 </v>
   <v>       0.09523810       0.00000000       0.00000000 </v>
   <v>       0.14285714       0.00000000       0.00000000 </v>
   <v>       0.19047619       0.00000000       0.00000000 </v>
   <v>       0.23809524       0.00000000       0.00000000 </v>
   <v>       0.28571429       0.00000000       0.00000000 </v>
   <v>       0.33333333       0.00000000       0.00000000 </v>
   <v>       0.38095238       0.00000000       0.00000000 </v>
   <v>       0.42857143       0.00000000       0.00000000 </v>
   <v>       0.47619048       0.00000000       0.00000000 </v>
   <v>       0.04761905       0.04761905       0.00000000 </v>
   <v>       0.09523810       0.04761905       0.00000000 </v>
   <v>       0.14285714       0.04761905       0.00000000 </v>
   <v>       0.19047619       0.04761905       0.00000000 </v>
   <v>       0.23809524       0.04761905       0.00000000 </v>
   <v>       0.28571429       0.04761905       0.00000000 </v>
   <v>       0.33333333       0.04761905       0.00000000 </v>
   <v>       0.38095238       0.04761905       0.00000000 </v>
   <v>       0.42857143       0.04761905       0.00000000 </v>
   <v>       0.47619048       0.04761905       0.00000000 </v>
   <v>      -0.47619048       0.04761905       0.00000000 </v>
   <v>      -0.42857143       0.04761905       0.00000000 </v>
   <v>      -0.38095238       0.04761905       0.00000000 </v>
   <v>      -0.33333333       0.04761905       0.00000000 </v>
   <v>      -0.28571429       0.04761905       0.00000000 </v>
   <v>      -0.23809524       0.04761905       0.00000000 </v>
   <v>      -0.19047619       0.04761905       0.00000000 </v>
   <v>      -0.14285714       0.04761905       0.00000000 </v>
   <v>      -0.09523810       0.04761905       0.00000000 </v>
   <v>      -0.04761905       0.04761905       0.00000000 </v>
   <v>       0.09523810       0.09523810       0.00000000 </v>
   <v>       0.14285714       0.09523810       0.00000000 </v>
   <v>       0.19047619       0.09523810       0.00000000 </v>
   <v>       0.23809524       0.09523810       0.00000000 </v>
   <v>       0.28571429       0.09523810       0.00000000 </v>
   <v>       0.33333333       0.09523810       0.00000000 </v>
   <v>       0.38095238       0.09523810       0.00000000 </v>
   <v>       0.42857143       0.09523810       0.00000000 </v>
   <v>       0.47619048       0.09523810       0.00000000 </v>
   <v>      -0.47619048       0.09523810       0.00000000 </v>
   <v>      -0.42857143       0.09523810       0.00000000 </v>
   <v>      -0.38095238       0.09523810       0.00000000 </v>
   <v>      -0.33333333       0.09523810       0.00000000 </v>
   <v>      -0.28571429       0.09523810       0.00000000 </v>
   <v>      -0.23809524       0.09523810       0.00000000 </v>
   <v>      -0.19047619       0.09523810       0.00000000 </v>
   <v>      -0.14285714       0.09523810       0.00000000 </v>
   <v>      -0.09523810       0.09523810       0.00000000 </v>
   <v>       0.14285714       0.14285714       0.00000000 </v>
   <v>       0.19047619       0.14285714       0.00000000 </v>
   <v>       0.23809524       0.14285714       0.00000000 </v>
   <v>       0.28571429       0.14285714       0.00000000 </v>
   <v>       0.33333333       0.14285714       0.00000000 </v>
   <v>       0.38095238       0.14285714       0.00000000 </v>
   <v>       0.42857143       0.14285714       0.00000000 </v>
   <v>       0.47619048       0.14285714       0.00000000 </v>
   <v>      -0.47619048       0.14285714       0.00000000 </v>
   <v>      -0.42857143       0.14285714       0.00000000 </v>
   <v>      -0.38095238       0.14285714       0.00000000 </v>
   <v>      -0.33333333       0.14285714       0.00000000 </v>
   <v>      -0.28571429       0.14285714       0.00000000 </v>
   <v>      -0.23809524       0.14285714       0.00000000 </v>
   <v>      -0.19047619       0.14285714       0.00000000 </v>
   <v>      -0.14285714       0.14285714       0.00000000 </v>
   <v>       0.19047619       0.19047619       0.00000000 </v>
   <v>       0.23809524       0.19047619       0.00000000 </v>
   <v>       0.28571429       0.19047619       0.00000000 </v>
   <v>       0.33333333       0.19047619       0.00000000 </v>
   <v>       0.38095238       0.19047619       0.00000000 </v>
   <v>       0.42857143       0.19047619       0.00000000 </v>
   <v>       0.47619048       0.19047619       0.00000000 </v>
   <v>      -0.47619048       0.19047619       0.00000000 </v>
   <v>      -0.42857143       0.19047619       0.00000000 </v>
   <v>      -0.38095238       0.19047619       0.00000000 </v>
   <v>      -0.33333333       0.19047619       0.00000000 </v>
   <v>      -0.28571429       0.19047619       0.00000000 </v>
   <v>      -0.23809524       0.19047619       0.00000000 </v>
   <v>      -0.19047619       0.19047619       0.00000000 </v>
   <v>       0.23809524       0.23809524       0.00000000 </v>
   <v>       0.28571429       0.23809524       0.00000000 </v>
   <v>       0.33333333       0.23809524       0.00000000 </v>
   <v>       0.38095238       0.23809524       0.00000000 </v>
   <v>       0.42857143       0.23809524       0.00000000 </v>
   <v>       0.47619048       0.23809524       0.00000000 </v>
   <v>      -0.47619048       0.23809524       0.00000000 </v>
   <v>      -0.42857143       0.23809524       0.00000000 </v>
   <v>      -0.38095238       0.23809524       0.00000000 </v>
   <v>      -0.33333333       0.23809524       0.00000000 </v>
   <v>      -0.28571429       0.23809524       0.00000000 </v>
   <v>      -0.23809524       0.23809524       0.00000000 </v>
   <v>       0.28571429       0.28571429       0.00000000 </v>
   <v>       0.33333333       0.28571429       0.00000000 </v>
   <v>       0.38095238       0.28571429       0.00000000 </v>
   <v>       0.42857143       0.28571429       0.00000000 </v>
   <v>       0.47619048       0.28571429       0.00000000 </v>
   <v>      -0.47619048       0.28571429       0.00000000 </v>
   <v>      -0.42857143       0.28571429       0.00000000 </v>
   <v>      -0.38095238       0.28571429       0.00000000 </v>
   <v>      -0.33333333       0.28571429       0.00000000 </v>
   <v>      -0.28571429       0.28571429       0.00000000 </v>
   <v>       0.33333333       0.33333333       0.00000000 </v>
   <v>       0.38095238       0.33333333       0.00000000 </v>
   <v>       0.42857143       0.33333333       0.00000000 </v>
   <v>       0.47619048       0.33333333       0.00000000 </v>
   <v>      -0.47619048       0.33333333       0.00000000 </v>
   <v>      -0.42857143       0.33333333       0.00000000 </v>
   <v>      -0.38095238       0.33333333       0.00000000 </v>
   <v>      -0.33333333       0.33333333       0.00000000 </v>
   <v>       0.38095238       0.38095238       0.00000000 </v>
   <v>       0.42857143       0.38095238       0.00000000 </v>
   <v>       0.47619048       0.38095238       0.00000000 </v>
   <v>      -0.47619048       0.38095238       0.00000000 </v>
   <v>      -0.42857143       0.38095238       0.00000000 </v>
   <v>      -0.38095238       0.38095238       0.00000000 </v>
   <v>       0.42857143       0.42857143       0.00000000 </v>
   <v>       0.47619048       0.42857143       0.00000000 </v>
   <v>      -0.47619048       0.42857143       0.00000000 </v>
   <v>      -0.42857143       0.42857143       0.00000000 </v>
   <v>       0.47619048       0.47619048       0.00000000 </v>
   <v>      -0.47619048       0.47619048       0.00000000 </v>
   <v>       0.14285714       0.09523810       0.04761905 </v>
   <v>       0.19047619       0.09523810       0.04761905 </v>
   <v>       0.23809524       0.09523810       0.04761905 </v>
   <v>       0.28571429       0.09523810       0.04761905 </v>
   <v>       0.33333333       0.09523810       0.04761905 </v>
   <v>       0.38095238       0.09523810       0.04761905 </v>
   <v>       0.42857143       0.09523810       0.04761905 </v>
   <v>       0.47619048       0.09523810       0.04761905 </v>
   <v>      -0.47619048       0.09523810       0.04761905 </v>
   <v>       0.19047619       0.14285714       0.04761905 </v>
   <v>       0.23809524       0.14285714       0.04761905 </v>
   <v>       0.28571429       0.14285714       0.04761905 </v>
   <v>       0.33333333       0.14285714       0.04761905 </v>
   <v>       0.38095238       0.14285714       0.04761905 </v>
   <v>       0.42857143       0.14285714       0.04761905 </v>
   <v>       0.47619048       0.14285714       0.04761905 </v>
   <v>      -0.47619048       0.14285714       0.04761905 </v>
   <v>      -0.42857143       0.14285714       0.04761905 </v>
   <v>      -0.38095238       0.14285714       0.04761905 </v>
   <v>      -0.33333333       0.14285714       0.04761905 </v>
   <v>      -0.28571429       0.14285714       0.04761905 </v>
   <v>      -0.23809524       0.14285714       0.04761905 </v>
   <v>      -0.19047619       0.14285714       0.04761905 </v>
   <v>      -0.14285714       0.14285714       0.04761905 </v>
   <v>      -0.09523810       0.14285714       0.04761905 </v>
   <v>       0.23809524       0.19047619       0.04761905 </v>
   <v>       0.28571429       0.19047619       0.04761905 </v>
   <v>       0.33333333       0.19047619       0.04761905 </v>
   <v>       0.38095238       0.19047619       0.04761905 </v>
   <v>       0.42857143       0.19047619       0.04761905 </v>
   <v>       0.47619048       0.19047619       0.04761905 </v>
   <v>      -0.47619048       0.19047619       0.04761905 </v>
   <v>      -0.42857143       0.19047619       0.04761905 </v>
   <v>      -0.38095238       0.19047619       0.04761905 </v>
   <v>      -0.33333333       0.19047619       0.04761905 </v>
   <v>      -0.28571429       0.19047619       0.04761905 </v>
   <v>      -0.23809524       0.19047619       0.04761905 </v>
   <v>      -0.19047619       0.19047619       0.04761905 </v>
   <v>      -0.14285714       0.19047619       0.04761905 </v>
   <v>       0.28571429       0.23809524       0.04761905 </v>
   <v>       0.33333333       0.23809524       0.04761905 </v>
   <v>       0.38095238       0.23809524       0.04761905 </v>
   <v>       0.42857143       0.23809524       0.04761905 </v>
   <v>       0.47619048       0.23809524       0.04761905 </v>
   <v>      -0.47619048       0.23809524       0.04761905 </v>
   <v>      -0.42857143       0.23809524       0.04761905 </v>
   <v>      -0.38095238       0.23809524       0.04761905 </v>
   <v>      -0.33333333       0.23809524       0.04761905 </v>
   <v>      -0.28571429       0.23809524       0.04761905 </v>
   <v>      -0.23809524       0.23809524       0.04761905 </v>
   <v>      -0.19047619       0.23809524       0.04761905 </v>
   <v>       0.33333333       0.28571429       0.04761905 </v>
   <v>       0.38095238       0.28571429       0.04761905 </v>
   <v>       0.42857143       0.28571429       0.04761905 </v>
   <v>       0.47619048       0.28571429       0.04761905 </v>
   <v>      -0.47619048       0.28571429       0.04761905 </v>
   <v>      -0.42857143       0.28571429       0.04761905 </v>
   <v>      -0.38095238       0.28571429       0.04761905 </v>
   <v>      -0.33333333       0.28571429       0.04761905 </v>
   <v>      -0.28571429       0.28571429       0.04761905 </v>
   <v>      -0.23809524       0.28571429       0.04761905 </v>
   <v>       0.38095238       0.33333333       0.04761905 </v>
   <v>       0.42857143       0.33333333       0.04761905 </v>
   <v>       0.47619048       0.33333333       0.04761905 </v>
   <v>      -0.47619048       0.33333333       0.04761905 </v>
   <v>      -0.42857143       0.33333333       0.04761905 </v>
   <v>      -0.38095238       0.33333333       0.04761905 </v>
   <v>      -0.33333333       0.33333333       0.04761905 </v>
   <v>      -0.28571429       0.33333333       0.04761905 </v>
   <v>       0.42857143       0.38095238       0.04761905 </v>
   <v>       0.47619048       0.38095238       0.04761905 </v>
   <v>      -0.47619048       0.38095238       0.04761905 </v>
   <v>      -0.42857143       0.38095238       0.04761905 </v>
   <v>      -0.38095238       0.38095238       0.04761905 </v>
   <v>      -0.33333333       0.38095238       0.04761905 </v>
   <v>       0.47619048       0.42857143       0.04761905 </v>
   <v>      -0.47619048       0.42857143       0.04761905 </v>
   <v>      -0.42857143       0.42857143       0.04761905 </v>
   <v>      -0.38095238       0.42857143       0.04761905 </v>
   <v>      -0.47619048       0.47619048       0.04761905 </v>
   <v>      -0.42857143       0.47619048       0.04761905 </v>
   <v>       0.28571429       0.19047619       0.09523810 </v>
   <v>       0.33333333       0.19047619       0.09523810 </v>
   <v>       0.38095238       0.19047619       0.09523810 </v>
   <v>       0.42857143       0.19047619       0.09523810 </v>
   <v>       0.47619048       0.19047619       0.09523810 </v>
   <v>      -0.47619048       0.19047619       0.09523810 </v>
   <v>      -0.42857143       0.19047619       0.09523810 </v>
   <v>       0.33333333       0.23809524       0.09523810 </v>
   <v>       0.38095238       0.23809524       0.09523810 </v>
   <v>       0.42857143       0.23809524       0.09523810 </v>
   <v>       0.47619048       0.23809524       0.09523810 </v>
   <v>      -0.47619048       0.23809524       0.09523810 </v>
   <v>      -0.42857143       0.23809524       0.09523810 </v>
   <v>      -0.38095238       0.23809524       0.09523810 </v>
   <v>      -0.33333333       0.23809524       0.09523810 </v>
   <v>      -0.28571429       0.23809524       0.09523810 </v>
   <v>      -0.23809524       0.23809524       0.09523810 </v>
   <v>      -0.19047619       0.23809524       0.09523810 </v>
   <v>      -0.14285714       0.23809524       0.09523810 </v>
   <v>       0.38095238       0.28571429       0.09523810 </v>
   <v>       0.42857143       0.28571429       0.09523810 </v>
   <v>       0.47619048       0.28571429       0.09523810 </v>
   <v>      -0.47619048       0.28571429       0.09523810 </v>
   <v>      -0.42857143       0.28571429       0.09523810 </v>
   <v>      -0.38095238       0.28571429       0.09523810 </v>
   <v>      -0.33333333       0.28571429       0.09523810 </v>
   <v>      -0.28571429       0.28571429       0.09523810 </v>
   <v>      -0.23809524       0.28571429       0.09523810 </v>
   <v>      -0.19047619       0.28571429       0.09523810 </v>
   <v>       0.42857143       0.33333333       0.09523810 </v>
   <v>       0.47619048       0.33333333       0.09523810 </v>
   <v>      -0.47619048       0.33333333       0.09523810 </v>
   <v>      -0.42857143       0.33333333       0.09523810 </v>
   <v>      -0.38095238       0.33333333       0.09523810 </v>
   <v>      -0.33333333       0.33333333       0.09523810 </v>
   <v>      -0.28571429       0.33333333       0.09523810 </v>
   <v>      -0.23809524       0.33333333       0.09523810 </v>
   <v>       0.47619048       0.38095238       0.09523810 </v>
   <v>      -0.47619048       0.38095238       0.09523810 </v>
   <v>      -0.42857143       0.38095238       0.09523810 </v>
   <v>      -0.38095238       0.38095238       0.09523810 </v>
   <v>      -0.33333333       0.38095238       0.09523810 </v>
   <v>      -0.28571429       0.38095238       0.09523810 </v>
   <v>      -0.47619048       0.42857143       0.09523810 </v>
   <v>      -0.42857143       0.42857143       0.09523810 </v>
   <v>      -0.38095238       0.42857143       0.09523810 </v>
   <v>      -0.33333333       0.42857143       0.09523810 </v>
   <v>      -0.42857143       0.47619048       0.09523810 </v>
   <v>      -0.38095238       0.47619048       0.09523810 </v>
   <v>       0.42857143       0.28571429       0.14285714 </v>
   <v>       0.47619048       0.28571429       0.14285714 </v>
   <v>      -0.47619048       0.28571429       0.14285714 </v>
   <v>      -0.42857143       0.28571429       0.14285714 </v>
   <v>      -0.38095238       0.28571429       0.14285714 </v>
   <v>       0.47619048       0.33333333       0.14285714 </v>
   <v>      -0.47619048       0.33333333       0.14285714 </v>
   <v>      -0.42857143       0.33333333       0.14285714 </v>
   <v>      -0.38095238       0.33333333       0.14285714 </v>
   <v>      -0.33333333       0.33333333       0.14285714 </v>
   <v>      -0.28571429       0.33333333       0.14285714 </v>
   <v>      -0.23809524       0.33333333       0.14285714 </v>
   <v>      -0.19047619       0.33333333       0.14285714 </v>
   <v>      -0.47619048       0.38095238       0.14285714 </v>
   <v>      -0.42857143       0.38095238       0.14285714 </v>
   <v>      -0.38095238       0.38095238       0.14285714 </v>
   <v>      -0.33333333       0.38095238       0.14285714 </v>
   <v>      -0.28571429       0.38095238       0.14285714 </v>
   <v>      -0.23809524       0.38095238       0.14285714 </v>
   <v>      -0.42857143       0.42857143       0.14285714 </v>
   <v>      -0.38095238       0.42857143       0.14285714 </v>
   <v>      -0.33333333       0.42857143       0.14285714 </v>
   <v>      -0.28571429       0.42857143       0.14285714 </v>
   <v>      -0.38095238       0.47619048       0.14285714 </v>
   <v>      -0.33333333       0.47619048       0.14285714 </v>
   <v>      -0.42857143       0.38095238       0.19047619 </v>
   <v>      -0.38095238       0.38095238       0.19047619 </v>
   <v>      -0.33333333       0.38095238       0.19047619 </v>
   <v>      -0.38095238       0.42857143       0.19047619 </v>
   <v>      -0.33333333       0.42857143       0.19047619 </v>
   <v>      -0.28571429       0.42857143       0.19047619 </v>
   <v>      -0.23809524       0.42857143       0.19047619 </v>
   <v>      -0.33333333       0.47619048       0.19047619 </v>
   <v>      -0.28571429       0.47619048       0.19047619 </v>
   <v>      -0.28571429       0.47619048       0.23809524 </v>
  </varray>
  <varray name="weights" >
   <v>       0.00010798 </v>
   <v>       0.00086384 </v>
   <v>       0.00086384 </v>
   <v>       0.00086384 </v>
   <v>       0.00086384 </v>
   <v>       0.00086384 </v>
   <v>       0.00086384 </v>
   <v>       0.00086384 </v>
   <v>       0.00086384 </v>
   <v>       0.00086384 </v>
   <v>       0.00086384 </v>
   <v>       0.00064788 </v>
   <v>       0.00259151 </v>
   <v>       0.00259151 </v>
   <v>       0.00259151 </v>
   <v>       0.00259151 </v>
   <v>       0.00259151 </v>
   <v>       0.00259151 </v>
   <v>       0.00259151 </v>
   <v>       0.00259151 </v>
   <v>       0.00259151 </v>
   <v>       0.00259151 </v>
   <v>       0.00259151 </v>
   <v>       0.00259151 </v>
   <v>       0.00259151 </v>
   <v>       0.00259151 </v>
   <v>       0.00259151 </v>
   <v>       0.00259151 </v>
   <v>       0.00259151 </v>
   <v>       0.00259151 </v>
   <v>       0.00129576 </v>
   <v>       0.00064788 </v>
   <v>       0.00259151 </v>
   <v>       0.00259151 </v>
   <v>       0.00259151 </v>
   <v>       0.00259151 </v>
   <v>       0.00259151 </v>
   <v>       0.00259151 </v>
   <v>       0.00259151 </v>
   <v>       0.00259151 </v>
   <v>       0.00259151 </v>
   <v>       0.00259151 </v>
   <v>       0.00259151 </v>
   <v>       0.00259151 </v>
   <v>       0.00259151 </v>
   <v>       0.00259151 </v>
   <v>       0.00259151 </v>
   <v>       0.00259151 </v>
   <v>       0.00129576 </v>
   <v>       0.00064788 </v>
   <v>       0.00259151 </v>
   <v>       0.00259151 </v>
   <v>       0.00259151 </v>
   <v>       0.00259151 </v>
   <v>       0.00259151 </v>
   <v>       0.00259151 </v>
   <v>       0.00259151 </v>
   <v>       0.00259151 </v>
   <v>       0.00259151 </v>
   <v>       0.00259151 </v>
   <v>       0.00259151 </v>
   <v>       0.00259151 </v>
   <v>       0.00259151 </v>
   <v>       0.00259151 </v>
   <v>       0.00129576 </v>
   <v>       0.00064788 </v>
   <v>       0.00259151 </v>
   <v>       0.00259151 </v>
   <v>       0.00259151 </v>
   <v>       0.00259151 </v>
   <v>       0.00259151 </v>
   <v>       0.00259151 </v>
   <v>       0.00259151 </v>
   <v>       0.00259151 </v>
   <v>       0.00259151 </v>
   <v>       0.00259151 </v>
   <v>       0.00259151 </v>
   <v>       0.00259151 </v>
   <v>       0.00129576 </v>
   <v>       0.00064788 </v>
   <v>       0.00259151 </v>
   <v>       0.00259151 </v>
   <v>       0.00259151 </v>
   <v>       0.00259151 </v>
   <v>       0.00259151 </v>
   <v>       0.00259151 </v>
   <v>       0.00259151 </v>
   <v>       0.00259151 </v>
   <v>       0.00259151 </v>
   <v>       0.00259151 </v>
   <v>       0.00129576 </v>
   <v>       0.00064788 </v>
   <v>       0.00259151 </v>
   <v>       0.00259151 </v>
   <v>       0.00259151 </v>
   <v>       0.00259151 </v>
   <v>       0.00259151 </v>
   <v>       0.00259151 </v>
   <v>       0.00259151 </v>
   <v>       0.00259151 </v>
   <v>       0.00129576 </v>
   <v>       0.00064788 </v>
   <v>       0.00259151 </v>
   <v>       0.00259151 </v>
   <v>       0.00259151 </v>
   <v>       0.00259151 </v>
   <v>       0.00259151 </v>
   <v>       0.00259151 </v>
   <v>       0.00129576 </v>
   <v>       0.00064788 </v>
   <v>       0.00259151 </v>
   <v>       0.00259151 </v>
   <v>       0.00259151 </v>
   <v>       0.00259151 </v>
   <v>       0.00129576 </v>
   <v>       0.00064788 </v>
   <v>       0.00259151 </v>
   <v>       0.00259151 </v>
   <v>       0.00129576 </v>
   <v>       0.00064788 </v>
   <v>       0.00129576 </v>
   <v>       0.00259151 </v>
   <v>       0.00518303 </v>
   <v>       0.00518303 </v>
   <v>       0.00518303 </v>
   <v>       0.00518303 </v>
   <v>       0.00518303 </v>
   <v>       0.00518303 </v>
   <v>       0.00518303 </v>
   <v>       0.00518303 </v>
   <v>       0.00259151 </v>
   <v>       0.00518303 </v>
   <v>       0.00518303 </v>
   <v>       0.00518303 </v>
   <v>       0.00518303 </v>
   <v>       0.00518303 </v>
   <v>       0.00518303 </v>
   <v>       0.00518303 </v>
   <v>       0.00518303 </v>
   <v>       0.00518303 </v>
   <v>       0.00518303 </v>
   <v>       0.00518303 </v>
   <v>       0.00518303 </v>
   <v>       0.00518303 </v>
   <v>       0.00518303 </v>
   <v>       0.00259151 </v>
   <v>       0.00259151 </v>
   <v>       0.00518303 </v>
   <v>       0.00518303 </v>
   <v>       0.00518303 </v>
   <v>       0.00518303 </v>
   <v>       0.00518303 </v>
   <v>       0.00518303 </v>
   <v>       0.00518303 </v>
   <v>       0.00518303 </v>
   <v>       0.00518303 </v>
   <v>       0.00518303 </v>
   <v>       0.00518303 </v>
   <v>       0.00518303 </v>
   <v>       0.00259151 </v>
   <v>       0.00259151 </v>
   <v>       0.00518303 </v>
   <v>       0.00518303 </v>
   <v>       0.00518303 </v>
   <v>       0.00518303 </v>
   <v>       0.00518303 </v>
   <v>       0.00518303 </v>
   <v>       0.00518303 </v>
   <v>       0.00518303 </v>
   <v>       0.00518303 </v>
   <v>       0.00518303 </v>
   <v>       0.00259151 </v>
   <v>       0.00259151 </v>
   <v>       0.00518303 </v>
   <v>       0.00518303 </v>
   <v>       0.00518303 </v>
   <v>       0.00518303 </v>
   <v>       0.00518303 </v>
   <v>       0.00518303 </v>
   <v>       0.00518303 </v>
   <v>       0.00518303 </v>
   <v>       0.00259151 </v>
   <v>       0.00259151 </v>
   <v>       0.00518303 </v>
   <v>       0.00518303 </v>
   <v>       0.00518303 </v>
   <v>       0.00518303 </v>
   <v>       0.00518303 </v>
   <v>       0.00518303 </v>
   <v>       0.00259151 </v>
   <v>       0.00259151 </v>
   <v>       0.00518303 </v>
   <v>       0.00518303 </v>
   <v>       0.00518303 </v>
   <v>       0.00518303 </v>
   <v>       0.00259151 </v>
   <v>       0.00259151 </v>
   <v>       0.00518303 </v>
   <v>       0.00518303 </v>
   <v>       0.00259151 </v>
   <v>       0.00259151 </v>
   <v>       0.00259151 </v>
   <v>       0.00259151 </v>
   <v>       0.00518303 </v>
   <v>       0.00518303 </v>
   <v>       0.00518303 </v>
   <v>       0.00518303 </v>
   <v>       0.00518303 </v>
   <v>       0.00518303 </v>
   <v>       0.00259151 </v>
   <v>       0.00518303 </v>
   <v>       0.00518303 </v>
   <v>       0.00518303 </v>
   <v>       0.00518303 </v>
   <v>       0.00518303 </v>
   <v>       0.00518303 </v>
   <v>       0.00518303 </v>
   <v>       0.00518303 </v>
   <v>       0.00518303 </v>
   <v>       0.00518303 </v>
   <v>       0.00259151 </v>
   <v>       0.00259151 </v>
   <v>       0.00518303 </v>
   <v>       0.00518303 </v>
   <v>       0.00518303 </v>
   <v>       0.00518303 </v>
   <v>       0.00518303 </v>
   <v>       0.00518303 </v>
   <v>       0.00518303 </v>
   <v>       0.00518303 </v>
   <v>       0.00259151 </v>
   <v>       0.00259151 </v>
   <v>       0.00518303 </v>
   <v>       0.00518303 </v>
   <v>       0.00518303 </v>
   <v>       0.00518303 </v>
   <v>       0.00518303 </v>
   <v>       0.00518303 </v>
   <v>       0.00259151 </v>
   <v>       0.00259151 </v>
   <v>       0.00518303 </v>
   <v>       0.00518303 </v>
   <v>       0.00518303 </v>
   <v>       0.00518303 </v>
   <v>       0.00259151 </v>
   <v>       0.00259151 </v>
   <v>       0.00518303 </v>
   <v>       0.00518303 </v>
   <v>       0.00259151 </v>
   <v>       0.00259151 </v>
   <v>       0.00259151 </v>
   <v>       0.00259151 </v>
   <v>       0.00518303 </v>
   <v>       0.00518303 </v>
   <v>       0.00518303 </v>
   <v>       0.00518303 </v>
   <v>       0.00259151 </v>
   <v>       0.00518303 </v>
   <v>       0.00518303 </v>
   <v>       0.00518303 </v>
   <v>       0.00518303 </v>
   <v>       0.00518303 </v>
   <v>       0.00518303 </v>
   <v>       0.00259151 </v>
   <v>       0.00259151 </v>
   <v>       0.00518303 </v>
   <v>       0.00518303 </v>
   <v>       0.00518303 </v>
   <v>       0.00518303 </v>
   <v>       0.00259151 </v>
   <v>       0.00259151 </v>
   <v>       0.00518303 </v>
   <v>       0.00518303 </v>
   <v>       0.00259151 </v>
   <v>       0.00259151 </v>
   <v>       0.00259151 </v>
   <v>       0.00259151 </v>
   <v>       0.00518303 </v>
   <v>       0.00518303 </v>
   <v>       0.00259151 </v>
   <v>       0.00518303 </v>
   <v>       0.00518303 </v>
   <v>       0.00259151 </v>
   <v>       0.00259151 </v>
   <v>       0.00259151 </v>
   <v>       0.00259151 </v>
  </varray>
  <varray name="tetrahedronlist"  type="int" >
   <v type="int" >       48        2        3       13       31 </v>
   <v type="int" >       48       13       30       31      122 </v>
   <v type="int" >       24       30       30       31      122 </v>
   <v type="int" >       48        3       13       30       31 </v>
   <v type="int" >       48       30       49      122      123 </v>
   <v type="int" >       48       29       30       49      123 </v>
   <v type="int" >       24       30       30       49      122 </v>
   <v type="int" >       48       29       48      123      124 </v>
   <v type="int" >       48       28       29       48      124 </v>
   <v type="int" >       48       29       48       49      123 </v>
   <v type="int" >       48       28       47      124      125 </v>
   <v type="int" >       48       27       28       47      125 </v>
   <v type="int" >       48       28       47       48      124 </v>
   <v type="int" >       48       27       46      125      126 </v>
   <v type="int" >       48       26       27       46      126 </v>
   <v type="int" >       48       27       46       47      125 </v>
   <v type="int" >       48       26       45      126      127 </v>
   <v type="int" >       48       25       26       45      127 </v>
   <v type="int" >       48       26       45       46      126 </v>
   <v type="int" >       48       25       44      127      128 </v>
   <v type="int" >       48       24       25       44      128 </v>
   <v type="int" >       48       25       44       45      127 </v>
   <v type="int" >       48       24       43      128      129 </v>
   <v type="int" >       48       23       24       43      129 </v>
   <v type="int" >       48       24       43       44      128 </v>
   <v type="int" >       48       23       42      129      130 </v>
   <v type="int" >       48       22       23       42      130 </v>
   <v type="int" >       48       23       42       43      129 </v>
   <v type="int" >       48       22       41      130      130 </v>
   <v type="int" >       48       21       22       41      130 </v>
   <v type="int" >       48       22       41       42      130 </v>
   <v type="int" >       48       21       40      129      130 </v>
   <v type="int" >       48       20       21       40      129 </v>
   <v type="int" >       48       21       40       41      130 </v>
   <v type="int" >       48       20       39      128      129 </v>
   <v type="int" >       48       19       20       39      128 </v>
   <v type="int" >       48       20       39       40      129 </v>
   <v type="int" >       48       19       38      127      128 </v>
   <v type="int" >       48       18       19       38      127 </v>
   <v type="int" >       48       19       38       39      128 </v>
   <v type="int" >       48       18       37      126      127 </v>
   <v type="int" >       48       17       18       37      126 </v>
   <v type="int" >       48       18       37       38      127 </v>
   <v type="int" >       48       17       36      125      126 </v>
   <v type="int" >       48       16       17       36      125 </v>
   <v type="int" >       48       17       36       37      126 </v>
   <v type="int" >       48       16       35      124      125 </v>
   <v type="int" >       48       15       16       35      124 </v>
   <v type="int" >       48       16       35       36      125 </v>
   <v type="int" >       48       15       34      123      124 </v>
   <v type="int" >       48       14       15       34      123 </v>
   <v type="int" >       48       15       34       35      124 </v>
   <v type="int" >       48       14       33      122      123 </v>
   <v type="int" >       48       13       14       33      122 </v>
   <v type="int" >       48       14       33       34      123 </v>
   <v type="int" >       24       13       13       32      122 </v>
   <v type="int" >       24       12       13       13       32 </v>
   <v type="int" >       48       13       32       33      122 </v>
   <v type="int" >       24       12       13       13       31 </v>
   <v type="int" >       48        2       12       13       31 </v>
   <v type="int" >       48       13       14       30      122 </v>
   <v type="int" >       48        3       13       14       30 </v>
   <v type="int" >       48       33      122      123      131 </v>
   <v type="int" >       24      122      123      123      131 </v>
   <v type="int" >       24       49      122      123      123 </v>
   <v type="int" >       48       14       30      122      123 </v>
   <v type="int" >       48      123      131      132      146 </v>
   <v type="int" >       48      123      124      132      146 </v>
   <v type="int" >       48       48      123      124      146 </v>
   <v type="int" >       24      123      123      131      146 </v>
   <v type="int" >       24       49      123      123      146 </v>
   <v type="int" >       48       48       49      123      146 </v>
   <v type="int" >       48      124      132      133      145 </v>
   <v type="int" >       48      124      125      133      145 </v>
   <v type="int" >       48       47      124      125      145 </v>
   <v type="int" >       48      124      132      145      146 </v>
   <v type="int" >       48       48      124      145      146 </v>
   <v type="int" >       48       47       48      124      145 </v>
   <v type="int" >       48      125      133      134      144 </v>
   <v type="int" >       48      125      126      134      144 </v>
   <v type="int" >       48       46      125      126      144 </v>
   <v type="int" >       48      125      133      144      145 </v>
   <v type="int" >       48       47      125      144      145 </v>
   <v type="int" >       48       46       47      125      144 </v>
   <v type="int" >       48      126      134      135      143 </v>
   <v type="int" >       48      126      127      135      143 </v>
   <v type="int" >       48       45      126      127      143 </v>
   <v type="int" >       48      126      134      143      144 </v>
   <v type="int" >       48       46      126      143      144 </v>
   <v type="int" >       48       45       46      126      143 </v>
   <v type="int" >       48      127      135      136      142 </v>
   <v type="int" >       48      127      128      136      142 </v>
   <v type="int" >       48       44      127      128      142 </v>
   <v type="int" >       48      127      135      142      143 </v>
   <v type="int" >       48       45      127      142      143 </v>
   <v type="int" >       48       44       45      127      142 </v>
   <v type="int" >       48      128      136      137      141 </v>
   <v type="int" >       48      128      129      137      141 </v>
   <v type="int" >       48       43      128      129      141 </v>
   <v type="int" >       48      128      136      141      142 </v>
   <v type="int" >       48       44      128      141      142 </v>
   <v type="int" >       48       43       44      128      141 </v>
   <v type="int" >       48      129      137      138      140 </v>
   <v type="int" >       48      129      130      138      140 </v>
   <v type="int" >       48       42      129      130      140 </v>
   <v type="int" >       48      129      137      140      141 </v>
   <v type="int" >       48       43      129      140      141 </v>
   <v type="int" >       48       42       43      129      140 </v>
   <v type="int" >       48      130      138      139      139 </v>
   <v type="int" >       24      130      130      139      139 </v>
   <v type="int" >       48       41      130      130      139 </v>
   <v type="int" >       48      130      138      139      140 </v>
   <v type="int" >       48       42      130      139      140 </v>
   <v type="int" >       48       41       42      130      139 </v>
   <v type="int" >       48       40      129      130      138 </v>
   <v type="int" >       48       41      130      138      139 </v>
   <v type="int" >       48       40       41      130      138 </v>
   <v type="int" >       48       39      128      129      137 </v>
   <v type="int" >       48       40      129      137      138 </v>
   <v type="int" >       48       39       40      129      137 </v>
   <v type="int" >       48       38      127      128      136 </v>
   <v type="int" >       48       39      128      136      137 </v>
   <v type="int" >       48       38       39      128      136 </v>
   <v type="int" >       48       37      126      127      135 </v>
   <v type="int" >       48       38      127      135      136 </v>
   <v type="int" >       48       37       38      127      135 </v>
   <v type="int" >       48       36      125      126      134 </v>
   <v type="int" >       48       37      126      134      135 </v>
   <v type="int" >       48       36       37      126      134 </v>
   <v type="int" >       48       35      124      125      133 </v>
   <v type="int" >       48       36      125      133      134 </v>
   <v type="int" >       48       35       36      125      133 </v>
   <v type="int" >       48       34      123      124      132 </v>
   <v type="int" >       48       35      124      132      133 </v>
   <v type="int" >       48       34       35      124      132 </v>
   <v type="int" >       48       34      123      131      132 </v>
   <v type="int" >       48       33       34      123      131 </v>
   <v type="int" >       24       33       33      122      131 </v>
   <v type="int" >       24       32       33       33      122 </v>
   <v type="int" >       24       13       13       31      122 </v>
   <v type="int" >       48       33       34       51      131 </v>
   <v type="int" >       48       51      131      132      147 </v>
   <v type="int" >       24      131      132      132      147 </v>
   <v type="int" >       24      131      132      132      146 </v>
   <v type="int" >       48       34       51      131      132 </v>
   <v type="int" >       48      132      147      148      203 </v>
   <v type="int" >       48      132      133      148      203 </v>
   <v type="int" >       48      132      133      145      203 </v>
   <v type="int" >       24      132      132      147      203 </v>
   <v type="int" >       24      132      132      146      203 </v>
   <v type="int" >       48      132      145      146      203 </v>
   <v type="int" >       48      133      148      149      204 </v>
   <v type="int" >       48      133      134      149      204 </v>
   <v type="int" >       48      133      134      144      204 </v>
   <v type="int" >       48      133      148      203      204 </v>
   <v type="int" >       48      133      145      203      204 </v>
   <v type="int" >       48      133      144      145      204 </v>
   <v type="int" >       48      134      149      150      205 </v>
   <v type="int" >       48      134      135      150      205 </v>
   <v type="int" >       48      134      135      143      205 </v>
   <v type="int" >       48      134      149      204      205 </v>
   <v type="int" >       48      134      144      204      205 </v>
   <v type="int" >       48      134      143      144      205 </v>
   <v type="int" >       48      135      150      151      206 </v>
   <v type="int" >       48      135      136      151      206 </v>
   <v type="int" >       48      135      136      142      206 </v>
   <v type="int" >       48      135      150      205      206 </v>
   <v type="int" >       48      135      143      205      206 </v>
   <v type="int" >       48      135      142      143      206 </v>
   <v type="int" >       48      136      151      152      207 </v>
   <v type="int" >       48      136      137      152      207 </v>
   <v type="int" >       48      136      137      141      207 </v>
   <v type="int" >       48      136      151      206      207 </v>
   <v type="int" >       48      136      142      206      207 </v>
   <v type="int" >       48      136      141      142      207 </v>
   <v type="int" >       48      137      152      153      208 </v>
   <v type="int" >       48      137      138      153      208 </v>
   <v type="int" >       48      137      138      140      208 </v>
   <v type="int" >       48      137      152      207      208 </v>
   <v type="int" >       48      137      141      207      208 </v>
   <v type="int" >       48      137      140      141      208 </v>
   <v type="int" >       48      138      153      154      209 </v>
   <v type="int" >       48      138      139      154      209 </v>
   <v type="int" >       48      138      139      139      209 </v>
   <v type="int" >       48      138      153      208      209 </v>
   <v type="int" >       48      138      140      208      209 </v>
   <v type="int" >       48      138      139      140      209 </v>
   <v type="int" >       48      139      154      155      209 </v>
   <v type="int" >       48      139      140      155      209 </v>
   <v type="int" >       48      139      154      209      209 </v>
   <v type="int" >       24      139      139      209      209 </v>
   <v type="int" >       48      140      155      156      208 </v>
   <v type="int" >       48      140      141      156      208 </v>
   <v type="int" >       48      140      155      208      209 </v>
   <v type="int" >       48      141      156      157      207 </v>
   <v type="int" >       48      141      142      157      207 </v>
   <v type="int" >       48      141      156      207      208 </v>
   <v type="int" >       48      142      157      158      206 </v>
   <v type="int" >       48      142      143      158      206 </v>
   <v type="int" >       48      142      157      206      207 </v>
   <v type="int" >       48      143      158      159      205 </v>
   <v type="int" >       48      143      144      159      205 </v>
   <v type="int" >       48      143      158      205      206 </v>
   <v type="int" >       48      144      159      160      204 </v>
   <v type="int" >       48      144      145      160      204 </v>
   <v type="int" >       48      144      159      204      205 </v>
   <v type="int" >       24      145      145      160      203 </v>
   <v type="int" >       24      145      145      146      203 </v>
   <v type="int" >       48      145      160      203      204 </v>
   <v type="int" >       48       14       15       29      123 </v>
   <v type="int" >       48       14       29       30      123 </v>
   <v type="int" >       48       51       52       67      147 </v>
   <v type="int" >       48       51       52      132      147 </v>
   <v type="int" >       48       34       51       52      132 </v>
   <v type="int" >       48       67      147      148      161 </v>
   <v type="int" >       24      147      148      148      161 </v>
   <v type="int" >       24      147      148      148      203 </v>
   <v type="int" >       48       52       67      147      148 </v>
   <v type="int" >       48       52      132      147      148 </v>
   <v type="int" >       48      148      161      162      210 </v>
   <v type="int" >       48      148      149      162      210 </v>
   <v type="int" >       48      148      149      204      210 </v>
   <v type="int" >       24      148      148      161      210 </v>
   <v type="int" >       24      148      148      203      210 </v>
   <v type="int" >       48      148      203      204      210 </v>
   <v type="int" >       48      149      162      163      211 </v>
   <v type="int" >       48      149      150      163      211 </v>
   <v type="int" >       48      149      150      205      211 </v>
   <v type="int" >       48      149      162      210      211 </v>
   <v type="int" >       48      149      204      210      211 </v>
   <v type="int" >       48      149      204      205      211 </v>
   <v type="int" >       48      150      163      164      212 </v>
   <v type="int" >       48      150      151      164      212 </v>
   <v type="int" >       48      150      151      206      212 </v>
   <v type="int" >       48      150      163      211      212 </v>
   <v type="int" >       48      150      205      211      212 </v>
   <v type="int" >       48      150      205      206      212 </v>
   <v type="int" >       48      151      164      165      213 </v>
   <v type="int" >       48      151      152      165      213 </v>
   <v type="int" >       48      151      152      207      213 </v>
   <v type="int" >       48      151      164      212      213 </v>
   <v type="int" >       48      151      206      212      213 </v>
   <v type="int" >       48      151      206      207      213 </v>
   <v type="int" >       48      152      165      166      214 </v>
   <v type="int" >       48      152      153      166      214 </v>
   <v type="int" >       48      152      153      208      214 </v>
   <v type="int" >       48      152      165      213      214 </v>
   <v type="int" >       48      152      207      213      214 </v>
   <v type="int" >       48      152      207      208      214 </v>
   <v type="int" >       48      153      166      167      215 </v>
   <v type="int" >       48      153      154      167      215 </v>
   <v type="int" >       48      153      154      209      215 </v>
   <v type="int" >       48      153      166      214      215 </v>
   <v type="int" >       48      153      208      214      215 </v>
   <v type="int" >       48      153      208      209      215 </v>
   <v type="int" >       48      154      167      168      216 </v>
   <v type="int" >       48      154      155      168      216 </v>
   <v type="int" >       48      154      155      209      216 </v>
   <v type="int" >       48      154      167      215      216 </v>
   <v type="int" >       48      154      209      215      216 </v>
   <v type="int" >       48      154      209      209      216 </v>
   <v type="int" >       48      155      168      169      217 </v>
   <v type="int" >       48      155      156      169      217 </v>
   <v type="int" >       48      155      156      208      217 </v>
   <v type="int" >       48      155      168      216      217 </v>
   <v type="int" >       48      155      209      216      217 </v>
   <v type="int" >       48      155      208      209      217 </v>
   <v type="int" >       48      156      169      170      218 </v>
   <v type="int" >       48      156      157      170      218 </v>
   <v type="int" >       48      156      157      207      218 </v>
   <v type="int" >       48      156      169      217      218 </v>
   <v type="int" >       48      156      208      217      218 </v>
   <v type="int" >       48      156      207      208      218 </v>
   <v type="int" >       48      157      170      171      219 </v>
   <v type="int" >       48      157      158      171      219 </v>
   <v type="int" >       48      157      158      206      219 </v>
   <v type="int" >       48      157      170      218      219 </v>
   <v type="int" >       48      157      207      218      219 </v>
   <v type="int" >       48      157      206      207      219 </v>
   <v type="int" >       48      158      171      172      220 </v>
   <v type="int" >       48      158      159      172      220 </v>
   <v type="int" >       48      158      159      205      220 </v>
   <v type="int" >       48      158      171      219      220 </v>
   <v type="int" >       48      158      206      219      220 </v>
   <v type="int" >       48      158      205      206      220 </v>
   <v type="int" >       24      159      159      172      221 </v>
   <v type="int" >       24      159      159      160      221 </v>
   <v type="int" >       48      159      160      204      221 </v>
   <v type="int" >       48      159      172      220      221 </v>
   <v type="int" >       48      159      205      220      221 </v>
   <v type="int" >       48      159      204      205      221 </v>
   <v type="int" >       24      160      204      204      221 </v>
   <v type="int" >       24      160      203      204      204 </v>
   <v type="int" >       48       15       16       28      124 </v>
   <v type="int" >       48       15       28       29      124 </v>
   <v type="int" >       48       15       29      123      124 </v>
   <v type="int" >       48       67       68       81      161 </v>
   <v type="int" >       48       67       68      148      161 </v>
   <v type="int" >       48       52       67       68      148 </v>
   <v type="int" >       48       81      161      162      173 </v>
   <v type="int" >       24      161      162      162      173 </v>
   <v type="int" >       24      161      162      162      210 </v>
   <v type="int" >       48       68       81      161      162 </v>
   <v type="int" >       48       68      148      161      162 </v>
   <v type="int" >       48      162      173      174      222 </v>
   <v type="int" >       48      162      163      174      222 </v>
   <v type="int" >       48      162      163      211      222 </v>
   <v type="int" >       24      162      162      173      222 </v>
   <v type="int" >       24      162      162      210      222 </v>
   <v type="int" >       48      162      210      211      222 </v>
   <v type="int" >       48      163      174      175      223 </v>
   <v type="int" >       48      163      164      175      223 </v>
   <v type="int" >       48      163      164      212      223 </v>
   <v type="int" >       48      163      174      222      223 </v>
   <v type="int" >       48      163      211      222      223 </v>
   <v type="int" >       48      163      211      212      223 </v>
   <v type="int" >       48      164      175      176      224 </v>
   <v type="int" >       48      164      165      176      224 </v>
   <v type="int" >       48      164      165      213      224 </v>
   <v type="int" >       48      164      175      223      224 </v>
   <v type="int" >       48      164      212      223      224 </v>
   <v type="int" >       48      164      212      213      224 </v>
   <v type="int" >       48      165      176      177      225 </v>
   <v type="int" >       48      165      166      177      225 </v>
   <v type="int" >       48      165      166      214      225 </v>
   <v type="int" >       48      165      176      224      225 </v>
   <v type="int" >       48      165      213      224      225 </v>
   <v type="int" >       48      165      213      214      225 </v>
   <v type="int" >       48      166      177      178      226 </v>
   <v type="int" >       48      166      167      178      226 </v>
   <v type="int" >       48      166      167      215      226 </v>
   <v type="int" >       48      166      177      225      226 </v>
   <v type="int" >       48      166      214      225      226 </v>
   <v type="int" >       48      166      214      215      226 </v>
   <v type="int" >       48      167      178      179      227 </v>
   <v type="int" >       48      167      168      179      227 </v>
   <v type="int" >       48      167      168      216      227 </v>
   <v type="int" >       48      167      178      226      227 </v>
   <v type="int" >       48      167      215      226      227 </v>
   <v type="int" >       48      167      215      216      227 </v>
   <v type="int" >       48      168      179      180      228 </v>
   <v type="int" >       48      168      169      180      228 </v>
   <v type="int" >       48      168      169      217      228 </v>
   <v type="int" >       48      168      179      227      228 </v>
   <v type="int" >       48      168      216      227      228 </v>
   <v type="int" >       48      168      216      217      228 </v>
   <v type="int" >       48      169      180      181      229 </v>
   <v type="int" >       48      169      170      181      229 </v>
   <v type="int" >       48      169      170      218      229 </v>
   <v type="int" >       48      169      180      228      229 </v>
   <v type="int" >       48      169      217      228      229 </v>
   <v type="int" >       48      169      217      218      229 </v>
   <v type="int" >       48      170      181      182      230 </v>
   <v type="int" >       48      170      171      182      230 </v>
   <v type="int" >       48      170      171      219      230 </v>
   <v type="int" >       48      170      181      229      230 </v>
   <v type="int" >       48      170      218      229      230 </v>
   <v type="int" >       48      170      218      219      230 </v>
   <v type="int" >       24      171      171      182      231 </v>
   <v type="int" >       24      171      171      172      231 </v>
   <v type="int" >       48      171      172      220      231 </v>
   <v type="int" >       48      171      182      230      231 </v>
   <v type="int" >       48      171      219      230      231 </v>
   <v type="int" >       48      171      219      220      231 </v>
   <v type="int" >       24      172      220      220      231 </v>
   <v type="int" >       24      172      220      220      221 </v>
   <v type="int" >       48       16       17       27      125 </v>
   <v type="int" >       48       16       27       28      125 </v>
   <v type="int" >       48       16       28      124      125 </v>
   <v type="int" >       48       81       82       93      173 </v>
   <v type="int" >       48       81       82      162      173 </v>
   <v type="int" >       48       68       81       82      162 </v>
   <v type="int" >       48       93      173      174      183 </v>
   <v type="int" >       24      173      174      174      183 </v>
   <v type="int" >       24      173      174      174      222 </v>
   <v type="int" >       48       82       93      173      174 </v>
   <v type="int" >       48       82      162      173      174 </v>
   <v type="int" >       48      174      183      184      232 </v>
   <v type="int" >       48      174      175      184      232 </v>
   <v type="int" >       48      174      175      223      232 </v>
   <v type="int" >       24      174      174      183      232 </v>
   <v type="int" >       24      174      174      222      232 </v>
   <v type="int" >       48      174      222      223      232 </v>
   <v type="int" >       48      175      184      185      233 </v>
   <v type="int" >       48      175      176      185      233 </v>
   <v type="int" >       48      175      176      224      233 </v>
   <v type="int" >       48      175      184      232      233 </v>
   <v type="int" >       48      175      223      232      233 </v>
   <v type="int" >       48      175      223      224      233 </v>
   <v type="int" >       48      176      185      186      234 </v>
   <v type="int" >       48      176      177      186      234 </v>
   <v type="int" >       48      176      177      225      234 </v>
   <v type="int" >       48      176      185      233      234 </v>
   <v type="int" >       48      176      224      233      234 </v>
   <v type="int" >       48      176      224      225      234 </v>
   <v type="int" >       48      177      186      187      235 </v>
   <v type="int" >       48      177      178      187      235 </v>
   <v type="int" >       48      177      178      226      235 </v>
   <v type="int" >       48      177      186      234      235 </v>
   <v type="int" >       48      177      225      234      235 </v>
   <v type="int" >       48      177      225      226      235 </v>
   <v type="int" >       48      178      187      188      236 </v>
   <v type="int" >       48      178      179      188      236 </v>
   <v type="int" >       48      178      179      227      236 </v>
   <v type="int" >       48      178      187      235      236 </v>
   <v type="int" >       48      178      226      235      236 </v>
   <v type="int" >       48      178      226      227      236 </v>
   <v type="int" >       48      179      188      189      237 </v>
   <v type="int" >       48      179      180      189      237 </v>
   <v type="int" >       48      179      180      228      237 </v>
   <v type="int" >       48      179      188      236      237 </v>
   <v type="int" >       48      179      227      236      237 </v>
   <v type="int" >       48      179      227      228      237 </v>
   <v type="int" >       48      180      189      190      238 </v>
   <v type="int" >       48      180      181      190      238 </v>
   <v type="int" >       48      180      181      229      238 </v>
   <v type="int" >       48      180      189      237      238 </v>
   <v type="int" >       48      180      228      237      238 </v>
   <v type="int" >       48      180      228      229      238 </v>
   <v type="int" >       24      181      181      190      239 </v>
   <v type="int" >       24      181      181      182      239 </v>
   <v type="int" >       48      181      182      230      239 </v>
   <v type="int" >       48      181      190      238      239 </v>
   <v type="int" >       48      181      229      238      239 </v>
   <v type="int" >       48      181      229      230      239 </v>
   <v type="int" >       24      182      230      230      239 </v>
   <v type="int" >       24      182      230      230      231 </v>
   <v type="int" >       48       17       18       26      126 </v>
   <v type="int" >       48       17       26       27      126 </v>
   <v type="int" >       48       17       27      125      126 </v>
   <v type="int" >       48       93       94      103      183 </v>
   <v type="int" >       48       93       94      174      183 </v>
   <v type="int" >       48       82       93       94      174 </v>
   <v type="int" >       48      103      183      184      191 </v>
   <v type="int" >       24      183      184      184      191 </v>
   <v type="int" >       24      183      184      184      232 </v>
   <v type="int" >       48       94      103      183      184 </v>
   <v type="int" >       48       94      174      183      184 </v>
   <v type="int" >       48      184      191      192      240 </v>
   <v type="int" >       48      184      185      192      240 </v>
   <v type="int" >       48      184      185      233      240 </v>
   <v type="int" >       24      184      184      191      240 </v>
   <v type="int" >       24      184      184      232      240 </v>
   <v type="int" >       48      184      232      233      240 </v>
   <v type="int" >       48      185      192      193      241 </v>
   <v type="int" >       48      185      186      193      241 </v>
   <v type="int" >       48      185      186      234      241 </v>
   <v type="int" >       48      185      192      240      241 </v>
   <v type="int" >       48      185      233      240      241 </v>
   <v type="int" >       48      185      233      234      241 </v>
   <v type="int" >       48      186      193      194      242 </v>
   <v type="int" >       48      186      187      194      242 </v>
   <v type="int" >       48      186      187      235      242 </v>
   <v type="int" >       48      186      193      241      242 </v>
   <v type="int" >       48      186      234      241      242 </v>
   <v type="int" >       48      186      234      235      242 </v>
   <v type="int" >       48      187      194      195      243 </v>
   <v type="int" >       48      187      188      195      243 </v>
   <v type="int" >       48      187      188      236      243 </v>
   <v type="int" >       48      187      194      242      243 </v>
   <v type="int" >       48      187      235      242      243 </v>
   <v type="int" >       48      187      235      236      243 </v>
   <v type="int" >       48      188      195      196      244 </v>
   <v type="int" >       48      188      189      196      244 </v>
   <v type="int" >       48      188      189      237      244 </v>
   <v type="int" >       48      188      195      243      244 </v>
   <v type="int" >       48      188      236      243      244 </v>
   <v type="int" >       48      188      236      237      244 </v>
   <v type="int" >       24      189      189      196      245 </v>
   <v type="int" >       24      189      189      190      245 </v>
   <v type="int" >       48      189      190      238      245 </v>
   <v type="int" >       48      189      196      244      245 </v>
   <v type="int" >       48      189      237      244      245 </v>
   <v type="int" >       48      189      237      238      245 </v>
   <v type="int" >       24      190      238      238      245 </v>
   <v type="int" >       24      190      238      238      239 </v>
   <v type="int" >       48       18       19       25      127 </v>
   <v type="int" >       48       18       25       26      127 </v>
   <v type="int" >       48       18       26      126      127 </v>
   <v type="int" >       48      103      104      111      191 </v>
   <v type="int" >       48      103      104      184      191 </v>
   <v type="int" >       48       94      103      104      184 </v>
   <v type="int" >       48      111      191      192      197 </v>
   <v type="int" >       24      191      192      192      197 </v>
   <v type="int" >       24      191      192      192      240 </v>
   <v type="int" >       48      104      111      191      192 </v>
   <v type="int" >       48      104      184      191      192 </v>
   <v type="int" >       48      192      197      198      246 </v>
   <v type="int" >       48      192      193      198      246 </v>
   <v type="int" >       48      192      193      241      246 </v>
   <v type="int" >       24      192      192      197      246 </v>
   <v type="int" >       24      192      192      240      246 </v>
   <v type="int" >       48      192      240      241      246 </v>
   <v type="int" >       48      193      198      199      247 </v>
   <v type="int" >       48      193      194      199      247 </v>
   <v type="int" >       48      193      194      242      247 </v>
   <v type="int" >       48      193      198      246      247 </v>
   <v type="int" >       48      193      241      246      247 </v>
   <v type="int" >       48      193      241      242      247 </v>
   <v type="int" >       48      194      199      200      248 </v>
   <v type="int" >       48      194      195      200      248 </v>
   <v type="int" >       48      194      195      243      248 </v>
   <v type="int" >       48      194      199      247      248 </v>
   <v type="int" >       48      194      242      247      248 </v>
   <v type="int" >       48      194      242      243      248 </v>
   <v type="int" >       24      195      195      200      249 </v>
   <v type="int" >       24      195      195      196      249 </v>
   <v type="int" >       48      195      196      244      249 </v>
   <v type="int" >       48      195      200      248      249 </v>
   <v type="int" >       48      195      243      248      249 </v>
   <v type="int" >       48      195      243      244      249 </v>
   <v type="int" >       24      196      244      244      249 </v>
   <v type="int" >       24      196      244      244      245 </v>
   <v type="int" >       48       19       20       24      128 </v>
   <v type="int" >       48       19       24       25      128 </v>
   <v type="int" >       48       19       25      127      128 </v>
   <v type="int" >       48      111      112      117      197 </v>
   <v type="int" >       48      111      112      192      197 </v>
   <v type="int" >       48      104      111      112      192 </v>
   <v type="int" >       48      117      197      198      201 </v>
   <v type="int" >       24      197      198      198      201 </v>
   <v type="int" >       24      197      198      198      246 </v>
   <v type="int" >       48      112      117      197      198 </v>
   <v type="int" >       48      112      192      197      198 </v>
   <v type="int" >       48      198      201      202      250 </v>
   <v type="int" >       48      198      199      202      250 </v>
   <v type="int" >       48      198      199      247      250 </v>
   <v type="int" >       24      198      198      201      250 </v>
   <v type="int" >       24      198      198      246      250 </v>
   <v type="int" >       48      198      246      247      250 </v>
   <v type="int" >       24      199      199      202      251 </v>
   <v type="int" >       24      199      199      200      251 </v>
   <v type="int" >       48      199      200      248      251 </v>
   <v type="int" >       48      199      202      250      251 </v>
   <v type="int" >       48      199      247      250      251 </v>
   <v type="int" >       48      199      247      248      251 </v>
   <v type="int" >       24      200      248      248      251 </v>
   <v type="int" >       24      200      248      248      249 </v>
   <v type="int" >       48       20       21       23      129 </v>
   <v type="int" >       48       20       23       24      129 </v>
   <v type="int" >       48       20       24      128      129 </v>
   <v type="int" >       48      117      118      121      201 </v>
   <v type="int" >       48      117      118      198      201 </v>
   <v type="int" >       48      112      117      118      198 </v>
   <v type="int" >       24      121      201      201      202 </v>
   <v type="int" >       12      201      201      202      202 </v>
   <v type="int" >       24      201      202      202      250 </v>
   <v type="int" >       48      118      121      201      202 </v>
   <v type="int" >       48      118      198      201      202 </v>
   <v type="int" >       12      202      202      250      250 </v>
   <v type="int" >       24      202      250      250      251 </v>
   <v type="int" >       48       21       22       22      130 </v>
   <v type="int" >       48       21       22       23      130 </v>
   <v type="int" >       48       21       23      129      130 </v>
   <v type="int" >       24      118      118      121      202 </v>
   <v type="int" >       24       22       22      130      130 </v>
   <v type="int" >       24        2        2       12       31 </v>
   <v type="int" >       48        3        4       14       30 </v>
   <v type="int" >       48        4       14       29       30 </v>
   <v type="int" >       24       48       48       49      146 </v>
   <v type="int" >       48       48       65      145      146 </v>
   <v type="int" >       48       47       48       65      145 </v>
   <v type="int" >       24       48       48       65      146 </v>
   <v type="int" >       48       47       64      144      145 </v>
   <v type="int" >       48       46       47       64      144 </v>
   <v type="int" >       48       47       64       65      145 </v>
   <v type="int" >       48       46       63      143      144 </v>
   <v type="int" >       48       45       46       63      143 </v>
   <v type="int" >       48       46       63       64      144 </v>
   <v type="int" >       48       45       62      142      143 </v>
   <v type="int" >       48       44       45       62      142 </v>
   <v type="int" >       48       45       62       63      143 </v>
   <v type="int" >       48       44       61      141      142 </v>
   <v type="int" >       48       43       44       61      141 </v>
   <v type="int" >       48       44       61       62      142 </v>
   <v type="int" >       48       43       60      140      141 </v>
   <v type="int" >       48       42       43       60      140 </v>
   <v type="int" >       48       43       60       61      141 </v>
   <v type="int" >       48       42       59      139      140 </v>
   <v type="int" >       48       41       42       59      139 </v>
   <v type="int" >       48       42       59       60      140 </v>
   <v type="int" >       48       41       58      138      139 </v>
   <v type="int" >       48       40       41       58      138 </v>
   <v type="int" >       48       41       58       59      139 </v>
   <v type="int" >       48       40       57      137      138 </v>
   <v type="int" >       48       39       40       57      137 </v>
   <v type="int" >       48       40       57       58      138 </v>
   <v type="int" >       48       39       56      136      137 </v>
   <v type="int" >       48       38       39       56      136 </v>
   <v type="int" >       48       39       56       57      137 </v>
   <v type="int" >       48       38       55      135      136 </v>
   <v type="int" >       48       37       38       55      135 </v>
   <v type="int" >       48       38       55       56      136 </v>
   <v type="int" >       48       37       54      134      135 </v>
   <v type="int" >       48       36       37       54      134 </v>
   <v type="int" >       48       37       54       55      135 </v>
   <v type="int" >       48       36       53      133      134 </v>
   <v type="int" >       48       35       36       53      133 </v>
   <v type="int" >       48       36       53       54      134 </v>
   <v type="int" >       48       35       52      132      133 </v>
   <v type="int" >       48       34       35       52      132 </v>
   <v type="int" >       48       35       52       53      133 </v>
   <v type="int" >       24       33       33       50      131 </v>
   <v type="int" >       24       32       33       33       50 </v>
   <v type="int" >       48       33       50       51      131 </v>
   <v type="int" >       48        4       14       15       29 </v>
   <v type="int" >       24       65      145      145      146 </v>
   <v type="int" >       48       64      144      145      160 </v>
   <v type="int" >       24       65      145      145      160 </v>
   <v type="int" >       48       64       65      145      160 </v>
   <v type="int" >       48       63      143      144      159 </v>
   <v type="int" >       48       64      144      159      160 </v>
   <v type="int" >       48       63       64      144      159 </v>
   <v type="int" >       48       62      142      143      158 </v>
   <v type="int" >       48       63      143      158      159 </v>
   <v type="int" >       48       62       63      143      158 </v>
   <v type="int" >       48       61      141      142      157 </v>
   <v type="int" >       48       62      142      157      158 </v>
   <v type="int" >       48       61       62      142      157 </v>
   <v type="int" >       48       60      140      141      156 </v>
   <v type="int" >       48       61      141      156      157 </v>
   <v type="int" >       48       60       61      141      156 </v>
   <v type="int" >       48       59      139      140      155 </v>
   <v type="int" >       48       60      140      155      156 </v>
   <v type="int" >       48       59       60      140      155 </v>
   <v type="int" >       48       58      138      139      154 </v>
   <v type="int" >       48       59      139      154      155 </v>
   <v type="int" >       48       58       59      139      154 </v>
   <v type="int" >       48       57      137      138      153 </v>
   <v type="int" >       48       58      138      153      154 </v>
   <v type="int" >       48       57       58      138      153 </v>
   <v type="int" >       48       56      136      137      152 </v>
   <v type="int" >       48       57      137      152      153 </v>
   <v type="int" >       48       56       57      137      152 </v>
   <v type="int" >       48       55      135      136      151 </v>
   <v type="int" >       48       56      136      151      152 </v>
   <v type="int" >       48       55       56      136      151 </v>
   <v type="int" >       48       54      134      135      150 </v>
   <v type="int" >       48       55      135      150      151 </v>
   <v type="int" >       48       54       55      135      150 </v>
   <v type="int" >       48       53      133      134      149 </v>
   <v type="int" >       48       54      134      149      150 </v>
   <v type="int" >       48       53       54      134      149 </v>
   <v type="int" >       48       52      132      133      148 </v>
   <v type="int" >       48       53      133      148      149 </v>
   <v type="int" >       48       52       53      133      148 </v>
   <v type="int" >       24       51       51      131      147 </v>
   <v type="int" >       24       50       51       51      131 </v>
   <v type="int" >       24      203      204      204      210 </v>
   <v type="int" >       48      204      210      211      221 </v>
   <v type="int" >       48      204      205      211      221 </v>
   <v type="int" >       24      204      204      210      221 </v>
   <v type="int" >       48      205      211      212      220 </v>
   <v type="int" >       48      205      206      212      220 </v>
   <v type="int" >       48      205      211      220      221 </v>
   <v type="int" >       48      206      212      213      219 </v>
   <v type="int" >       48      206      207      213      219 </v>
   <v type="int" >       48      206      212      219      220 </v>
   <v type="int" >       48      207      213      214      218 </v>
   <v type="int" >       48      207      208      214      218 </v>
   <v type="int" >       48      207      213      218      219 </v>
   <v type="int" >       48      208      214      215      217 </v>
   <v type="int" >       48      208      209      215      217 </v>
   <v type="int" >       48      208      214      217      218 </v>
   <v type="int" >       48      209      215      216      216 </v>
   <v type="int" >       24      209      209      216      216 </v>
   <v type="int" >       48      209      215      216      217 </v>
   <v type="int" >       48       52       53       68      148 </v>
   <v type="int" >       48       68      148      149      162 </v>
   <v type="int" >       48       53       68      148      149 </v>
   <v type="int" >       24      210      211      211      222 </v>
   <v type="int" >       24      210      211      211      221 </v>
   <v type="int" >       48      211      222      223      252 </v>
   <v type="int" >       48      211      212      223      252 </v>
   <v type="int" >       48      211      212      220      252 </v>
   <v type="int" >       24      211      211      222      252 </v>
   <v type="int" >       24      211      211      221      252 </v>
   <v type="int" >       48      211      220      221      252 </v>
   <v type="int" >       48      212      223      224      253 </v>
   <v type="int" >       48      212      213      224      253 </v>
   <v type="int" >       48      212      213      219      253 </v>
   <v type="int" >       48      212      223      252      253 </v>
   <v type="int" >       48      212      220      252      253 </v>
   <v type="int" >       48      212      219      220      253 </v>
   <v type="int" >       48      213      224      225      254 </v>
   <v type="int" >       48      213      214      225      254 </v>
   <v type="int" >       48      213      214      218      254 </v>
   <v type="int" >       48      213      224      253      254 </v>
   <v type="int" >       48      213      219      253      254 </v>
   <v type="int" >       48      213      218      219      254 </v>
   <v type="int" >       48      214      225      226      255 </v>
   <v type="int" >       48      214      215      226      255 </v>
   <v type="int" >       48      214      215      217      255 </v>
   <v type="int" >       48      214      225      254      255 </v>
   <v type="int" >       48      214      218      254      255 </v>
   <v type="int" >       48      214      217      218      255 </v>
   <v type="int" >       48      215      226      227      256 </v>
   <v type="int" >       48      215      216      227      256 </v>
   <v type="int" >       48      215      216      216      256 </v>
   <v type="int" >       48      215      226      255      256 </v>
   <v type="int" >       48      215      217      255      256 </v>
   <v type="int" >       48      215      216      217      256 </v>
   <v type="int" >       48      216      227      228      256 </v>
   <v type="int" >       48      216      217      228      256 </v>
   <v type="int" >       48      216      227      256      256 </v>
   <v type="int" >       24      216      216      256      256 </v>
   <v type="int" >       48      217      228      229      255 </v>
   <v type="int" >       48      217      218      229      255 </v>
   <v type="int" >       48      217      228      255      256 </v>
   <v type="int" >       48      218      229      230      254 </v>
   <v type="int" >       48      218      219      230      254 </v>
   <v type="int" >       48      218      229      254      255 </v>
   <v type="int" >       48      219      230      231      253 </v>
   <v type="int" >       48      219      220      231      253 </v>
   <v type="int" >       48      219      230      253      254 </v>
   <v type="int" >       24      220      220      231      252 </v>
   <v type="int" >       24      220      220      221      252 </v>
   <v type="int" >       48      220      231      252      253 </v>
   <v type="int" >       48       68       69       82      162 </v>
   <v type="int" >       48       68       69      149      162 </v>
   <v type="int" >       48       53       68       69      149 </v>
   <v type="int" >       48       82      162      163      174 </v>
   <v type="int" >       48       69       82      162      163 </v>
   <v type="int" >       48       69      149      162      163 </v>
   <v type="int" >       24      222      223      223      232 </v>
   <v type="int" >       24      222      223      223      252 </v>
   <v type="int" >       48      223      232      233      257 </v>
   <v type="int" >       48      223      224      233      257 </v>
   <v type="int" >       48      223      224      253      257 </v>
   <v type="int" >       24      223      223      232      257 </v>
   <v type="int" >       24      223      223      252      257 </v>
   <v type="int" >       48      223      252      253      257 </v>
   <v type="int" >       48      224      233      234      258 </v>
   <v type="int" >       48      224      225      234      258 </v>
   <v type="int" >       48      224      225      254      258 </v>
   <v type="int" >       48      224      233      257      258 </v>
   <v type="int" >       48      224      253      257      258 </v>
   <v type="int" >       48      224      253      254      258 </v>
   <v type="int" >       48      225      234      235      259 </v>
   <v type="int" >       48      225      226      235      259 </v>
   <v type="int" >       48      225      226      255      259 </v>
   <v type="int" >       48      225      234      258      259 </v>
   <v type="int" >       48      225      254      258      259 </v>
   <v type="int" >       48      225      254      255      259 </v>
   <v type="int" >       48      226      235      236      260 </v>
   <v type="int" >       48      226      227      236      260 </v>
   <v type="int" >       48      226      227      256      260 </v>
[...]
        <r>  0.0000  0.3113  0.0000  0.0000  0.0000  0.0000  0.0000  0.0000  0.0000 </r>
       </set>
       <set comment="band 3">
        <r>  0.2563  0.0000  0.0733  0.1412  0.0000  0.0000  0.0000  0.0000  0.0000 </r>
       </set>
       <set comment="band 4">
        <r>  0.0565  0.0000  0.2060  0.0817  0.0000  0.0000  0.0000  0.0000  0.0000 </r>
       </set>
       <set comment="band 5">
        <r>  0.0013  0.0000  0.0449  0.3415  0.0000  0.0000  0.0000  0.0000  0.0000 </r>
       </set>
       <set comment="band 6">
        <r>  0.0000  0.1402  0.0000  0.0000  0.0000  0.0000  0.0000  0.0000  0.0000 </r>
       </set>
      </set>
      <set comment="kpoint 265">
       <set comment="band 1">
        <r>  0.2591  0.1231  0.0000  0.0139  0.0000  0.0000  0.0000  0.0000  0.0000 </r>
       </set>
       <set comment="band 2">
        <r>  0.0000  0.0000  0.3103  0.0000  0.0000  0.0000  0.0000  0.0000  0.0000 </r>
       </set>
       <set comment="band 3">
        <r>  0.3289  0.1786  0.0000  0.0503  0.0000  0.0000  0.0000  0.0000  0.0000 </r>
       </set>
       <set comment="band 4">
        <r>  0.0006  0.0565  0.0000  0.2014  0.0000  0.0000  0.0000  0.0000  0.0000 </r>
       </set>
       <set comment="band 5">
        <r>  0.0000  0.0000  0.1521  0.0000  0.0000  0.0000  0.0000  0.0000  0.0000 </r>
       </set>
       <set comment="band 6">
        <r>  0.0857  0.0192  0.0000  0.2386  0.0000  0.0000  0.0000  0.0000  0.0000 </r>
       </set>
      </set>
      <set comment="kpoint 266">
       <set comment="band 1">
        <r>  0.2437  0.1365  0.0002  0.0170  0.0000  0.0000  0.0000  0.0000  0.0000 </r>
       </set>
       <set comment="band 2">
        <r>  0.1181  0.0268  0.1930  0.0435  0.0000  0.0000  0.0000  0.0000  0.0000 </r>
       </set>
       <set comment="band 3">
        <r>  0.2226  0.1681  0.0728  0.0000  0.0000  0.0000  0.0000  0.0000  0.0000 </r>
       </set>
       <set comment="band 4">
        <r>  0.0173  0.0195  0.0497  0.1914  0.0000  0.0000  0.0000  0.0000  0.0000 </r>
       </set>
       <set comment="band 5">
        <r>  0.0257  0.0035  0.1017  0.0717  0.0000  0.0000  0.0000  0.0000  0.0000 </r>
       </set>
       <set comment="band 6">
        <r>  0.0425  0.0109  0.0463  0.2027  0.0000  0.0000  0.0000  0.0000  0.0000 </r>
       </set>
      </set>
      <set comment="kpoint 267">
       <set comment="band 1">
        <r>  0.2348  0.1494  0.0004  0.0180  0.0000  0.0000  0.0000  0.0000  0.0000 </r>
       </set>
       <set comment="band 2">
        <r>  0.1348  0.0226  0.1654  0.0556  0.0000  0.0000  0.0000  0.0000  0.0000 </r>
       </set>
       <set comment="band 3">
        <r>  0.1915  0.1696  0.0441  0.0183  0.0000  0.0000  0.0000  0.0000  0.0000 </r>
       </set>
       <set comment="band 4">
        <r>  0.0493  0.0020  0.1133  0.1513  0.0000  0.0000  0.0000  0.0000  0.0000 </r>
       </set>
       <set comment="band 5">
        <r>  0.0347  0.0033  0.0728  0.1199  0.0000  0.0000  0.0000  0.0000  0.0000 </r>
       </set>
       <set comment="band 6">
        <r>  0.0129  0.0093  0.0634  0.1998  0.0000  0.0000  0.0000  0.0000  0.0000 </r>
       </set>
      </set>
      <set comment="kpoint 268">
       <set comment="band 1">
        <r>  0.3175  0.1179  0.0107  0.0023  0.0000  0.0000  0.0000  0.0000  0.0000 </r>
       </set>
       <set comment="band 2">
        <r>  0.0439  0.0705  0.1395  0.0734  0.0000  0.0000  0.0000  0.0000  0.0000 </r>
       </set>
       <set comment="band 3">
        <r>  0.1901  0.1474  0.0346  0.0394  0.0000  0.0000  0.0000  0.0000  0.0000 </r>
       </set>
       <set comment="band 4">
        <r>  0.0625  0.0002  0.1473  0.1229  0.0000  0.0000  0.0000  0.0000  0.0000 </r>
       </set>
       <set comment="band 5">
        <r>  0.0346  0.0021  0.0575  0.1526  0.0000  0.0000  0.0000  0.0000  0.0000 </r>
       </set>
       <set comment="band 6">
        <r>  0.0022  0.0270  0.0298  0.1962  0.0000  0.0000  0.0000  0.0000  0.0000 </r>
       </set>
      </set>
      <set comment="kpoint 269">
       <set comment="band 1">
        <r>  0.2576  0.0000  0.1200  0.0356  0.0000  0.0000  0.0000  0.0000  0.0000 </r>
       </set>
       <set comment="band 2">
        <r>  0.0757  0.2273  0.0159  0.0319  0.0000  0.0000  0.0000  0.0000  0.0000 </r>
       </set>
       <set comment="band 3">
        <r>  0.2151  0.1016  0.0371  0.0633  0.0000  0.0000  0.0000  0.0000  0.0000 </r>
       </set>
       <set comment="band 4">
        <r>  0.0654  0.0000  0.1685  0.1054  0.0000  0.0000  0.0000  0.0000  0.0000 </r>
       </set>
       <set comment="band 5">
        <r>  0.0296  0.0009  0.0478  0.1848  0.0000  0.0000  0.0000  0.0000  0.0000 </r>
       </set>
       <set comment="band 6">
        <r>  0.0189  0.0698  0.0012  0.0810  0.0000  0.0000  0.0000  0.0000  0.0000 </r>
       </set>
      </set>
      <set comment="kpoint 270">
       <set comment="band 1">
        <r>  0.2529  0.0000  0.1133  0.0358  0.0000  0.0000  0.0000  0.0000  0.0000 </r>
       </set>
       <set comment="band 2">
        <r>  0.0000  0.3230  0.0000  0.0000  0.0000  0.0000  0.0000  0.0000  0.0000 </r>
       </set>
       <set comment="band 3">
        <r>  0.2924  0.0000  0.0548  0.1073  0.0000  0.0000  0.0000  0.0000  0.0000 </r>
       </set>
       <set comment="band 4">
        <r>  0.0634  0.0000  0.1830  0.0943  0.0000  0.0000  0.0000  0.0000  0.0000 </r>
       </set>
       <set comment="band 5">
        <r>  0.0208  0.0000  0.0422  0.2267  0.0000  0.0000  0.0000  0.0000  0.0000 </r>
       </set>
       <set comment="band 6">
        <r>  0.0000  0.1315  0.0000  0.0000  0.0000  0.0000  0.0000  0.0000  0.0000 </r>
       </set>
      </set>
      <set comment="kpoint 271">
       <set comment="band 1">
        <r>  0.2274  0.1571  0.0000  0.0116  0.0000  0.0000  0.0000  0.0000  0.0000 </r>
       </set>
       <set comment="band 2">
        <r>  0.2797  0.1919  0.0000  0.0007  0.0000  0.0000  0.0000  0.0000  0.0000 </r>
       </set>
       <set comment="band 3">
        <r>  0.0000  0.0000  0.3130  0.0000  0.0000  0.0000  0.0000  0.0000  0.0000 </r>
       </set>
       <set comment="band 4">
        <r>  0.0891  0.0006  0.0000  0.2524  0.0000  0.0000  0.0000  0.0000  0.0000 </r>
       </set>
       <set comment="band 5">
        <r>  0.0000  0.0000  0.1541  0.0000  0.0000  0.0000  0.0000  0.0000  0.0000 </r>
       </set>
       <set comment="band 6">
        <r>  0.0983  0.0072  0.0000  0.2373  0.0000  0.0000  0.0000  0.0000  0.0000 </r>
       </set>
      </set>
      <set comment="kpoint 272">
       <set comment="band 1">
        <r>  0.2059  0.1777  0.0001  0.0127  0.0000  0.0000  0.0000  0.0000  0.0000 </r>
       </set>
       <set comment="band 2">
        <r>  0.3195  0.1457  0.0227  0.0001  0.0000  0.0000  0.0000  0.0000  0.0000 </r>
       </set>
       <set comment="band 3">
        <r>  0.0007  0.0203  0.2136  0.0607  0.0000  0.0000  0.0000  0.0000  0.0000 </r>
       </set>
       <set comment="band 4">
        <r>  0.0824  0.0001  0.0818  0.1773  0.0000  0.0000  0.0000  0.0000  0.0000 </r>
       </set>
       <set comment="band 5">
        <r>  0.0272  0.0008  0.1036  0.0676  0.0000  0.0000  0.0000  0.0000  0.0000 </r>
       </set>
       <set comment="band 6">
        <r>  0.0515  0.0028  0.0446  0.1996  0.0000  0.0000  0.0000  0.0000  0.0000 </r>
       </set>
      </set>
      <set comment="kpoint 273">
       <set comment="band 1">
        <r>  0.1899  0.2053  0.0003  0.0073  0.0000  0.0000  0.0000  0.0000  0.0000 </r>
       </set>
       <set comment="band 2">
        <r>  0.2406  0.0648  0.1087  0.0230  0.0000  0.0000  0.0000  0.0000  0.0000 </r>
       </set>
       <set comment="band 3">
        <r>  0.1074  0.0687  0.0872  0.0743  0.0000  0.0000  0.0000  0.0000  0.0000 </r>
       </set>
       <set comment="band 4">
        <r>  0.0775  0.0000  0.1287  0.1377  0.0000  0.0000  0.0000  0.0000  0.0000 </r>
       </set>
       <set comment="band 5">
        <r>  0.0370  0.0004  0.0738  0.1147  0.0000  0.0000  0.0000  0.0000  0.0000 </r>
       </set>
       <set comment="band 6">
        <r>  0.0212  0.0010  0.0658  0.1909  0.0000  0.0000  0.0000  0.0000  0.0000 </r>
       </set>
      </set>
      <set comment="kpoint 274">
       <set comment="band 1">
        <r>  0.2847  0.0000  0.1224  0.0302  0.0000  0.0000  0.0000  0.0000  0.0000 </r>
       </set>
       <set comment="band 2">
        <r>  0.0000  0.3334  0.0000  0.0000  0.0000  0.0000  0.0000  0.0000  0.0000 </r>
       </set>
       <set comment="band 3">
        <r>  0.2595  0.0000  0.0570  0.0902  0.0000  0.0000  0.0000  0.0000  0.0000 </r>
       </set>
       <set comment="band 4">
        <r>  0.0726  0.0000  0.1535  0.1172  0.0000  0.0000  0.0000  0.0000  0.0000 </r>
       </set>
       <set comment="band 5">
        <r>  0.0363  0.0000  0.0576  0.1476  0.0000  0.0000  0.0000  0.0000  0.0000 </r>
       </set>
       <set comment="band 6">
        <r>  0.0011  0.0000  0.0551  0.2194  0.0000  0.0000  0.0000  0.0000  0.0000 </r>
       </set>
      </set>
      <set comment="kpoint 275">
       <set comment="band 1">
        <r>  0.1531  0.2257  0.0000  0.0068  0.0000  0.0000  0.0000  0.0000  0.0000 </r>
       </set>
       <set comment="band 2">
        <r>  0.3240  0.1199  0.0000  0.0093  0.0000  0.0000  0.0000  0.0000  0.0000 </r>
       </set>
       <set comment="band 3">
        <r>  0.0000  0.0000  0.3148  0.0000  0.0000  0.0000  0.0000  0.0000  0.0000 </r>
       </set>
       <set comment="band 4">
        <r>  0.1235  0.0000  0.0000  0.2483  0.0000  0.0000  0.0000  0.0000  0.0000 </r>
       </set>
       <set comment="band 5">
        <r>  0.0000  0.0000  0.1537  0.0000  0.0000  0.0000  0.0000  0.0000  0.0000 </r>
       </set>
       <set comment="band 6">
        <r>  0.1038  0.0008  0.0000  0.2359  0.0000  0.0000  0.0000  0.0000  0.0000 </r>
       </set>
      </set>
      <set comment="kpoint 276">
       <set comment="band 1">
        <r>  0.0000  0.3423  0.0000  0.0000  0.0000  0.0000  0.0000  0.0000  0.0000 </r>
       </set>
       <set comment="band 2">
        <r>  0.4975  0.0000  0.0003  0.0167  0.0000  0.0000  0.0000  0.0000  0.0000 </r>
       </set>
       <set comment="band 3">
        <r>  0.0181  0.0000  0.2325  0.0618  0.0000  0.0000  0.0000  0.0000  0.0000 </r>
       </set>
       <set comment="band 4">
        <r>  0.0953  0.0000  0.0858  0.1724  0.0000  0.0000  0.0000  0.0000  0.0000 </r>
       </set>
       <set comment="band 5">
        <r>  0.0277  0.0000  0.1047  0.0665  0.0000  0.0000  0.0000  0.0000  0.0000 </r>
       </set>
       <set comment="band 6">
        <r>  0.0546  0.0000  0.0449  0.1991  0.0000  0.0000  0.0000  0.0000  0.0000 </r>
       </set>
      </set>
      <set comment="kpoint 277">
       <set comment="band 1">
        <r>  0.2548  0.1192  0.0000  0.0239  0.0000  0.0000  0.0000  0.0000  0.0000 </r>
       </set>
       <set comment="band 2">
        <r>  0.0000  0.0000  0.3159  0.0000  0.0000  0.0000  0.0000  0.0000  0.0000 </r>
       </set>
       <set comment="band 3">
        <r>  0.3036  0.0755  0.0000  0.1184  0.0000  0.0000  0.0000  0.0000  0.0000 </r>
       </set>
       <set comment="band 4">
        <r>  0.0459  0.1598  0.0000  0.1007  0.0000  0.0000  0.0000  0.0000  0.0000 </r>
       </set>
       <set comment="band 5">
        <r>  0.0000  0.0000  0.1434  0.0000  0.0000  0.0000  0.0000  0.0000  0.0000 </r>
       </set>
       <set comment="band 6">
        <r>  0.0247  0.0296  0.0000  0.3355  0.0000  0.0000  0.0000  0.0000  0.0000 </r>
       </set>
      </set>
      <set comment="kpoint 278">
       <set comment="band 1">
        <r>  0.2444  0.1306  0.0001  0.0267  0.0000  0.0000  0.0000  0.0000  0.0000 </r>
       </set>
       <set comment="band 2">
        <r>  0.0916  0.0150  0.2161  0.0372  0.0000  0.0000  0.0000  0.0000  0.0000 </r>
       </set>
       <set comment="band 3">
        <r>  0.2382  0.0602  0.1038  0.0569  0.0000  0.0000  0.0000  0.0000  0.0000 </r>
       </set>
       <set comment="band 4">
        <r>  0.0390  0.1402  0.0019  0.1153  0.0000  0.0000  0.0000  0.0000  0.0000 </r>
       </set>
       <set comment="band 5">
        <r>  0.0082  0.0158  0.0584  0.2065  0.0000  0.0000  0.0000  0.0000  0.0000 </r>
       </set>
       <set comment="band 6">
        <r>  0.0032  0.0222  0.0642  0.1393  0.0000  0.0000  0.0000  0.0000  0.0000 </r>
       </set>
      </set>
      <set comment="kpoint 279">
       <set comment="band 1">
        <r>  0.2677  0.1322  0.0006  0.0208  0.0000  0.0000  0.0000  0.0000  0.0000 </r>
       </set>
       <set comment="band 2">
        <r>  0.0905  0.0282  0.1786  0.0540  0.0000  0.0000  0.0000  0.0000  0.0000 </r>
       </set>
       <set comment="band 3">
        <r>  0.2492  0.0874  0.1309  0.0111  0.0000  0.0000  0.0000  0.0000  0.0000 </r>
       </set>
       <set comment="band 4">
        <r>  0.0101  0.0896  0.0194  0.1472  0.0000  0.0000  0.0000  0.0000  0.0000 </r>
       </set>
       <set comment="band 5">
        <r>  0.0014  0.0235  0.0372  0.2679  0.0000  0.0000  0.0000  0.0000  0.0000 </r>
       </set>
       <set comment="band 6">
        <r>  0.0417  0.0292  0.0361  0.0151  0.0000  0.0000  0.0000  0.0000  0.0000 </r>
       </set>
      </set>
      <set comment="kpoint 280">
       <set comment="band 1">
        <r>  0.2280  0.1516  0.0000  0.0195  0.0000  0.0000  0.0000  0.0000  0.0000 </r>
       </set>
       <set comment="band 2">
        <r>  0.0000  0.0000  0.3187  0.0000  0.0000  0.0000  0.0000  0.0000  0.0000 </r>
       </set>
       <set comment="band 3">
        <r>  0.3840  0.1433  0.0000  0.0236  0.0000  0.0000  0.0000  0.0000  0.0000 </r>
       </set>
       <set comment="band 4">
        <r>  0.0020  0.0493  0.0000  0.1972  0.0000  0.0000  0.0000  0.0000  0.0000 </r>
       </set>
       <set comment="band 5">
        <r>  0.0000  0.0000  0.1455  0.0000  0.0000  0.0000  0.0000  0.0000  0.0000 </r>
       </set>
       <set comment="band 6">
        <r>  0.0468  0.0107  0.0000  0.3149  0.0000  0.0000  0.0000  0.0000  0.0000 </r>
       </set>
      </set>
      <set comment="kpoint 281">
       <set comment="band 1">
        <r>  0.2206  0.1676  0.0000  0.0180  0.0000  0.0000  0.0000  0.0000  0.0000 </r>
       </set>
       <set comment="band 2">
        <r>  0.1200  0.0246  0.2010  0.0311  0.0000  0.0000  0.0000  0.0000  0.0000 </r>
       </set>
       <set comment="band 3">
        <r>  0.2618  0.1277  0.0759  0.0027  0.0000  0.0000  0.0000  0.0000  0.0000 </r>
       </set>
       <set comment="band 4">
        <r>  0.0189  0.0176  0.0474  0.1817  0.0000  0.0000  0.0000  0.0000  0.0000 </r>
       </set>
       <set comment="band 5">
        <r>  0.0170  0.0028  0.0780  0.1451  0.0000  0.0000  0.0000  0.0000  0.0000 </r>
       </set>
       <set comment="band 6">
        <r>  0.0058  0.0084  0.0577  0.2172  0.0000  0.0000  0.0000  0.0000  0.0000 </r>
       </set>
      </set>
      <set comment="kpoint 282">
       <set comment="band 1">
        <r>  0.3075  0.0174  0.1185  0.0100  0.0000  0.0000  0.0000  0.0000  0.0000 </r>
       </set>
       <set comment="band 2">
        <r>  0.0190  0.2113  0.0516  0.0422  0.0000  0.0000  0.0000  0.0000  0.0000 </r>
       </set>
       <set comment="band 3">
        <r>  0.2504  0.1012  0.0540  0.0378  0.0000  0.0000  0.0000  0.0000  0.0000 </r>
       </set>
       <set comment="band 4">
        <r>  0.0465  0.0018  0.1069  0.1411  0.0000  0.0000  0.0000  0.0000  0.0000 </r>
       </set>
       <set comment="band 5">
        <r>  0.0137  0.0020  0.0567  0.2169  0.0000  0.0000  0.0000  0.0000  0.0000 </r>
       </set>
       <set comment="band 6">
        <r>  0.0117  0.0469  0.0277  0.1102  0.0000  0.0000  0.0000  0.0000  0.0000 </r>
       </set>
      </set>
      <set comment="kpoint 283">
       <set comment="band 1">
        <r>  0.2379  0.0000  0.1427  0.0278  0.0000  0.0000  0.0000  0.0000  0.0000 </r>
       </set>
       <set comment="band 2">
        <r>  0.0000  0.3259  0.0000  0.0000  0.0000  0.0000  0.0000  0.0000  0.0000 </r>
       </set>
       <set comment="band 3">
        <r>  0.3314  0.0000  0.0602  0.0850  0.0000  0.0000  0.0000  0.0000  0.0000 </r>
       </set>
       <set comment="band 4">
        <r>  0.0514  0.0000  0.1353  0.1186  0.0000  0.0000  0.0000  0.0000  0.0000 </r>
       </set>
       <set comment="band 5">
        <r>  0.0040  0.0000  0.0448  0.2889  0.0000  0.0000  0.0000  0.0000  0.0000 </r>
       </set>
       <set comment="band 6">
        <r>  0.0000  0.1345  0.0000  0.0000  0.0000  0.0000  0.0000  0.0000  0.0000 </r>
       </set>
      </set>
      <set comment="kpoint 284">
       <set comment="band 1">
        <r>  0.1631  0.2171  0.0000  0.0108  0.0000  0.0000  0.0000  0.0000  0.0000 </r>
       </set>
       <set comment="band 2">
        <r>  0.3631  0.1217  0.0000  0.0070  0.0000  0.0000  0.0000  0.0000  0.0000 </r>
       </set>
       <set comment="band 3">
        <r>  0.0000  0.0000  0.3203  0.0000  0.0000  0.0000  0.0000  0.0000  0.0000 </r>
       </set>
       <set comment="band 4">
        <r>  0.0929  0.0009  0.0000  0.2218  0.0000  0.0000  0.0000  0.0000  0.0000 </r>
       </set>
       <set comment="band 5">
        <r>  0.0000  0.0000  0.1463  0.0000  0.0000  0.0000  0.0000  0.0000  0.0000 </r>
       </set>
       <set comment="band 6">
        <r>  0.0568  0.0013  0.0000  0.3050  0.0000  0.0000  0.0000  0.0000  0.0000 </r>
       </set>
      </set>
      <set comment="kpoint 285">
       <set comment="band 1">
        <r>  0.0000  0.3357  0.0000  0.0000  0.0000  0.0000  0.0000  0.0000  0.0000 </r>
       </set>
       <set comment="band 2">
        <r>  0.4943  0.0000  0.0554  0.0004  0.0000  0.0000  0.0000  0.0000  0.0000 </r>
       </set>
       <set comment="band 3">
        <r>  0.0593  0.0000  0.1971  0.0666  0.0000  0.0000  0.0000  0.0000  0.0000 </r>
       </set>
       <set comment="band 4">
        <r>  0.0704  0.0000  0.0722  0.1662  0.0000  0.0000  0.0000  0.0000  0.0000 </r>
       </set>
       <set comment="band 5">
        <r>  0.0194  0.0000  0.0828  0.1346  0.0000  0.0000  0.0000  0.0000  0.0000 </r>
       </set>
       <set comment="band 6">
        <r>  0.0128  0.0000  0.0570  0.2214  0.0000  0.0000  0.0000  0.0000  0.0000 </r>
       </set>
      </set>
      <set comment="kpoint 286">
       <set comment="band 1">
        <r>  0.2100  0.1938  0.0000  0.0120  0.0000  0.0000  0.0000  0.0000  0.0000 </r>
       </set>
       <set comment="band 2">
        <r>  0.0000  0.0000  0.3277  0.0000  0.0000  0.0000  0.0000  0.0000  0.0000 </r>
       </set>
       <set comment="band 3">
        <r>  0.4165  0.1129  0.0000  0.0074  0.0000  0.0000  0.0000  0.0000  0.0000 </r>
       </set>
       <set comment="band 4">
        <r>  0.0001  0.0261  0.0000  0.2102  0.0000  0.0000  0.0000  0.0000  0.0000 </r>
       </set>
       <set comment="band 5">
        <r>  0.0022  0.0125  0.0000  0.3875  0.0000  0.0000  0.0000  0.0000  0.0000 </r>
       </set>
       <set comment="band 6">
        <r>  0.0000  0.0000  0.1353  0.0000  0.0000  0.0000  0.0000  0.0000  0.0000 </r>
       </set>
      </set>
     </set>
    </set>
   </array>
  </projected>
 </calculation>
 <structure name="finalpos" >
  <crystal>
   <varray name="basis" >
    <v>       1.95000000       1.95000000       0.00000000 </v>
    <v>       0.00000000       1.95000000       1.95000000 </v>
    <v>       1.95000000       0.00000000       1.95000000 </v>
   </varray>
   <i name="volume">     14.82975000 </i>
   <varray name="rec_basis" >
    <v>       0.25641026       0.25641026      -0.25641026 </v>
    <v>      -0.25641026       0.25641026       0.25641026 </v>
    <v>       0.25641026      -0.25641026       0.25641026 </v>
   </varray>
  </crystal>
  <varray name="positions" >
   <v>       0.00000000       0.00000000       0.00000000 </v>
  </varray>
 </structure>
</modeling>
