       N       E                     dE             d eps       ncg     rms          rms(c)
DAV:   1     0.253778878034E+04    0.25378E+04   -0.11203E+05  4376   0.106E+03
DAV:   2    -0.240096064443E+03   -0.27779E+04   -0.26506E+04  5480   0.280E+02
DAV:   3    -0.700413363131E+03   -0.46032E+03   -0.45613E+03  4600   0.120E+02
DAV:   4    -0.717044916097E+03   -0.16632E+02   -0.16489E+02  4624   0.281E+01
DAV:   5    -0.717595672748E+03   -0.55076E+00   -0.54862E+00  5328   0.429E+00    0.480E+01
DAV:   6    -0.711740172622E+03    0.58555E+01   -0.71391E+01  4760   0.302E+01    0.720E+01
DAV:   7    -0.675406343700E+03    0.36334E+02   -0.76472E+01  5304   0.597E+01    0.254E+01
DAV:   8    -0.668520683687E+03    0.68857E+01   -0.30685E+01  4760   0.126E+01    0.224E+01
DAV:   9    -0.664756908998E+03    0.37638E+01   -0.22183E+01  4648   0.138E+01    0.151E+01
DAV:  10    -0.663437850206E+03    0.13191E+01   -0.84630E+00  5288   0.109E+01    0.769E+00
DAV:  11    -0.663358923746E+03    0.78926E-01   -0.10801E+00  4824   0.295E+00    0.550E+00
DAV:  12    -0.663242183945E+03    0.11674E+00   -0.45851E-01  4600   0.237E+00    0.295E+00
DAV:  13    -0.663253216088E+03   -0.11032E-01   -0.19894E-01  4752   0.125E+00    0.201E+00
DAV:  14    -0.663258801726E+03   -0.55856E-02   -0.37170E-02  4432   0.482E-01    0.174E+00
DAV:  15    -0.663258992134E+03   -0.19041E-03   -0.84205E-03  4640   0.218E-01    0.131E+00
DAV:  16    -0.663257893532E+03    0.10986E-02   -0.32219E-03  5048   0.155E-01    0.993E-01
DAV:  17    -0.663257461717E+03    0.43182E-03   -0.20339E-03  4816   0.111E-01    0.743E-01
DAV:  18    -0.663257215419E+03    0.24630E-03   -0.57702E-04  4040   0.635E-02    0.518E-01
DAV:  19    -0.663257109256E+03    0.10616E-03   -0.23163E-04  2936   0.363E-02    0.388E-01
DAV:  20    -0.663257055709E+03    0.53547E-04   -0.65128E-05  2568   0.235E-02
   1 F= -.66983212E+03 E0= -.66983212E+03  d E =0.000000E+00  mag=     0.9998
