       N       E                     dE             d eps       ncg     rms          rms(c)
DAV:   1     0.264243603748E+04    0.26424E+04   -0.10669E+05  3936   0.118E+03
DAV:   2    -0.512092652650E+01   -0.26476E+04   -0.25534E+04  4728   0.303E+02
DAV:   3    -0.505699546278E+03   -0.50058E+03   -0.49686E+03  4084   0.148E+02
DAV:   4    -0.525332618467E+03   -0.19633E+02   -0.19164E+02  4296   0.405E+01
DAV:   5    -0.526182300754E+03   -0.84968E+00   -0.84117E+00  4992   0.671E+00    0.417E+01
DAV:   6    -0.499902930668E+03    0.26279E+02   -0.56561E+01  4296   0.276E+01    0.261E+01
DAV:   7    -0.494507427146E+03    0.53955E+01   -0.45127E+01  4152   0.184E+01    0.167E+01
DAV:   8    -0.492588089006E+03    0.19193E+01   -0.16590E+01  4000   0.123E+01    0.116E+01
DAV:   9    -0.492786636466E+03   -0.19855E+00   -0.17216E+01  4800   0.103E+01    0.680E+00
DAV:  10    -0.492105716778E+03    0.68092E+00   -0.69717E+00  4176   0.764E+00    0.343E+00
DAV:  11    -0.492042617614E+03    0.63099E-01   -0.35437E+00  4744   0.463E+00    0.256E+00
DAV:  12    -0.491913288472E+03    0.12933E+00   -0.19746E+00  4792   0.310E+00    0.141E+00
DAV:  13    -0.491875490067E+03    0.37798E-01   -0.24431E-01  3880   0.139E+00    0.641E-01
DAV:  14    -0.491873204094E+03    0.22860E-02   -0.68484E-02  4184   0.674E-01    0.358E-01
DAV:  15    -0.491872774525E+03    0.42957E-03   -0.32826E-02  4040   0.407E-01    0.280E-01
DAV:  16    -0.491872595047E+03    0.17948E-03   -0.21505E-02  4464   0.297E-01    0.203E-01
DAV:  17    -0.491872323344E+03    0.27170E-03   -0.11667E-02  4184   0.199E-01    0.120E-01
DAV:  18    -0.491872218545E+03    0.10480E-03   -0.33391E-03  3064   0.107E-01    0.595E-02
DAV:  19    -0.491872207834E+03    0.10711E-04   -0.39174E-04  2240   0.441E-02
   1 F= -.49607161E+03 E0= -.49607161E+03  d E =0.000000E+00  mag=     0.0000
