       N       E                     dE             d eps       ncg     rms          rms(c)
DAV:   1     0.260805295676E+04    0.26081E+04   -0.98003E+04  4272   0.108E+03
DAV:   2     0.158102551735E+03   -0.24500E+04   -0.23342E+04  5032   0.265E+02
DAV:   3    -0.491143846175E+03   -0.64925E+03   -0.64388E+03  4120   0.147E+02
DAV:   4    -0.522424378082E+03   -0.31281E+02   -0.30493E+02  4120   0.447E+01
DAV:   5    -0.523793776486E+03   -0.13694E+01   -0.13532E+01  4920   0.852E+00    0.423E+01
DAV:   6    -0.495968905606E+03    0.27825E+02   -0.71848E+01  4648   0.229E+01    0.267E+01
DAV:   7    -0.496253771512E+03   -0.28487E+00   -0.14215E+02  4700   0.203E+01    0.202E+01
DAV:   8    -0.488551698952E+03    0.77021E+01   -0.97008E+00  4256   0.120E+01    0.152E+01
DAV:   9    -0.494156726576E+03   -0.56050E+01   -0.11591E+02  4672   0.161E+01    0.118E+01
DAV:  10    -0.488752407359E+03    0.54043E+01   -0.51236E+00  4208   0.989E+00    0.892E+00
DAV:  11    -0.487327308222E+03    0.14251E+01   -0.15064E+01  4176   0.681E+00    0.607E+00
DAV:  12    -0.488002431222E+03   -0.67512E+00   -0.23683E+01  4032   0.485E+00    0.730E+00
DAV:  13    -0.486736918346E+03    0.12655E+01   -0.17645E+00  4152   0.315E+00    0.504E+00
DAV:  14    -0.487302457938E+03   -0.56554E+00   -0.10842E+01  4168   0.188E+00    0.678E+00
DAV:  15    -0.486700966737E+03    0.60149E+00   -0.81833E-02  4328   0.145E+00    0.197E+00
DAV:  16    -0.486767142763E+03   -0.66176E-01   -0.54988E-01  4152   0.553E-01    0.491E+00
DAV:  17    -0.486736594546E+03    0.30548E-01   -0.56527E-01  3864   0.344E-01    0.449E+00
DAV:  18    -0.486761462474E+03   -0.24868E-01   -0.52778E-01  3920   0.282E-01    0.599E+00
DAV:  19    -0.486797349049E+03   -0.35887E-01   -0.26568E+00  4028   0.559E-01    0.546E+00
DAV:  20    -0.486744536609E+03    0.52812E-01   -0.37147E-03  3496   0.240E-01    0.477E+00
DAV:  21    -0.486766215451E+03   -0.21679E-01   -0.12249E-03  3840   0.104E-01    0.534E+00
DAV:  22    -0.486757439702E+03    0.87757E-02   -0.16541E+00  4880   0.480E-01    0.551E+00
DAV:  23    -0.486716458683E+03    0.40981E-01   -0.27827E-01  3624   0.276E-01    0.356E+00
DAV:  24    -0.486712244187E+03    0.42145E-02   -0.83020E-03  3680   0.115E-01    0.313E+00
DAV:  25    -0.486705840597E+03    0.64036E-02   -0.23863E-03  2784   0.561E-02    0.184E+00
DAV:  26    -0.486712788175E+03   -0.69476E-02   -0.32009E-02  2624   0.582E-02    0.270E+00
DAV:  27    -0.486713406700E+03   -0.61852E-03   -0.21446E-01  3040   0.141E-01    0.255E+00
DAV:  28    -0.486710303432E+03    0.31033E-02   -0.85664E-02  2824   0.126E-01    0.129E+00
DAV:  29    -0.486710733775E+03   -0.43034E-03   -0.13606E-02  2348   0.536E-02    0.383E-01
DAV:  30    -0.486711041551E+03   -0.30778E-03   -0.32149E-04  2324   0.240E-02    0.334E-01
DAV:  31    -0.486711016145E+03    0.25406E-04   -0.14213E-03  2128   0.162E-02    0.279E-01
DAV:  32    -0.486711055357E+03   -0.39212E-04   -0.11805E-03  2080   0.138E-02    0.184E-01
DAV:  33    -0.486711061353E+03   -0.59953E-05   -0.20335E-04  2032   0.916E-03
   1 F= -.49028323E+03 E0= -.49026684E+03  d E =-.327742E-01  mag=     0.0000
