 vasp.5.4.4.18Apr17-6-g9f103f2a35 (build Nov  8 2022 18:58:45) complex           
 executed on             LinuxGNU date 2023.04.13  17:57:48
 running on   48 total cores
 distrk:  each k-point on   48 cores,    1 groups
 distr:  one band on NCORES_PER_BAND=  12 cores,    4 groups


--------------------------------------------------------------------------------------------------------


 INCAR:
 POTCAR:    PAW_PBE C 08Apr2002                   
 POTCAR:    PAW_PBE N 08Apr2002                   
 POTCAR:    PAW_PBE Ge_d 03Jul2007                
 POTCAR:    PAW_PBE C 08Apr2002                   
 POTCAR:    PAW_PBE O 08Apr2002                   
 POTCAR:    PAW_PBE C 08Apr2002                   
   SHA256 =  253f7b50bb8d59471dbedb8285d89021f4a42ed1a2c5d38a03a736e69125dd95 C/
   COPYR  = (c) Copyright 08Apr2002 Georg Kresse                                
   COPYR  = This file is part of the software VASP. Any use, copying, and all ot
   COPYR  = If you do not have a valid VASP license, you may not use, copy or di
   VRHFIN =C: s2p2                                                              
   LEXCH  = PE                                                                  
   EATOM  =   147.1560 eV,   10.8157 Ry                                         
                                                                                
   TITEL  = PAW_PBE C 08Apr2002                                                 
   LULTRA =        F    use ultrasoft PP ?                                      
   IUNSCR =        1    unscreen: 0-lin 1-nonlin 2-no                           
   RPACOR =    1.200    partial core radius                                     
   POMASS =   12.011; ZVAL   =    4.000    mass and valenz                      
   RCORE  =    1.500    outmost cutoff radius                                   
   RWIGS  =    1.630; RWIGS  =    0.863    wigner-seitz radius (au A)           
   ENMAX  =  400.000; ENMIN  =  300.000 eV                                      
   ICORE  =        2    local potential                                         
   LCOR   =        T    correct aug charges                                     
   LPAW   =        T    paw PP                                                  
   EAUG   =  644.873                                                            
   DEXC   =    0.000                                                            
   RMAX   =    1.529    core radius for proj-oper                               
   RAUG   =    1.300    factor for augmentation sphere                          
   RDEP   =    1.501    radius for radial grids                                 
   RDEPT  =    1.300    core radius for aug-charge                              
                                                                                
   Atomic configuration                                                         
    4 entries                                                                   
     n  l   j            E        occ.                                          
     1  0  0.50      -273.3789   2.0000                                         
     2  0  0.50       -13.7508   2.0000                                         
     2  1  0.50        -5.2854   2.0000                                         
     3  2  1.50        -5.4423   0.0000                                         
   Description                                                                  
     l       E           TYP  RCUT    TYP  RCUT                                 
     0    -13.7508458     23  1.200                                             
     0     -8.2022199     23  1.200                                             
     1     -5.2854383     23  1.500                                             
     1     34.0145650     23  1.500                                             
     2     -5.4423304      7  1.500                                             
  local pseudopotential read in
  partial core-charges read in
  partial kinetic energy density read in
  atomic valenz-charges read in
  non local Contribution for L=           0  read in
    real space projection operators read in
  non local Contribution for L=           0  read in
    real space projection operators read in
  non local Contribution for L=           1  read in
    real space projection operators read in
  non local Contribution for L=           1  read in
    real space projection operators read in
    PAW grid and wavefunctions read in

   number of l-projection  operators is LMAX  =           4
   number of lm-projection operators is LMMAX =           8

 POTCAR:    PAW_PBE N 08Apr2002                   
   SHA256 =  e053789ff3a61a86a1b75d8a110fcc91f86041011e7b0817c7c99e4e8a6349d7 N/
   COPYR  = (c) Copyright 08Apr2002 Georg Kresse                                
   COPYR  = This file is part of the software VASP. Any use, copying, and all ot
   COPYR  = If you do not have a valid VASP license, you may not use, copy or di
   VRHFIN =N: s2p3                                                              
   LEXCH  = PE                                                                  
   EATOM  =   264.5486 eV,   19.4438 Ry                                         
                                                                                
   TITEL  = PAW_PBE N 08Apr2002                                                 
   LULTRA =        F    use ultrasoft PP ?                                      
   IUNSCR =        1    unscreen: 0-lin 1-nonlin 2-no                           
   RPACOR =    1.200    partial core radius                                     
   POMASS =   14.001; ZVAL   =    5.000    mass and valenz                      
   RCORE  =    1.500    outmost cutoff radius                                   
   RWIGS  =    1.400; RWIGS  =    0.741    wigner-seitz radius (au A)           
   ENMAX  =  400.000; ENMIN  =  300.000 eV                                      
   ICORE  =        2    local potential                                         
   LCOR   =        T    correct aug charges                                     
   LPAW   =        T    paw PP                                                  
   EAUG   =  627.112                                                            
   DEXC   =    0.000                                                            
   RMAX   =    1.529    core radius for proj-oper                               
   RAUG   =    1.300    factor for augmentation sphere                          
   RDEP   =    1.514    radius for radial grids                                 
   RDEPT  =    1.338    core radius for aug-charge                              
                                                                                
   Atomic configuration                                                         
    4 entries                                                                   
     n  l   j            E        occ.                                          
     1  0  0.50      -384.7179   2.0000                                         
     2  0  0.50       -18.5828   2.0000                                         
     2  1  0.50        -7.0898   3.0000                                         
     3  2  1.50        -6.8029   0.0000                                         
   Description                                                                  
     l       E           TYP  RCUT    TYP  RCUT                                 
     0    -18.5828119     23  1.200                                             
     0    -13.5018863     23  1.200                                             
     1     -7.0897853     23  1.500                                             
     1      9.5240782     23  1.500                                             
     2     -6.8029130      7  1.500                                             
  local pseudopotential read in
  partial core-charges read in
  partial kinetic energy density read in
  atomic valenz-charges read in
  non local Contribution for L=           0  read in
    real space projection operators read in
  non local Contribution for L=           0  read in
    real space projection operators read in
  non local Contribution for L=           1  read in
    real space projection operators read in
  non local Contribution for L=           1  read in
    real space projection operators read in
    PAW grid and wavefunctions read in

   number of l-projection  operators is LMAX  =           4
   number of lm-projection operators is LMMAX =           8

 POTCAR:    PAW_PBE Ge_d 03Jul2007                
   SHA256 =  944b26c40d2d7c4f4eb1ff3a2e8dbfdd7129146276cd341854bfd5c0e57780ed Ge
   COPYR  = (c) Copyright 03Jul2007 Georg Kresse                                
   COPYR  = This file is part of the software VASP. Any use, copying, and all ot
   COPYR  = If you do not have a valid VASP license, you may not use, copy or di
   VRHFIN =Ge: 3d4s4p                                                           
   LEXCH  = PE                                                                  
   EATOM  =  2596.2402 eV,  190.8183 Ry                                         
                                                                                
   TITEL  = PAW_PBE Ge_d 03Jul2007                                              
   LULTRA =        F    use ultrasoft PP ?                                      
   IUNSCR =        1    unscreen: 0-lin 1-nonlin 2-no                           
   RPACOR =    2.000    partial core radius                                     
   POMASS =   72.610; ZVAL   =   14.000    mass and valenz                      
   RCORE  =    2.300    outmost cutoff radius                                   
   RWIGS  =    2.300; RWIGS  =    1.217    wigner-seitz radius (au A)           
   ENMAX  =  310.294; ENMIN  =  232.720 eV                                      
   ICORE  =        3    local potential                                         
   LCOR   =        T    correct aug charges                                     
   LPAW   =        T    paw PP                                                  
   EAUG   =  531.356                                                            
   DEXC   =    0.000                                                            
   RMAX   =    2.342    core radius for proj-oper                               
   RAUG   =    1.300    factor for augmentation sphere                          
   RDEP   =    2.318    radius for radial grids                                 
   RDEPT  =    1.783    core radius for aug-charge                              
                                                                                
   Atomic configuration                                                         
    9 entries                                                                   
     n  l   j            E        occ.                                          
     1  0  0.50    -10959.8463   2.0000                                         
     2  0  0.50     -1371.6056   2.0000                                         
     2  1  1.50     -1198.4791   6.0000                                         
     3  0  0.50      -168.4733   2.0000                                         
     3  1  1.50      -115.6019   6.0000                                         
     3  2  2.50       -29.3106  10.0000                                         
     4  0  0.50       -11.7309   2.0000                                         
     4  1  0.50        -3.8952   2.0000                                         
     4  3  2.50        -4.0817   0.0000                                         
   Description                                                                  
     l       E           TYP  RCUT    TYP  RCUT                                 
     2    -29.3105938     23  2.200                                             
     2    -13.6058260     23  2.200                                             
     0    -11.7309493     23  2.300                                             
     0     -7.4578696     23  2.300                                             
     1     -3.8952261     23  2.300                                             
     1      6.1178114     23  2.300                                             
     3     -1.3605826     23  2.300                                             
  local pseudopotential read in
  partial core-charges read in
  partial kinetic energy density read in
  atomic valenz-charges read in
  non local Contribution for L=           2  read in
    real space projection operators read in
  non local Contribution for L=           2  read in
    real space projection operators read in
  non local Contribution for L=           0  read in
    real space projection operators read in
  non local Contribution for L=           0  read in
    real space projection operators read in
  non local Contribution for L=           1  read in
    real space projection operators read in
  non local Contribution for L=           1  read in
    real space projection operators read in
    PAW grid and wavefunctions read in

   number of l-projection  operators is LMAX  =           6
   number of lm-projection operators is LMMAX =          18

 POTCAR:    PAW_PBE C 08Apr2002                   
   SHA256 =  253f7b50bb8d59471dbedb8285d89021f4a42ed1a2c5d38a03a736e69125dd95 C/
   COPYR  = (c) Copyright 08Apr2002 Georg Kresse                                
   COPYR  = This file is part of the software VASP. Any use, copying, and all ot
   COPYR  = If you do not have a valid VASP license, you may not use, copy or di
   VRHFIN =C: s2p2                                                              
   LEXCH  = PE                                                                  
   EATOM  =   147.1560 eV,   10.8157 Ry                                         
                                                                                
   TITEL  = PAW_PBE C 08Apr2002                                                 
   LULTRA =        F    use ultrasoft PP ?                                      
   IUNSCR =        1    unscreen: 0-lin 1-nonlin 2-no                           
   RPACOR =    1.200    partial core radius                                     
   POMASS =   12.011; ZVAL   =    4.000    mass and valenz                      
   RCORE  =    1.500    outmost cutoff radius                                   
   RWIGS  =    1.630; RWIGS  =    0.863    wigner-seitz radius (au A)           
   ENMAX  =  400.000; ENMIN  =  300.000 eV                                      
   ICORE  =        2    local potential                                         
   LCOR   =        T    correct aug charges                                     
   LPAW   =        T    paw PP                                                  
   EAUG   =  644.873                                                            
   DEXC   =    0.000                                                            
   RMAX   =    1.529    core radius for proj-oper                               
   RAUG   =    1.300    factor for augmentation sphere                          
   RDEP   =    1.501    radius for radial grids                                 
   RDEPT  =    1.300    core radius for aug-charge                              
                                                                                
   Atomic configuration                                                         
    4 entries                                                                   
     n  l   j            E        occ.                                          
     1  0  0.50      -273.3789   2.0000                                         
     2  0  0.50       -13.7508   2.0000                                         
     2  1  0.50        -5.2854   2.0000                                         
     3  2  1.50        -5.4423   0.0000                                         
   Description                                                                  
     l       E           TYP  RCUT    TYP  RCUT                                 
     0    -13.7508458     23  1.200                                             
     0     -8.2022199     23  1.200                                             
     1     -5.2854383     23  1.500                                             
     1     34.0145650     23  1.500                                             
     2     -5.4423304      7  1.500                                             
  local pseudopotential read in
  partial core-charges read in
  partial kinetic energy density read in
  atomic valenz-charges read in
  non local Contribution for L=           0  read in
    real space projection operators read in
  non local Contribution for L=           0  read in
    real space projection operators read in
  non local Contribution for L=           1  read in
    real space projection operators read in
  non local Contribution for L=           1  read in
    real space projection operators read in
    PAW grid and wavefunctions read in

   number of l-projection  operators is LMAX  =           4
   number of lm-projection operators is LMMAX =           8

 POTCAR:    PAW_PBE O 08Apr2002                   
   SHA256 =  818f92134a0a090dccd8ba1447fa70422a3b330e708bb4f08108d8ae51209ddf O/
   COPYR  = (c) Copyright 08Apr2002 Georg Kresse                                
   COPYR  = This file is part of the software VASP. Any use, copying, and all ot
   COPYR  = If you do not have a valid VASP license, you may not use, copy or di
   VRHFIN =O: s2p4                                                              
   LEXCH  = PE                                                                  
   EATOM  =   432.3788 eV,   31.7789 Ry                                         
                                                                                
   TITEL  = PAW_PBE O 08Apr2002                                                 
   LULTRA =        F    use ultrasoft PP ?                                      
   IUNSCR =        1    unscreen: 0-lin 1-nonlin 2-no                           
   RPACOR =    1.200    partial core radius                                     
   POMASS =   16.000; ZVAL   =    6.000    mass and valenz                      
   RCORE  =    1.520    outmost cutoff radius                                   
   RWIGS  =    1.550; RWIGS  =    0.820    wigner-seitz radius (au A)           
   ENMAX  =  400.000; ENMIN  =  300.000 eV                                      
   ICORE  =        2    local potential                                         
   LCOR   =        T    correct aug charges                                     
   LPAW   =        T    paw PP                                                  
   EAUG   =  605.392                                                            
   DEXC   =    0.000                                                            
   RMAX   =    1.553    core radius for proj-oper                               
   RAUG   =    1.300    factor for augmentation sphere                          
   RDEP   =    1.550    radius for radial grids                                 
   RDEPT  =    1.329    core radius for aug-charge                              
                                                                                
   Atomic configuration                                                         
    4 entries                                                                   
     n  l   j            E        occ.                                          
     1  0  0.50      -514.6923   2.0000                                         
     2  0  0.50       -23.9615   2.0000                                         
     2  1  0.50        -9.0305   4.0000                                         
     3  2  1.50        -9.5241   0.0000                                         
   Description                                                                  
     l       E           TYP  RCUT    TYP  RCUT                                 
     0    -23.9615318     23  1.200                                             
     0     -9.5240782     23  1.200                                             
     1     -9.0304911     23  1.520                                             
     1      8.1634956     23  1.520                                             
     2     -9.5240782      7  1.500                                             
  local pseudopotential read in
  partial core-charges read in
  partial kinetic energy density read in
  kinetic energy density of atom read in
  atomic valenz-charges read in
  non local Contribution for L=           0  read in
    real space projection operators read in
  non local Contribution for L=           0  read in
    real space projection operators read in
  non local Contribution for L=           1  read in
    real space projection operators read in
  non local Contribution for L=           1  read in
    real space projection operators read in
    PAW grid and wavefunctions read in

   number of l-projection  operators is LMAX  =           4
   number of lm-projection operators is LMMAX =           8


 ----------------------------------------------------------------------------- 
|                                                                             |
|  ADVICE TO THIS USER RUNNING 'VASP/VAMP'   (HEAR YOUR MASTER'S VOICE ...):  |
|                                                                             |
|      You have a (more or less) 'large supercell' and for larger cells       |
|      it might be more efficient to use real space projection opertators     |
|      So try LREAL= Auto  in the INCAR   file.                               |
|      Mind:          For very  accurate calculation you might also keep the  |
|      reciprocal projection scheme          (i.e. LREAL=.FALSE.)             |
|                                                                             |
 ----------------------------------------------------------------------------- 

  PAW_PBE C 08Apr2002                   :
 energy of atom  1       EATOM= -147.1560
 kinetic energy error for atom=    0.0132 (will be added to EATOM!!)
  PAW_PBE N 08Apr2002                   :
 energy of atom  2       EATOM= -264.5486
 kinetic energy error for atom=    0.0298 (will be added to EATOM!!)
  PAW_PBE Ge_d 03Jul2007                :
 energy of atom  3       EATOM=-2596.2402
 kinetic energy error for atom=    0.0090 (will be added to EATOM!!)
  PAW_PBE C 08Apr2002                   :
 energy of atom  4       EATOM= -147.1560
 kinetic energy error for atom=    0.0132 (will be added to EATOM!!)
  PAW_PBE O 08Apr2002                   :
 energy of atom  5       EATOM= -432.3788
 kinetic energy error for atom=    0.0458 (will be added to EATOM!!)


 POSCAR: POSCAR-c3n4                             
  positions in direct lattice
  velocities in cartesian coordinates
 exchange correlation table for  LEXCH =        8
   RHO(1)=    0.500       N(1)  =     2000
   RHO(2)=  100.500       N(2)  =     4000



--------------------------------------------------------------------------------------------------------


 ion  position               nearest neighbor table
   1  0.989  0.151  0.508-  26 1.32  46 1.36  25 1.39
   2  0.371  0.363  0.367-  35 1.30  29 1.31
   3  0.016  0.325  0.513-  25 1.21  44 1.24
   4  0.529  0.101  0.545-  30 1.32  27 1.35  48 1.41
   5  0.509  0.374  0.410-  28 1.34  29 1.35  56 1.41
   6  0.016  0.021  0.491-  31 1.31  26 1.36  32 1.43
   7  0.060  0.746  0.473-  33 1.34  34 1.37  54 1.37
   8  0.403  0.949  0.583-  27 1.30  37 1.32
   9  0.033  0.881  0.492-  33 1.33  52 1.37  31 1.39
  10  0.468  0.504  0.437-  38 1.32  35 1.36  56 1.41
  11  0.540  0.948  0.551-  36 1.33  37 1.35  48 1.41
  12  0.109  0.628  0.491-  39 1.32  34 1.32  40 1.45
  13  0.662  0.243  0.494-  42 1.34  30 1.35  41 1.41
  14  0.810  0.416  0.479-  51 1.32  45 1.36  41 1.41
  15  0.642  0.389  0.474-  55 1.32  28 1.34  41 1.46
  16  0.851  0.994  0.512-  46 1.31  32 1.38  43 1.40
  17  0.965  0.445  0.501-  45 1.32  44 1.36  40 1.40
  18  0.670  0.100  0.488-  42 1.34  47 1.34  48 1.41
  19  0.585  0.648  0.499-  50 1.36  49 1.37  38 1.37
  20  0.715  0.815  0.520-  53 1.32  49 1.32  43 1.50
  21  0.684  0.963  0.511-  36 1.34  47 1.34  43 1.43
  22  0.938  0.578  0.461-  54 1.31  51 1.36  40 1.44
  23  0.878  0.852  0.522-  52 1.31  53 1.32  32 1.43
  24  0.611  0.515  0.499-  50 1.32  55 1.36  56 1.41
  25  0.027  0.254  0.514-   3 1.21   1 1.39
  26  0.053  0.123  0.492-   1 1.32   6 1.36
  27  0.437  0.046  0.576-   8 1.30   4 1.35
  28  0.571  0.340  0.421-   5 1.34  15 1.34
  29  0.428  0.325  0.365-   2 1.31   5 1.35
  30  0.574  0.199  0.532-   4 1.32  13 1.35
  31  0.073  0.984  0.481-   6 1.31   9 1.39
  32  0.912  0.955  0.503-  16 1.38   6 1.43  23 1.43
  33  0.091  0.844  0.477-   9 1.33   7 1.34
  34  0.132  0.723  0.487-  12 1.32   7 1.37
  35  0.380  0.445  0.398-   2 1.30  10 1.36
  36  0.598  0.910  0.549-  11 1.33  21 1.34
  37  0.444  0.895  0.575-   8 1.32  11 1.35
  38  0.495  0.595  0.462-  10 1.32  19 1.37
  39  0.178  0.605  0.499-  12 1.32  57 1.74
  40  0.006  0.548  0.486-  17 1.40  22 1.44  12 1.45
  41  0.706  0.348  0.484-  14 1.41  13 1.41  15 1.46
  42  0.708  0.197  0.467-  18 1.34  13 1.34
  43  0.749  0.925  0.513-  16 1.40  21 1.43  20 1.50
  44  0.028  0.411  0.512-   3 1.24  17 1.36
  45  0.869  0.382  0.506-  17 1.32  14 1.36
  46  0.889  0.092  0.520-  16 1.31   1 1.36
  47  0.716  0.050  0.472-  21 1.34  18 1.34
  48  0.579  0.050  0.529-  11 1.41  18 1.41   4 1.41
  49  0.621  0.750  0.504-  20 1.32  19 1.37
  50  0.634  0.604  0.527-  24 1.32  19 1.36
  51  0.841  0.506  0.450-  14 1.32  22 1.36
  52  0.940  0.820  0.524-  23 1.31   9 1.37
  53  0.782  0.791  0.536-  20 1.32  23 1.32
  54  0.966  0.674  0.451-  22 1.31   7 1.37
  55  0.662  0.469  0.517-  15 1.32  24 1.36
  56  0.530  0.464  0.447-   5 1.41  24 1.41  10 1.41
  57  0.304  0.647  0.510-  39 1.74
  58  0.281  0.619  0.670-  59 1.14
  59  0.253  0.567  0.724-  58 1.14


IMPORTANT INFORMATION: All symmetrisations will be switched off!
NOSYMM: (Re-)initialisation of all symmetry stuff for point group C_1.



 KPOINTS: K-Points                                

Automatic generation of k-mesh.
Space group operators:
 irot       det(A)        alpha          n_x          n_y          n_z        tau_x        tau_y        tau_z
    1     1.000000     0.000000     1.000000     0.000000     0.000000     0.000000     0.000000     0.000000
 
 Subroutine IBZKPT returns following result:
 ===========================================
 
 Found      5 irreducible k-points:
 
 Following reciprocal coordinates:
            Coordinates               Weight
  0.000000  0.000000  0.000000      1.000000
  0.333333  0.000000  0.000000      2.000000
  0.000000  0.333333  0.000000      2.000000
  0.333333  0.333333  0.000000      2.000000
 -0.333333  0.333333  0.000000      2.000000
 
 Following cartesian coordinates:
            Coordinates               Weight
  0.000000  0.000000  0.000000      1.000000
  0.024277  0.014368  0.000000      2.000000
  0.000396  0.028736  0.000000      2.000000
  0.024673  0.043104  0.000000      2.000000
 -0.023881  0.014368  0.000000      2.000000
 


--------------------------------------------------------------------------------------------------------




 Dimension of arrays:
   k-points           NKPTS =      5   k-points in BZ     NKDIM =      5   number of bands    NBANDS=    172
   number of dos      NEDOS =   4000   number of ions     NIONS =     59
   non local maximal  LDIM  =      6   non local SUM 2l+1 LMDIM =     18
   total plane-waves  NPLWV = 604800
   max r-space proj   IRMAX =      1   max aug-charges    IRDMAX=   5899
   dimension x,y,z NGX =    84 NGY =   80 NGZ =   90
   dimension x,y,z NGXF=   168 NGYF=  160 NGZF=  180
   support grid    NGXF=   168 NGYF=  160 NGZF=  180
   ions per type =              24  32   1   1   1
   NGX,Y,Z   is equivalent  to a cutoff of   8.85,  8.58,  8.75 a.u.
   NGXF,Y,Z  is equivalent  to a cutoff of  17.70, 17.17, 17.50 a.u.

 SYSTEM =  unknown system                          
 POSCAR =  POSCAR-c3n4                             

 Startparameter for this run:
   NWRITE =      2    write-flag & timer
   PREC   = normal    normal or accurate (medium, high low for compatibility)
   ISTART =      0    job   : 0-new  1-cont  2-samecut
   ICHARG =      2    charge: 1-file 2-atom 10-const
   ISPIN  =      2    spin polarized calculation?
   LNONCOLLINEAR =      F non collinear calculations
   LSORBIT =      F    spin-orbit coupling
   INIWAV =      1    electr: 0-lowe 1-rand  2-diag
   LASPH  =      F    aspherical Exc in radial PAW
   METAGGA=      F    non-selfconsistent MetaGGA calc.

 Electronic Relaxation 1
   ENCUT  =  440.0 eV  32.34 Ry    5.69 a.u.  26.99 26.50 29.25*2*pi/ulx,y,z
   ENINI  =  440.0     initial cutoff
   ENAUG  =  644.9 eV  augmentation charge cutoff
   NELM   =    200;   NELMIN=  2; NELMDL= -5     # of ELM steps 
   EDIFF  = 0.1E-03   stopping-criterion for ELM
   LREAL  =      F    real-space projection
   NLSPLINE    = F    spline interpolate recip. space projectors
   LCOMPAT=      F    compatible to vasp.4.4
   GGA_COMPAT  = T    GGA compatible to vasp.4.4-vasp.4.6
   LMAXPAW     = -100 max onsite density
   LMAXMIX     =    2 max onsite mixed and CHGCAR
   VOSKOWN=      0    Vosko Wilk Nusair interpolation
   ROPT   =    0.00000   0.00000   0.00000   0.00000
   ROPT   =    0.00000
 Ionic relaxation
   EDIFFG = -.1E-01   stopping-criterion for IOM
   NSW    =      0    number of steps for IOM
   NBLOCK =      1;   KBLOCK =      1    inner block; outer block 
   IBRION =     -1    ionic relax: 0-MD 1-quasi-New 2-CG
   NFREE  =      0    steps in history (QN), initial steepest desc. (CG)
   ISIF   =      2    stress and relaxation
   IWAVPR =     10    prediction:  0-non 1-charg 2-wave 3-comb
   ISYM   =      0    0-nonsym 1-usesym 2-fastsym
   LCORR  =      T    Harris-Foulkes like correction to forces

   POTIM  = 0.5000    time-step for ionic-motion
   TEIN   =    0.0    initial temperature
   TEBEG  =    0.0;   TEEND  =   0.0 temperature during run
   SMASS  =  -3.00    Nose mass-parameter (am)
   estimated Nose-frequenzy (Omega)   =  0.10E-29 period in steps =****** mass=  -0.569E-26a.u.
   SCALEE = 1.0000    scale energy and forces
   NPACO  =    256;   APACO  = 16.0  distance and # of slots for P.C.
   PSTRESS=    0.0 pullay stress

  Mass of Ions in am
   POMASS =  12.01 14.00 72.61 12.01 16.00
  Ionic Valenz
   ZVAL   =   4.00  5.00 14.00  4.00  6.00
  Atomic Wigner-Seitz radii
   RWIGS  =  -1.00 -1.00 -1.00 -1.00 -1.00
  virtual crystal weights 
   VCA    =   1.00  1.00  1.00  1.00  1.00
   NELECT =     280.0000    total number of electrons
   NUPDOWN=      -1.0000    fix difference up-down

 DOS related values:
   EMIN   = -14.00;   EMAX   =  6.00  energy-range for DOS
   EFERMI =   0.00
   ISMEAR =     0;   SIGMA  =   0.03  broadening in eV -4-tet -1-fermi 0-gaus

 Electronic relaxation 2 (details)
   IALGO  =     38    algorithm
   LDIAG  =      T    sub-space diagonalisation (order eigenvalues)
   LSUBROT=      F    optimize rotation matrix (better conditioning)
   TURBO    =      0    0=normal 1=particle mesh
   IRESTART =      0    0=no restart 2=restart with 2 vectors
   NREBOOT  =      0    no. of reboots
   NMIN     =      0    reboot dimension
   EREF     =   0.00    reference energy to select bands
   IMIX   =      4    mixing-type and parameters
     AMIX     =   0.25;   BMIX     =  0.00
     AMIX_MAG =   1.00;   BMIX_MAG =  0.00
     AMIN     =   0.10
     WC   =   100.;   INIMIX=   1;  MIXPRE=   1;  MAXMIX= -45

 Intra band minimization:
   WEIMIN = 0.0000     energy-eigenvalue tresh-hold
   EBREAK =  0.15E-06  absolut break condition
   DEPER  =   0.30     relativ break condition  

   TIME   =   0.40     timestep for ELM

  volume/ion in A,a.u.               =      60.49       408.17
  Fermi-wavevector in a.u.,A,eV,Ry     =   0.700854  1.324421  6.683124  0.491196
  Thomas-Fermi vector in A             =   1.785121

 Write flags
   LWAVE        =      F    write WAVECAR
   LDOWNSAMPLE  =      F    k-point downsampling of WAVECAR
   LCHARG       =      F    write CHGCAR
   LVTOT        =      F    write LOCPOT, total local potential
   LVHAR        =      F    write LOCPOT, Hartree potential only
   LELF         =      F    write electronic localiz. function (ELF)
   LORBIT       =     11    0 simple, 1 ext, 2 COOP (PROOUT), +10 PAW based schemes


 Dipole corrections
   LMONO  =      F    monopole corrections only (constant potential shift)
   LDIPOL =      F    correct potential (dipole corrections)
   IDIPOL =      0    1-x, 2-y, 3-z, 4-all directions 
   EPSILON=  1.0000000 bulk dielectric constant

 Exchange correlation treatment:
   GGA     =    --    GGA type
   LEXCH   =     8    internal setting for exchange type
   VOSKOWN=      0    Vosko Wilk Nusair interpolation
   LHFCALC =     F    Hartree Fock is set to
   LHFONE  =     F    Hartree Fock one center treatment
   AEXX    =    0.0000 exact exchange contribution

 Linear response parameters
   LEPSILON=     F    determine dielectric tensor
   LRPA    =     F    only Hartree local field effects (RPA)
   LNABLA  =     F    use nabla operator in PAW spheres
   LVEL    =     F    velocity operator in full k-point grid
   LINTERFAST=   F  fast interpolation
   KINTER  =     0    interpolate to denser k-point grid
   CSHIFT  =0.1000    complex shift for real part using Kramers Kronig
   OMEGAMAX=  -1.0    maximum frequency
   DEG_THRESHOLD= 0.2000000E-02 threshold for treating states as degnerate
   RTIME   =   -0.100 relaxation time in fs
  (WPLASMAI=    0.000 imaginary part of plasma frequency in eV, 0.658/RTIME)
   DFIELD  = 0.0000000 0.0000000 0.0000000 field for delta impulse in time

 Orbital magnetization related:
   ORBITALMAG=     F  switch on orbital magnetization
   LCHIMAG   =     F  perturbation theory with respect to B field
   DQ        =  0.001000  dq finite difference perturbation B field
   LLRAUG    =     F  two centre corrections for induced B field



--------------------------------------------------------------------------------------------------------


 Static calculation
 charge density and potential will be updated during run
 spin polarized calculation
 Variant of blocked Davidson
 Davidson routine will perform the subspace rotation
 perform sub-space diagonalisation
    after iterative eigenvector-optimisation
 modified Broyden-mixing scheme, WC =      100.0
 initial mixing is a Kerker type mixing with AMIX =  0.2500 and BMIX =      0.0001
 Hartree-type preconditioning will be used
 using additional bands           32
 reciprocal scheme for non local part
 use partial core corrections
 calculate Harris-corrections to forces   (improved forces if not selfconsistent)
 use gradient corrections 
 use of overlap-Matrix (Vanderbilt PP)
 Gauss-broadening in eV      SIGMA  =   0.03


--------------------------------------------------------------------------------------------------------


  energy-cutoff  :      440.00
  volume of cell :     3568.62
      direct lattice vectors                 reciprocal lattice vectors
    15.781503627 -0.217444140  0.000000000     0.063886289  0.037810627 -0.000000000
    -7.890751814 13.332517733  0.000000000     0.001041941  0.075621253 -0.000000000
     0.000000000  0.000000000 17.100000000    -0.000000000 -0.000000000  0.058479532

  length of vectors
    15.783001574 15.492578652 17.100000000     0.074236793  0.075628431  0.058479532



 k-points in units of 2pi/SCALE and weight: K-Points                                
   0.00000000  0.00000000  0.00000000       0.111
   0.02427679  0.01436804  0.00000000       0.222
   0.00039594  0.02873608  0.00000000       0.222
   0.02467273  0.04310411  0.00000000       0.222
  -0.02388085  0.01436804  0.00000000       0.222

 k-points in reciprocal lattice and weights: K-Points                                
   0.00000000  0.00000000  0.00000000       0.111
   0.33333333  0.00000000  0.00000000       0.222
   0.00000000  0.33333333  0.00000000       0.222
   0.33333333  0.33333333  0.00000000       0.222
  -0.33333333  0.33333333  0.00000000       0.222

 position of ions in fractional coordinates (direct lattice) 
   0.98914437  0.15083278  0.50821191
   0.37062584  0.36318672  0.36674549
   0.01587457  0.32508432  0.51301117
   0.52917172  0.10095779  0.54548913
   0.50915736  0.37355060  0.41019194
   0.01622901  0.02101259  0.49122482
   0.06017617  0.74599543  0.47279070
   0.40319443  0.94938580  0.58344024
   0.03270592  0.88097529  0.49235859
   0.46760426  0.50367273  0.43651824
   0.53997439  0.94821753  0.55105228
   0.10949209  0.62844736  0.49067436
   0.66152430  0.24303009  0.49438602
   0.80993566  0.41579105  0.47940272
   0.64201340  0.38945320  0.47437874
   0.85141111  0.99373156  0.51206368
   0.96514638  0.44515783  0.50143088
   0.67008793  0.10047439  0.48764626
   0.58542255  0.64841568  0.49854900
   0.71490986  0.81495249  0.51966718
   0.68374371  0.96326218  0.51071736
   0.93751683  0.57849106  0.46122698
   0.87798535  0.85214279  0.52241343
   0.61057312  0.51453174  0.49892563
   0.02728002  0.25394119  0.51362757
   0.05284935  0.12259116  0.49158267
   0.43697825  0.04564695  0.57606978
   0.57071667  0.33975445  0.42106543
   0.42751736  0.32468447  0.36517722
   0.57363380  0.19925668  0.53165876
   0.07288131  0.98362070  0.48089430
   0.91211031  0.95494933  0.50331470
   0.09073482  0.84446853  0.47704421
   0.13164523  0.72328370  0.48721629
   0.38034080  0.44454107  0.39813536
   0.59792241  0.90950067  0.54919482
   0.44417566  0.89451013  0.57469251
   0.49528858  0.59505830  0.46195327
   0.17846020  0.60501364  0.49885168
   0.00564875  0.54803570  0.48599507
   0.70646021  0.34845499  0.48387473
   0.70782363  0.19707261  0.46701511
   0.74889124  0.92475746  0.51306417
   0.02821194  0.41079212  0.51179197
   0.86859407  0.38177174  0.50566834
   0.88949938  0.09159887  0.52006321
   0.71604609  0.05005281  0.47190624
   0.57944403  0.04974074  0.52901618
   0.62088152  0.74981852  0.50356911
   0.63437574  0.60393012  0.52662036
   0.84079887  0.50610291  0.45041597
   0.94019517  0.82015463  0.52381463
   0.78192919  0.79125949  0.53585639
   0.96591086  0.67357894  0.45063702
   0.66239655  0.46941785  0.51692412
   0.52961396  0.46374783  0.44677857
   0.30364369  0.64746712  0.50972312
   0.28054243  0.61872393  0.67035640
   0.25305884  0.56727015  0.72391398

 position of ions in cartesian coordinates  (Angst):
  14.42000144  1.79589707  8.69042364
   2.98321680  4.76160302  6.27134791
  -2.31463507  4.33074061  8.77249108
   7.55449252  1.23095625  9.32786411
   5.08767361  4.86965673  7.01428212
   0.09031301  0.27662187  8.39994446
  -4.93679437  9.93291237  8.08472090
  -1.12835330 12.57003071  9.97682815
  -6.43540882 11.73850701  8.41933184
   3.40514178  6.61354783  7.46446187
   1.03945852 12.52471283  9.42299407
  -3.23097226  8.35497715  8.39053154
   8.52215795  3.09635839  8.45400087
   9.50109867  5.36742573  8.19778646
   7.05885823  5.05278958  8.11187646
   5.59525839 13.06380933  8.75628885
  11.71883112  5.72520928  8.57446797
   9.78217664  1.19386991  8.33875101
   4.12236088  8.51771689  8.52518789
   4.85176467 10.70991553  8.88630884
   3.18964107 12.69403399  8.73326694
  10.23069585  7.50888474  7.88698130
   7.13188181 11.17029605  8.93326959
   5.57571963  6.72723798  8.53162821
  -1.57326722  3.37974356  8.78303137
  -0.13329431  1.62295707  8.40606360
   6.53598507  0.51357047  9.85079324
   6.32584920  4.40568322  7.20021892
   4.18486227  4.23590030  6.24453043
   7.48051898  2.53185985  9.09136485
  -6.61133021 13.09829281  8.22329255
   6.85920403 12.53354583  8.60668145
  -5.23155962 11.23916187  8.15745594
  -3.62969253  9.61456732  8.33139858
   2.49458636  5.84414888  6.80811466
   2.25947061 11.99591907  9.39123146
  -0.04859760 11.82948872  9.82724201
   3.12094122  7.82592768  7.89940090
  -1.95764226  8.02754999  8.53036369
  -4.23526785  7.30546737  8.31051564
   8.39943248  4.49216670  8.27425791
   9.61547015  2.47356197  7.98595843
   4.52159819 12.16650324  8.77339725
  -2.79623179  5.47075867  8.75164267
  10.69525440  4.90110779  8.64692867
  13.31485372  1.02782717  8.89308086
  10.90532971  0.51162997  8.06959663
   8.75200629  0.53717256  9.04617671
   3.88181210  9.86196164  8.61103181
   5.24594041  7.91396777  9.00520820
   9.27553796  6.56479930  7.70211316
   8.36605687 10.73028627  8.95723017
   6.09638619 10.37945521  9.16314422
   9.92848159  8.77047149  7.70589302
   6.74955383  6.11448760  8.83940253
   4.69878552  6.06776475  7.63991353
  -0.31704833  8.56634138  8.71626539
  -0.45481559  8.18814542 11.46309439
  -0.48253890  7.50811316 12.37892908



--------------------------------------------------------------------------------------------------------


 k-point  1 :   0.0000 0.0000 0.0000  plane waves:   74771
 k-point  2 :   0.3333 0.0000 0.0000  plane waves:   74853
 k-point  3 :   0.0000 0.3333 0.0000  plane waves:   74756
 k-point  4 :   0.3333 0.3333 0.0000  plane waves:   74779
 k-point  5 :  -0.3333 0.3333 0.0000  plane waves:   74788

 maximum and minimum number of plane-waves per node :      6267     6212

 maximum number of plane-waves:     74853
 maximum index in each direction: 
   IXMAX=   27   IYMAX=   26   IZMAX=   29
   IXMIN=  -27   IYMIN=  -26   IZMIN=  -29


 parallel 3D FFT for wavefunctions:
    minimum data exchange during FFTs selected (reduces bandwidth)
 parallel 3D FFT for charge:
    minimum data exchange during FFTs selected (reduces bandwidth)


 total amount of memory used by VASP MPI-rank0   123241. kBytes
=======================================================================

   base      :      30000. kBytes
   nonl-proj :      28336. kBytes
   fftplans  :       5346. kBytes
   grid      :      16143. kBytes
   one-center:        155. kBytes
   wavefun   :      43261. kBytes

     INWAV:  cpu time    0.0000: real time    0.0000
 Broyden mixing: mesh for mixing (old mesh)
   NGX = 53   NGY = 53   NGZ = 59
  (NGX  =168   NGY  =160   NGZ  =180)
  gives a total of 165731 points

 initial charge density was supplied:
 charge density of overlapping atoms calculated
 number of electron     280.0000000 magnetization       2.0000000
 keeping initial charge density in first step


--------------------------------------------------------------------------------------------------------


 Maximum index for augmentation-charges          311 (set IRDMAX)


--------------------------------------------------------------------------------------------------------


 First call to EWALD:  gamma=   0.116
 Maximum number of real-space cells 3x 3x 3
 Maximum number of reciprocal cells 3x 3x 3

    FEWALD:  cpu time    0.0039: real time    0.0039


--------------------------------------- Iteration      1(   1)  ---------------------------------------


    POTLOK:  cpu time    0.1773: real time    0.2496
    SETDIJ:  cpu time    0.0115: real time    0.0116
     EDDAV:  cpu time   19.9254: real time   20.0056
       DOS:  cpu time    0.0057: real time    0.0057
    --------------------------------------------
      LOOP:  cpu time   20.1200: real time   20.2724

 eigenvalue-minimisations  :  4272
 total energy-change (2. order) : 0.2608053E+04  (-0.9800311E+04)
 number of electron     280.0000000 magnetization       2.0000000
 augmentation part      280.0000000 magnetization       2.0000000

 Free energy of the ion-electron system (eV)
  ---------------------------------------------------
  alpha Z        PSCENC =       104.41568073
  Ewald energy   TEWEN  =     28701.22919838
  -Hartree energ DENC   =    -40392.55906872
  -exchange      EXHF   =         0.00000000
  -V(xc)+E(xc)   XCENC  =      1060.77291866
  PAW double counting   =     11453.83848114   -11942.90478952
  entropy T*S    EENTRO =        -0.01308882
  eigenvalues    EBANDS =     -1548.46252726
  atomic energy  EATOM  =     15171.73615219
  Solvation  Ediel_sol  =         0.00000000
  ---------------------------------------------------
  free energy    TOTEN  =      2608.05295676 eV

  energy without entropy =     2608.06604558  energy(sigma->0) =     2608.05950117


--------------------------------------------------------------------------------------------------------




--------------------------------------- Iteration      1(   2)  ---------------------------------------


     EDDAV:  cpu time   23.0295: real time   23.1079
       DOS:  cpu time    0.0026: real time    0.0026
    --------------------------------------------
      LOOP:  cpu time   23.0321: real time   23.1105

 eigenvalue-minimisations  :  5032
 total energy-change (2. order) :-0.2449950E+04  (-0.2334201E+04)
 number of electron     280.0000000 magnetization       2.0000000
 augmentation part      280.0000000 magnetization       2.0000000

 Free energy of the ion-electron system (eV)
  ---------------------------------------------------
  alpha Z        PSCENC =       104.41568073
  Ewald energy   TEWEN  =     28701.22919838
  -Hartree energ DENC   =    -40392.55906872
  -exchange      EXHF   =         0.00000000
  -V(xc)+E(xc)   XCENC  =      1060.77291866
  PAW double counting   =     11453.83848114   -11942.90478952
  entropy T*S    EENTRO =        -0.00225889
  eigenvalues    EBANDS =     -3998.42376222
  atomic energy  EATOM  =     15171.73615219
  Solvation  Ediel_sol  =         0.00000000
  ---------------------------------------------------
  free energy    TOTEN  =       158.10255173 eV

  energy without entropy =      158.10481062  energy(sigma->0) =      158.10368118


--------------------------------------------------------------------------------------------------------




--------------------------------------- Iteration      1(   3)  ---------------------------------------


     EDDAV:  cpu time   19.5220: real time   19.5975
       DOS:  cpu time    0.0028: real time    0.0028
    --------------------------------------------
      LOOP:  cpu time   19.5248: real time   19.6003

 eigenvalue-minimisations  :  4120
 total energy-change (2. order) :-0.6492464E+03  (-0.6438757E+03)
 number of electron     280.0000000 magnetization       2.0000000
 augmentation part      280.0000000 magnetization       2.0000000

 Free energy of the ion-electron system (eV)
  ---------------------------------------------------
  alpha Z        PSCENC =       104.41568073
  Ewald energy   TEWEN  =     28701.22919838
  -Hartree energ DENC   =    -40392.55906872
  -exchange      EXHF   =         0.00000000
  -V(xc)+E(xc)   XCENC  =      1060.77291866
  PAW double counting   =     11453.83848114   -11942.90478952
  entropy T*S    EENTRO =        -0.00827761
  eigenvalues    EBANDS =     -4647.66414141
  atomic energy  EATOM  =     15171.73615219
  Solvation  Ediel_sol  =         0.00000000
  ---------------------------------------------------
  free energy    TOTEN  =      -491.14384618 eV

  energy without entropy =     -491.13556857  energy(sigma->0) =     -491.13970737


--------------------------------------------------------------------------------------------------------




--------------------------------------- Iteration      1(   4)  ---------------------------------------


     EDDAV:  cpu time   19.5204: real time   19.5909
       DOS:  cpu time    0.0026: real time    0.0026
    --------------------------------------------
      LOOP:  cpu time   19.5229: real time   19.5935

 eigenvalue-minimisations  :  4120
 total energy-change (2. order) :-0.3128053E+02  (-0.3049319E+02)
 number of electron     280.0000000 magnetization       2.0000000
 augmentation part      280.0000000 magnetization       2.0000000

 Free energy of the ion-electron system (eV)
  ---------------------------------------------------
  alpha Z        PSCENC =       104.41568073
  Ewald energy   TEWEN  =     28701.22919838
  -Hartree energ DENC   =    -40392.55906872
  -exchange      EXHF   =         0.00000000
  -V(xc)+E(xc)   XCENC  =      1060.77291866
  PAW double counting   =     11453.83848114   -11942.90478952
  entropy T*S    EENTRO =        -0.02818040
  eigenvalues    EBANDS =     -4678.92477053
  atomic energy  EATOM  =     15171.73615219
  Solvation  Ediel_sol  =         0.00000000
  ---------------------------------------------------
  free energy    TOTEN  =      -522.42437808 eV

  energy without entropy =     -522.39619769  energy(sigma->0) =     -522.41028788


--------------------------------------------------------------------------------------------------------




--------------------------------------- Iteration      1(   5)  ---------------------------------------


     EDDAV:  cpu time   22.4304: real time   22.5118
       DOS:  cpu time    0.0027: real time    0.0027
    CHARGE:  cpu time    0.4122: real time    0.4145
    MIXING:  cpu time    0.0050: real time    0.0052
    --------------------------------------------
      LOOP:  cpu time   22.8504: real time   22.9342

 eigenvalue-minimisations  :  4920
 total energy-change (2. order) :-0.1369398E+01  (-0.1353182E+01)
 number of electron     280.0000027 magnetization       0.0054896
 augmentation part       20.2008826 magnetization       0.0275825

 Broyden mixing:
  rms(total) = 0.42287E+01    rms(broyden)= 0.42257E+01
  rms(prec ) = 0.45940E+01
  weight for this iteration     100.00

 Free energy of the ion-electron system (eV)
  ---------------------------------------------------
  alpha Z        PSCENC =       104.41568073
  Ewald energy   TEWEN  =     28701.22919838
  -Hartree energ DENC   =    -40392.55906872
  -exchange      EXHF   =         0.00000000
  -V(xc)+E(xc)   XCENC  =      1060.77291866
  PAW double counting   =     11453.83848114   -11942.90478952
  entropy T*S    EENTRO =        -0.02946498
  eigenvalues    EBANDS =     -4680.29288434
  atomic energy  EATOM  =     15171.73615219
  Solvation  Ediel_sol  =         0.00000000
  ---------------------------------------------------
  free energy    TOTEN  =      -523.79377649 eV

  energy without entropy =     -523.76431150  energy(sigma->0) =     -523.77904399


--------------------------------------------------------------------------------------------------------




--------------------------------------- Iteration      1(   6)  ---------------------------------------


    POTLOK:  cpu time    0.1635: real time    0.1703
    SETDIJ:  cpu time    0.0100: real time    0.0100
     EDDAV:  cpu time   21.0931: real time   21.3102
       DOS:  cpu time    0.0032: real time    0.0032
    CHARGE:  cpu time    0.4662: real time    0.4668
    MIXING:  cpu time    0.0055: real time    0.0088
    --------------------------------------------
      LOOP:  cpu time   21.7415: real time   21.9693

 eigenvalue-minimisations  :  4648
 total energy-change (2. order) : 0.2782487E+02  (-0.7184776E+01)
 number of electron     280.0000027 magnetization      -0.0013304
 augmentation part       19.0078628 magnetization       0.0056430

 Broyden mixing:
  rms(total) = 0.26672E+01    rms(broyden)= 0.26668E+01
  rms(prec ) = 0.28763E+01
  weight for this iteration     100.00

 eigenvalues of (default mixing * dielectric matrix)
  average eigenvalue GAMMA=   1.2708
  1.2708

 Free energy of the ion-electron system (eV)
  ---------------------------------------------------
  alpha Z        PSCENC =       104.41568073
  Ewald energy   TEWEN  =     28701.22919838
  -Hartree energ DENC   =    -40706.20846360
  -exchange      EXHF   =         0.00000000
  -V(xc)+E(xc)   XCENC  =      1076.34340676
  PAW double counting   =     14985.60896438   -15477.34773285
  entropy T*S    EENTRO =        -0.00000000
  eigenvalues    EBANDS =     -4351.74611159
  atomic energy  EATOM  =     15171.73615219
  Solvation  Ediel_sol  =         0.00000000
  ---------------------------------------------------
  free energy    TOTEN  =      -495.96890561 eV

  energy without entropy =     -495.96890561  energy(sigma->0) =     -495.96890561


--------------------------------------------------------------------------------------------------------




--------------------------------------- Iteration      1(   7)  ---------------------------------------


    POTLOK:  cpu time    0.1740: real time    0.1747
    SETDIJ:  cpu time    0.0099: real time    0.0100
     EDDAV:  cpu time   21.1786: real time   21.2379
       DOS:  cpu time    0.0033: real time    0.0033
    CHARGE:  cpu time    0.4776: real time    0.4784
    MIXING:  cpu time    0.0048: real time    0.0049
    --------------------------------------------
      LOOP:  cpu time   21.8482: real time   21.9090

 eigenvalue-minimisations  :  4700
 total energy-change (2. order) :-0.2848659E+00  (-0.1421542E+02)
 number of electron     280.0000032 magnetization      -0.0017214
 augmentation part       18.6184219 magnetization       0.0009754

 Broyden mixing:
  rms(total) = 0.20211E+01    rms(broyden)= 0.20205E+01
  rms(prec ) = 0.22816E+01
  weight for this iteration     100.00

 eigenvalues of (default mixing * dielectric matrix)
  average eigenvalue GAMMA=   1.1348
  1.6444  0.6252

 Free energy of the ion-electron system (eV)
  ---------------------------------------------------
  alpha Z        PSCENC =       104.41568073
  Ewald energy   TEWEN  =     28701.22919838
  -Hartree energ DENC   =    -40918.28076679
  -exchange      EXHF   =         0.00000000
  -V(xc)+E(xc)   XCENC  =      1086.09980614
  PAW double counting   =     18868.67876797   -19363.31076822
  entropy T*S    EENTRO =        -0.00000026
  eigenvalues    EBANDS =     -4146.82184165
  atomic energy  EATOM  =     15171.73615219
  Solvation  Ediel_sol  =         0.00000000
  ---------------------------------------------------
  free energy    TOTEN  =      -496.25377151 eV

  energy without entropy =     -496.25377126  energy(sigma->0) =     -496.25377138


--------------------------------------------------------------------------------------------------------




--------------------------------------- Iteration      1(   8)  ---------------------------------------


    POTLOK:  cpu time    0.1802: real time    0.1872
    SETDIJ:  cpu time    0.0102: real time    0.0102
     EDDAV:  cpu time   20.0431: real time   20.1053
       DOS:  cpu time    0.0032: real time    0.0032
    CHARGE:  cpu time    0.4074: real time    0.4087
    MIXING:  cpu time    0.0049: real time    0.0049
    --------------------------------------------
      LOOP:  cpu time   20.6490: real time   20.7195

 eigenvalue-minimisations  :  4256
 total energy-change (2. order) : 0.7702073E+01  (-0.9700825E+00)
 number of electron     280.0000030 magnetization       0.0001262
 augmentation part       18.4707355 magnetization       0.0009311

 Broyden mixing:
  rms(total) = 0.15240E+01    rms(broyden)= 0.15239E+01
  rms(prec ) = 0.16678E+01
  weight for this iteration     100.00

 eigenvalues of (default mixing * dielectric matrix)
  average eigenvalue GAMMA=   1.5058
  2.6520  1.0803  0.7851

 Free energy of the ion-electron system (eV)
  ---------------------------------------------------
  alpha Z        PSCENC =       104.41568073
  Ewald energy   TEWEN  =     28701.22919838
  -Hartree energ DENC   =    -41038.14476689
  -exchange      EXHF   =         0.00000000
  -V(xc)+E(xc)   XCENC  =      1090.63783812
  PAW double counting   =     21582.41728994   -22079.23352998
  entropy T*S    EENTRO =        -0.00000000
  eigenvalues    EBANDS =     -4021.60956143
  atomic energy  EATOM  =     15171.73615219
  Solvation  Ediel_sol  =         0.00000000
  ---------------------------------------------------
  free energy    TOTEN  =      -488.55169895 eV

  energy without entropy =     -488.55169895  energy(sigma->0) =     -488.55169895


--------------------------------------------------------------------------------------------------------




--------------------------------------- Iteration      1(   9)  ---------------------------------------


    POTLOK:  cpu time    0.1735: real time    0.1745
    SETDIJ:  cpu time    0.0104: real time    0.0104
     EDDAV:  cpu time   21.4957: real time   21.5526
       DOS:  cpu time    0.0032: real time    0.0032
    CHARGE:  cpu time    0.3837: real time    0.3841
    MIXING:  cpu time    0.0051: real time    0.0051
    --------------------------------------------
      LOOP:  cpu time   22.0717: real time   22.1299

 eigenvalue-minimisations  :  4672
 total energy-change (2. order) :-0.5605028E+01  (-0.1159148E+02)
 number of electron     280.0000029 magnetization       0.0011581
 augmentation part       18.4186274 magnetization       0.0010670

 Broyden mixing:
  rms(total) = 0.11844E+01    rms(broyden)= 0.11836E+01
  rms(prec ) = 0.15352E+01
  weight for this iteration     100.00

 eigenvalues of (default mixing * dielectric matrix)
  average eigenvalue GAMMA=   1.5444
  3.4998  1.2810  0.6985  0.6985

 Free energy of the ion-electron system (eV)
  ---------------------------------------------------
  alpha Z        PSCENC =       104.41568073
  Ewald energy   TEWEN  =     28701.22919838
  -Hartree energ DENC   =    -41146.10705009
  -exchange      EXHF   =         0.00000000
  -V(xc)+E(xc)   XCENC  =      1094.77147676
  PAW double counting   =     26180.06546558   -26680.15862884
  entropy T*S    EENTRO =        -0.00000000
  eigenvalues    EBANDS =     -3920.10902128
  atomic energy  EATOM  =     15171.73615219
  Solvation  Ediel_sol  =         0.00000000
  ---------------------------------------------------
  free energy    TOTEN  =      -494.15672658 eV

  energy without entropy =     -494.15672658  energy(sigma->0) =     -494.15672658


--------------------------------------------------------------------------------------------------------




--------------------------------------- Iteration      1(  10)  ---------------------------------------


    POTLOK:  cpu time    0.1704: real time    0.1799
    SETDIJ:  cpu time    0.0097: real time    0.0097
     EDDAV:  cpu time   19.8425: real time   19.9006
       DOS:  cpu time    0.0031: real time    0.0031
    CHARGE:  cpu time    0.4142: real time    0.4143
    MIXING:  cpu time    0.0053: real time    0.0053
    --------------------------------------------
      LOOP:  cpu time   20.4453: real time   20.5130

 eigenvalue-minimisations  :  4208
 total energy-change (2. order) : 0.5404319E+01  (-0.5123635E+00)
 number of electron     280.0000028 magnetization       0.0004201
 augmentation part       18.4177755 magnetization       0.0000627

 Broyden mixing:
  rms(total) = 0.89188E+00    rms(broyden)= 0.89176E+00
  rms(prec ) = 0.11513E+01
  weight for this iteration     100.00

 eigenvalues of (default mixing * dielectric matrix)
  average eigenvalue GAMMA=   1.4859
  3.7120  1.2652  0.8323  0.8323  0.7878

 Free energy of the ion-electron system (eV)
  ---------------------------------------------------
  alpha Z        PSCENC =       104.41568073
  Ewald energy   TEWEN  =     28701.22919838
  -Hartree energ DENC   =    -41180.89360855
  -exchange      EXHF   =         0.00000000
  -V(xc)+E(xc)   XCENC  =      1096.46244581
  PAW double counting   =     28927.90618086   -29429.57161145
  entropy T*S    EENTRO =        -0.00000000
  eigenvalues    EBANDS =     -3880.03684531
  atomic energy  EATOM  =     15171.73615219
  Solvation  Ediel_sol  =         0.00000000
  ---------------------------------------------------
  free energy    TOTEN  =      -488.75240736 eV

  energy without entropy =     -488.75240736  energy(sigma->0) =     -488.75240736


--------------------------------------------------------------------------------------------------------




--------------------------------------- Iteration      1(  11)  ---------------------------------------


    POTLOK:  cpu time    0.1961: real time    0.1971
    SETDIJ:  cpu time    0.0102: real time    0.0102
     EDDAV:  cpu time   19.5538: real time   19.6139
       DOS:  cpu time    0.0033: real time    0.0033
    CHARGE:  cpu time    0.4019: real time    0.4046
    MIXING:  cpu time    0.0057: real time    0.0057
    --------------------------------------------
      LOOP:  cpu time   20.1709: real time   20.2348

 eigenvalue-minimisations  :  4176
 total energy-change (2. order) : 0.1425099E+01  (-0.1506353E+01)
 number of electron     280.0000029 magnetization      -0.0001887
 augmentation part       18.3840172 magnetization      -0.0005203

 Broyden mixing:
  rms(total) = 0.60704E+00    rms(broyden)= 0.60589E+00
  rms(prec ) = 0.80585E+00
  weight for this iteration     100.00

 eigenvalues of (default mixing * dielectric matrix)
  average eigenvalue GAMMA=   1.3840
  3.6950  1.3731  1.1185  0.6945  0.7115  0.7115

 Free energy of the ion-electron system (eV)
  ---------------------------------------------------
  alpha Z        PSCENC =       104.41568073
  Ewald energy   TEWEN  =     28701.22919838
  -Hartree energ DENC   =    -41166.21881731
  -exchange      EXHF   =         0.00000000
  -V(xc)+E(xc)   XCENC  =      1096.32576035
  PAW double counting   =     29472.72640550   -29974.26594909
  entropy T*S    EENTRO =        -0.00000000
  eigenvalues    EBANDS =     -3893.27573897
  atomic energy  EATOM  =     15171.73615219
  Solvation  Ediel_sol  =         0.00000000
  ---------------------------------------------------
  free energy    TOTEN  =      -487.32730822 eV

  energy without entropy =     -487.32730822  energy(sigma->0) =     -487.32730822


--------------------------------------------------------------------------------------------------------




--------------------------------------- Iteration      1(  12)  ---------------------------------------


    POTLOK:  cpu time    0.1704: real time    0.1734
    SETDIJ:  cpu time    0.0101: real time    0.0101
     EDDAV:  cpu time   19.2912: real time   19.3527
       DOS:  cpu time    0.0028: real time    0.0028
    CHARGE:  cpu time    0.4174: real time    0.4176
    MIXING:  cpu time    0.0061: real time    0.0061
    --------------------------------------------
      LOOP:  cpu time   19.8980: real time   19.9627

 eigenvalue-minimisations  :  4032
 total energy-change (2. order) :-0.6751230E+00  (-0.2368262E+01)
 number of electron     280.0000028 magnetization       0.0000737
 augmentation part       18.3844266 magnetization      -0.0000103

 Broyden mixing:
  rms(total) = 0.72998E+00    rms(broyden)= 0.72939E+00
  rms(prec ) = 0.97448E+00
  weight for this iteration     100.00

 eigenvalues of (default mixing * dielectric matrix)
  average eigenvalue GAMMA=   1.3549
  3.6720  1.7146  1.1003  1.1003  0.7153  0.7153  0.4666

 Free energy of the ion-electron system (eV)
  ---------------------------------------------------
  alpha Z        PSCENC =       104.41568073
  Ewald energy   TEWEN  =     28701.22919838
  -Hartree energ DENC   =    -41150.99607338
  -exchange      EXHF   =         0.00000000
  -V(xc)+E(xc)   XCENC  =      1095.63335254
  PAW double counting   =     29670.18258867   -30171.46215597
  entropy T*S    EENTRO =        -0.00000000
  eigenvalues    EBANDS =     -3908.74117436
  atomic energy  EATOM  =     15171.73615219
  Solvation  Ediel_sol  =         0.00000000
  ---------------------------------------------------
  free energy    TOTEN  =      -488.00243122 eV

  energy without entropy =     -488.00243122  energy(sigma->0) =     -488.00243122


--------------------------------------------------------------------------------------------------------




--------------------------------------- Iteration      1(  13)  ---------------------------------------


    POTLOK:  cpu time    0.1828: real time    0.1855
    SETDIJ:  cpu time    0.0106: real time    0.0106
     EDDAV:  cpu time   19.6462: real time   19.7164
       DOS:  cpu time    0.0030: real time    0.0030
    CHARGE:  cpu time    0.4228: real time    0.4235
    MIXING:  cpu time    0.0063: real time    0.0063
    --------------------------------------------
      LOOP:  cpu time   20.2717: real time   20.3453

 eigenvalue-minimisations  :  4152
 total energy-change (2. order) : 0.1265513E+01  (-0.1764522E+00)
 number of electron     280.0000029 magnetization       0.0019904
 augmentation part       18.3850522 magnetization       0.0000550

 Broyden mixing:
  rms(total) = 0.50401E+00    rms(broyden)= 0.50312E+00
  rms(prec ) = 0.67662E+00
  weight for this iteration     100.00

 eigenvalues of (default mixing * dielectric matrix)
  average eigenvalue GAMMA=   1.3592
  3.7051  2.2351  0.7860  0.7860  0.9740  0.9740  1.0215  0.3923

 Free energy of the ion-electron system (eV)
  ---------------------------------------------------
  alpha Z        PSCENC =       104.41568073
  Ewald energy   TEWEN  =     28701.22919838
  -Hartree energ DENC   =    -41129.60622407
  -exchange      EXHF   =         0.00000000
  -V(xc)+E(xc)   XCENC  =      1094.97467328
  PAW double counting   =     29858.90474315   -30360.05372243
  entropy T*S    EENTRO =        -0.00459595
  eigenvalues    EBANDS =     -3928.33282362
  atomic energy  EATOM  =     15171.73615219
  Solvation  Ediel_sol  =         0.00000000
  ---------------------------------------------------
  free energy    TOTEN  =      -486.73691835 eV

  energy without entropy =     -486.73232240  energy(sigma->0) =     -486.73462037


--------------------------------------------------------------------------------------------------------




--------------------------------------- Iteration      1(  14)  ---------------------------------------


    POTLOK:  cpu time    0.1848: real time    0.1898
    SETDIJ:  cpu time    0.0103: real time    0.0103
     EDDAV:  cpu time   19.8614: real time   19.9335
       DOS:  cpu time    0.0035: real time    0.0035
    CHARGE:  cpu time    0.4050: real time    0.4050
    MIXING:  cpu time    0.0064: real time    0.0064
    --------------------------------------------
      LOOP:  cpu time   20.4713: real time   20.5485

 eigenvalue-minimisations  :  4168
 total energy-change (2. order) :-0.5655396E+00  (-0.1084195E+01)
 number of electron     280.0000028 magnetization       0.0007099
 augmentation part       18.4064401 magnetization       0.0006347

 Broyden mixing:
  rms(total) = 0.67776E+00    rms(broyden)= 0.67709E+00
  rms(prec ) = 0.90837E+00
  weight for this iteration     100.00

 eigenvalues of (default mixing * dielectric matrix)
  average eigenvalue GAMMA=   1.3441
  3.7029  2.3812  0.7314  0.7314  1.1865  1.1865  1.1269  0.7151  0.3347

 Free energy of the ion-electron system (eV)
  ---------------------------------------------------
  alpha Z        PSCENC =       104.41568073
  Ewald energy   TEWEN  =     28701.22919838
  -Hartree energ DENC   =    -41120.59802214
  -exchange      EXHF   =         0.00000000
  -V(xc)+E(xc)   XCENC  =      1094.60001425
  PAW double counting   =     30003.77629985   -30504.84311191
  entropy T*S    EENTRO =        -0.00000000
  eigenvalues    EBANDS =     -3937.61866927
  atomic energy  EATOM  =     15171.73615219
  Solvation  Ediel_sol  =         0.00000000
  ---------------------------------------------------
  free energy    TOTEN  =      -487.30245794 eV

  energy without entropy =     -487.30245794  energy(sigma->0) =     -487.30245794


--------------------------------------------------------------------------------------------------------




--------------------------------------- Iteration      1(  15)  ---------------------------------------


    POTLOK:  cpu time    0.1694: real time    0.1750
    SETDIJ:  cpu time    0.0099: real time    0.0099
     EDDAV:  cpu time   20.3742: real time   20.4254
       DOS:  cpu time    0.0032: real time    0.0032
    CHARGE:  cpu time    0.4288: real time    0.4314
    MIXING:  cpu time    0.0072: real time    0.0072
    --------------------------------------------
      LOOP:  cpu time   20.9928: real time   21.0522

 eigenvalue-minimisations  :  4328
 total energy-change (2. order) : 0.6014912E+00  (-0.8183265E-02)
 number of electron     280.0000028 magnetization       0.0326261
 augmentation part       18.4061109 magnetization       0.0055292

 Broyden mixing:
  rms(total) = 0.19689E+00    rms(broyden)= 0.19672E+00
  rms(prec ) = 0.26215E+00
  weight for this iteration     100.00

 eigenvalues of (default mixing * dielectric matrix)
  average eigenvalue GAMMA=   1.2609
  3.6901  2.3498  1.1970  1.1970  1.1954  0.7279  0.7279  0.6867  0.4856  0.3518

 Free energy of the ion-electron system (eV)
  ---------------------------------------------------
  alpha Z        PSCENC =       104.41568073
  Ewald energy   TEWEN  =     28701.22919838
  -Hartree energ DENC   =    -41116.99537965
  -exchange      EXHF   =         0.00000000
  -V(xc)+E(xc)   XCENC  =      1094.53190760
  PAW double counting   =     30051.89162409   -30552.89610277
  entropy T*S    EENTRO =        -0.03135813
  eigenvalues    EBANDS =     -3940.58268918
  atomic energy  EATOM  =     15171.73615219
  Solvation  Ediel_sol  =         0.00000000
  ---------------------------------------------------
  free energy    TOTEN  =      -486.70096674 eV

  energy without entropy =     -486.66960861  energy(sigma->0) =     -486.68528767


--------------------------------------------------------------------------------------------------------




--------------------------------------- Iteration      1(  16)  ---------------------------------------


    POTLOK:  cpu time    0.1817: real time    0.1903
    SETDIJ:  cpu time    0.0102: real time    0.0102
     EDDAV:  cpu time   19.7227: real time   19.7834
       DOS:  cpu time    0.0030: real time    0.0030
    CHARGE:  cpu time    0.4145: real time    0.4164
    MIXING:  cpu time    0.0071: real time    0.0071
    --------------------------------------------
      LOOP:  cpu time   20.3392: real time   20.4104

 eigenvalue-minimisations  :  4152
 total energy-change (2. order) :-0.6617603E-01  (-0.5498825E-01)
 number of electron     280.0000029 magnetization       0.0281110
 augmentation part       18.4054531 magnetization      -0.0031381

 Broyden mixing:
  rms(total) = 0.49095E+00    rms(broyden)= 0.49042E+00
  rms(prec ) = 0.65696E+00
  weight for this iteration     100.00

 eigenvalues of (default mixing * dielectric matrix)
  average eigenvalue GAMMA=   1.1466
  3.6907  2.3433  1.1964  1.1964  1.1972  0.7276  0.7276  0.6926  0.4337  0.3572
  0.0501

 Free energy of the ion-electron system (eV)
  ---------------------------------------------------
  alpha Z        PSCENC =       104.41568073
  Ewald energy   TEWEN  =     28701.22919838
  -Hartree energ DENC   =    -41117.45921774
  -exchange      EXHF   =         0.00000000
  -V(xc)+E(xc)   XCENC  =      1094.55673359
  PAW double counting   =     30056.32200461   -30557.31633924
  entropy T*S    EENTRO =        -0.00747218
  eigenvalues    EBANDS =     -3940.24388310
  atomic energy  EATOM  =     15171.73615219
  Solvation  Ediel_sol  =         0.00000000
  ---------------------------------------------------
  free energy    TOTEN  =      -486.76714276 eV

  energy without entropy =     -486.75967058  energy(sigma->0) =     -486.76340667


--------------------------------------------------------------------------------------------------------




--------------------------------------- Iteration      1(  17)  ---------------------------------------


    POTLOK:  cpu time    0.1727: real time    0.1739
    SETDIJ:  cpu time    0.0099: real time    0.0099
     EDDAV:  cpu time   18.5240: real time   18.5807
       DOS:  cpu time    0.0030: real time    0.0030
    CHARGE:  cpu time    0.4045: real time    0.4051
    MIXING:  cpu time    0.0074: real time    0.0074
    --------------------------------------------
      LOOP:  cpu time   19.1215: real time   19.1799

 eigenvalue-minimisations  :  3864
 total energy-change (2. order) : 0.3054822E-01  (-0.5652747E-01)
 number of electron     280.0000029 magnetization       0.0173822
 augmentation part       18.4065361 magnetization      -0.3026894

 Broyden mixing:
  rms(total) = 0.44868E+00    rms(broyden)= 0.44832E+00
  rms(prec ) = 0.45196E+00
  weight for this iteration     100.00

 eigenvalues of (default mixing * dielectric matrix)
  average eigenvalue GAMMA=   1.1797
  3.6606  2.1336  2.1336  1.2176  1.2176  0.7199  0.7199  0.8327  0.7621  0.3626
  0.3626  0.0333

 Free energy of the ion-electron system (eV)
  ---------------------------------------------------
  alpha Z        PSCENC =       104.41568073
  Ewald energy   TEWEN  =     28701.22919838
  -Hartree energ DENC   =    -41118.36134399
  -exchange      EXHF   =         0.00000000
  -V(xc)+E(xc)   XCENC  =      1094.58192467
  PAW double counting   =     30053.59992312   -30554.59969388
  entropy T*S    EENTRO =        -0.01382399
  eigenvalues    EBANDS =     -3939.32461176
  atomic energy  EATOM  =     15171.73615219
  Solvation  Ediel_sol  =         0.00000000
  ---------------------------------------------------
  free energy    TOTEN  =      -486.73659455 eV

  energy without entropy =     -486.72277055  energy(sigma->0) =     -486.72968255


--------------------------------------------------------------------------------------------------------




--------------------------------------- Iteration      1(  18)  ---------------------------------------


    POTLOK:  cpu time    0.1693: real time    0.1787
    SETDIJ:  cpu time    0.0098: real time    0.0098
     EDDAV:  cpu time   18.9823: real time   19.0425
       DOS:  cpu time    0.0028: real time    0.0029
    CHARGE:  cpu time    0.4041: real time    0.4055
    MIXING:  cpu time    0.0077: real time    0.0077
    --------------------------------------------
      LOOP:  cpu time   19.5761: real time   19.6471

 eigenvalue-minimisations  :  3920
 total energy-change (2. order) :-0.2486793E-01  (-0.5277850E-01)
 number of electron     280.0000028 magnetization       0.0313017
 augmentation part       18.4070542 magnetization      -0.0153913

 Broyden mixing:
  rms(total) = 0.59924E+00    rms(broyden)= 0.59883E+00
  rms(prec ) = 0.80384E+00
  weight for this iteration     100.00

 eigenvalues of (default mixing * dielectric matrix)
  average eigenvalue GAMMA=   1.1724
  3.5533  2.2791  2.2791  1.2520  1.2520  0.7392  0.7392  0.9344  0.9344  0.6150
  0.3151  0.3151  0.0329

 Free energy of the ion-electron system (eV)
  ---------------------------------------------------
  alpha Z        PSCENC =       104.41568073
  Ewald energy   TEWEN  =     28701.22919838
  -Hartree energ DENC   =    -41119.66614465
  -exchange      EXHF   =         0.00000000
  -V(xc)+E(xc)   XCENC  =      1094.63089387
  PAW double counting   =     30052.73506722   -30553.73653460
  entropy T*S    EENTRO =        -0.00552824
  eigenvalues    EBANDS =     -3938.10024738
  atomic energy  EATOM  =     15171.73615219
  Solvation  Ediel_sol  =         0.00000000
  ---------------------------------------------------
  free energy    TOTEN  =      -486.76146247 eV

  energy without entropy =     -486.75593424  energy(sigma->0) =     -486.75869836


--------------------------------------------------------------------------------------------------------




--------------------------------------- Iteration      1(  19)  ---------------------------------------


    POTLOK:  cpu time    0.1665: real time    0.1741
    SETDIJ:  cpu time    0.0099: real time    0.0099
     EDDAV:  cpu time   19.0478: real time   19.1089
       DOS:  cpu time    0.0029: real time    0.0029
    CHARGE:  cpu time    0.4140: real time    0.4159
    MIXING:  cpu time    0.0085: real time    0.0085
    --------------------------------------------
      LOOP:  cpu time   19.6496: real time   19.7203

 eigenvalue-minimisations  :  4028
 total energy-change (2. order) :-0.3588657E-01  (-0.2656762E+00)
 number of electron     280.0000029 magnetization       0.0278665
 augmentation part       18.4025967 magnetization       0.0213202

 Broyden mixing:
  rms(total) = 0.54642E+00    rms(broyden)= 0.54549E+00
  rms(prec ) = 0.73213E+00
  weight for this iteration     100.00

 eigenvalues of (default mixing * dielectric matrix)
  average eigenvalue GAMMA=   1.2098
  3.6073  2.6542  2.6542  1.1723  1.1723  1.0175  1.0175  0.7385  0.7385  0.8424
  0.6908  0.2991  0.2991  0.0331

 Free energy of the ion-electron system (eV)
  ---------------------------------------------------
  alpha Z        PSCENC =       104.41568073
  Ewald energy   TEWEN  =     28701.22919838
  -Hartree energ DENC   =    -41118.83786243
  -exchange      EXHF   =         0.00000000
  -V(xc)+E(xc)   XCENC  =      1094.61755220
  PAW double counting   =     30040.14044624   -30541.13741882
  entropy T*S    EENTRO =        -0.00056022
  eigenvalues    EBANDS =     -3938.96053732
  atomic energy  EATOM  =     15171.73615219
  Solvation  Ediel_sol  =         0.00000000
  ---------------------------------------------------
  free energy    TOTEN  =      -486.79734905 eV

  energy without entropy =     -486.79678883  energy(sigma->0) =     -486.79706894


--------------------------------------------------------------------------------------------------------




--------------------------------------- Iteration      1(  20)  ---------------------------------------


    POTLOK:  cpu time    0.1957: real time    0.1963
    SETDIJ:  cpu time    0.0107: real time    0.0107
     EDDAV:  cpu time   17.2539: real time   17.2960
       DOS:  cpu time    0.0030: real time    0.0030
    CHARGE:  cpu time    0.3681: real time    0.3683
    MIXING:  cpu time    0.0085: real time    0.0085
    --------------------------------------------
      LOOP:  cpu time   17.8399: real time   17.8828

 eigenvalue-minimisations  :  3496
 total energy-change (2. order) : 0.5281244E-01  (-0.3714730E-03)
 number of electron     280.0000029 magnetization       0.0207535
 augmentation part       18.4028316 magnetization      -0.1770711

 Broyden mixing:
  rms(total) = 0.47669E+00    rms(broyden)= 0.47666E+00
  rms(prec ) = 0.63795E+00
  weight for this iteration     100.00

 eigenvalues of (default mixing * dielectric matrix)
  average eigenvalue GAMMA=   1.1317
  3.5331  2.6873  2.6873  1.1511  1.1511  0.9910  0.9910  0.7284  0.7284  0.9102
  0.7239  0.3183  0.2737  0.0675  0.0331

 Free energy of the ion-electron system (eV)
  ---------------------------------------------------
  alpha Z        PSCENC =       104.41568073
  Ewald energy   TEWEN  =     28701.22919838
  -Hartree energ DENC   =    -41118.93520523
  -exchange      EXHF   =         0.00000000
  -V(xc)+E(xc)   XCENC  =      1094.61493898
  PAW double counting   =     30061.27483262   -30562.27311058
  entropy T*S    EENTRO =        -0.00870556
  eigenvalues    EBANDS =     -3938.79831813
  atomic energy  EATOM  =     15171.73615219
  Solvation  Ediel_sol  =         0.00000000
  ---------------------------------------------------
  free energy    TOTEN  =      -486.74453661 eV

  energy without entropy =     -486.73583105  energy(sigma->0) =     -486.74018383


--------------------------------------------------------------------------------------------------------




--------------------------------------- Iteration      1(  21)  ---------------------------------------


    POTLOK:  cpu time    0.1676: real time    0.1727
    SETDIJ:  cpu time    0.0098: real time    0.0098
     EDDAV:  cpu time   18.3976: real time   18.6011
       DOS:  cpu time    0.0032: real time    0.0032
    CHARGE:  cpu time    0.4514: real time    0.4515
    MIXING:  cpu time    0.0090: real time    0.0090
    --------------------------------------------
      LOOP:  cpu time   19.0387: real time   19.2474

 eigenvalue-minimisations  :  3840
[...]
   0.135E+03 -.771E+01 -.102E+03   -.138E+03 0.927E+01 0.103E+03   0.294E+01 -.154E+01 -.756E+00   -.217E-03 -.150E-02 0.301E-03
   0.366E+02 0.108E+03 0.176E+03   -.353E+02 -.110E+03 -.177E+03   -.948E+00 0.273E+01 0.114E+01   0.504E-03 0.474E-03 0.943E-03
   -.109E+03 -.975E+02 0.423E+02   0.113E+03 0.984E+02 -.420E+02   -.320E+01 -.950E+00 -.240E+00   -.262E-03 -.375E-03 0.247E-03
   -.359E+02 -.913E+02 0.620E+02   0.348E+02 0.910E+02 -.602E+02   0.117E+01 0.204E+00 -.181E+01   0.162E-03 0.143E-03 0.224E-03
   0.239E+03 0.988E+02 -.194E+03   -.247E+03 -.104E+03 0.196E+03   0.801E+01 0.530E+01 -.207E+01   -.128E-02 -.938E-03 0.985E-03
   -.920E+02 -.636E+02 0.168E+02   0.914E+02 0.627E+02 -.184E+02   0.685E+00 0.914E+00 0.157E+01   0.609E-04 0.273E-04 0.251E-03
   0.118E+03 0.194E+02 0.102E+03   -.121E+03 -.175E+02 -.101E+03   0.276E+01 -.148E+01 -.358E+00   0.790E-03 0.484E-03 0.583E-03
   0.446E+02 0.753E+02 -.101E+03   -.445E+02 -.787E+02 0.101E+03   -.238E-01 0.339E+01 -.407E+00   -.133E-02 0.305E-03 0.380E-03
   -.429E+02 -.258E+02 0.233E+02   0.440E+02 0.290E+02 -.238E+02   -.107E+01 -.309E+01 0.522E+00   -.571E-03 -.747E-05 0.146E-03
   0.201E+02 0.218E+01 0.131E+02   -.197E+02 -.516E+01 -.126E+02   -.409E+00 0.283E+01 -.507E+00   0.246E-03 -.595E-03 0.531E-03
   -.498E+01 0.224E+02 0.301E+02   0.700E+01 -.201E+02 -.301E+02   -.193E+01 -.227E+01 0.351E-01   0.173E-03 -.279E-03 0.157E-03
   0.804E+01 0.332E+02 0.913E+01   -.112E+02 -.316E+02 -.948E+01   0.333E+01 -.154E+01 0.411E+00   0.349E-03 -.112E-03 0.538E-03
   -.725E+00 -.321E+02 -.194E+02   0.267E+00 0.350E+02 0.194E+02   0.486E+00 -.285E+01 0.607E-02   -.129E-03 -.228E-03 0.420E-04
   -.785E+02 0.302E+02 -.314E+02   0.755E+02 -.317E+02 0.306E+02   0.299E+01 0.158E+01 0.817E+00   0.357E-04 0.275E-03 0.907E-04
   -.210E+02 -.151E+02 0.986E+02   0.231E+02 0.166E+02 -.100E+03   -.211E+01 -.155E+01 0.139E+01   -.701E-03 -.502E-03 0.630E-03
   0.564E+02 -.126E+02 -.324E+02   -.551E+02 0.128E+02 0.315E+02   -.125E+01 -.487E-01 0.102E+01   0.381E-04 0.261E-03 0.295E-03
   0.312E+02 0.980E+01 -.529E+02   -.302E+02 -.133E+02 0.532E+02   -.802E+00 0.364E+01 -.266E+00   -.459E-03 0.493E-03 0.985E-04
   -.913E+01 0.292E+02 0.162E+02   0.607E+01 -.275E+02 -.157E+02   0.292E+01 -.160E+01 -.382E+00   -.481E-03 0.129E-03 0.293E-03
   0.183E+02 -.288E+02 0.104E+03   -.203E+02 0.305E+02 -.104E+03   0.193E+01 -.178E+01 0.859E+00   0.483E-03 -.114E-03 0.249E-03
   -.468E+02 0.331E+02 -.772E+02   0.484E+02 -.357E+02 0.782E+02   -.156E+01 0.271E+01 -.108E+01   -.453E-04 0.448E-03 0.247E-04
   -.894E+01 0.541E+00 -.907E+02   0.104E+02 0.105E+01 0.931E+02   -.140E+01 -.156E+01 -.226E+01   0.962E-04 -.149E-05 0.210E-03
   -.171E+03 -.727E+02 -.491E+02   0.190E+03 0.701E+02 0.502E+02   -.187E+02 0.255E+01 -.116E+01   -.614E-03 -.140E-03 0.331E-03
   -.259E+03 -.207E+03 0.665E+02   0.288E+03 0.230E+03 -.731E+02   -.283E+02 -.225E+02 0.666E+01   -.249E-03 -.678E-03 0.371E-03
   0.334E+03 -.625E+02 -.227E+03   -.363E+03 0.781E+02 0.236E+03   0.293E+02 -.156E+02 -.873E+01   -.315E-03 -.308E-02 0.159E-03
   0.470E+00 0.222E+03 0.306E+03   0.122E+02 -.250E+03 -.324E+03   -.128E+02 0.286E+02 0.179E+02   0.915E-03 -.277E-03 0.822E-03
   0.492E+02 0.282E+03 0.374E+03   -.402E+02 -.310E+03 -.392E+03   -.975E+01 0.275E+02 0.175E+02   0.120E-02 0.233E-03 0.120E-02
   0.251E+03 -.549E+02 -.180E+03   -.280E+03 0.747E+02 0.189E+03   0.284E+02 -.197E+02 -.990E+01   0.309E-03 -.161E-02 0.733E-03
   -.270E+03 -.188E+03 0.107E+03   0.300E+03 0.205E+03 -.115E+03   -.299E+02 -.178E+02 0.849E+01   0.835E-05 -.391E-03 0.377E-03
   -.647E+02 -.292E+02 0.378E+02   0.677E+02 0.264E+02 -.422E+02   -.304E+01 0.278E+01 0.440E+01   -.647E-04 0.203E-04 0.892E-04
   -.191E+03 -.199E+03 0.862E+02   0.214E+03 0.219E+03 -.901E+02   -.233E+02 -.197E+02 0.390E+01   0.352E-03 0.354E-04 0.456E-03
   -.143E+03 -.233E+03 0.144E+02   0.164E+03 0.260E+03 -.102E+02   -.212E+02 -.269E+02 -.421E+01   0.681E-04 0.474E-03 0.361E-03
   0.308E+03 0.259E+02 0.223E+03   -.340E+03 -.157E+02 -.224E+03   0.314E+02 -.108E+02 0.858E+00   0.615E-03 0.134E-02 0.842E-03
   0.954E+01 0.197E+03 -.213E+03   -.206E+01 -.229E+03 0.229E+03   -.738E+01 0.318E+02 -.157E+02   -.144E-02 0.605E-03 0.241E-03
   0.997E+02 0.213E+03 -.205E+03   -.982E+02 -.246E+03 0.211E+03   -.139E+01 0.328E+02 -.569E+01   -.260E-02 0.858E-03 0.118E-02
   0.245E+03 -.685E+02 0.104E+03   -.275E+03 0.851E+02 -.109E+03   0.302E+02 -.169E+02 0.429E+01   0.892E-04 0.869E-03 0.604E-03
   -.787E+01 0.895E+02 0.460E+02   0.215E+02 -.100E+03 -.452E+02   -.136E+02 0.106E+02 -.837E+00   -.318E-03 0.571E-03 0.335E-03
   -.650E+02 -.131E+02 0.223E+02   0.663E+02 0.162E+02 -.223E+02   -.138E+01 -.318E+01 0.243E-01   -.126E-03 0.585E-04 0.143E-03
   0.102E+02 0.155E+02 0.105E+02   -.117E+02 -.147E+02 -.990E+01   0.152E+01 -.708E+00 -.666E+00   0.422E-03 -.845E-03 0.459E-03
   -.135E+03 -.493E+02 0.250E+03   0.159E+03 0.668E+02 -.270E+03   -.248E+02 -.175E+02 0.203E+02   -.372E-03 -.508E-03 0.641E-03
   0.270E+02 0.186E+02 -.106E+02   -.296E+02 -.243E+02 0.989E+01   0.260E+01 0.562E+01 0.698E+00   -.624E-03 0.333E-03 0.195E-03
   -.168E+03 -.217E+02 -.582E+02   0.182E+03 0.444E+02 0.600E+02   -.135E+02 -.227E+02 -.174E+01   -.424E-03 -.149E-04 0.274E-03
   -.639E+02 0.169E+03 -.122E+03   0.664E+02 -.202E+03 0.134E+03   -.251E+01 0.335E+02 -.116E+02   -.718E-04 -.150E-03 0.412E-04
   0.906E+02 -.161E+03 -.112E+03   -.122E+03 0.178E+03 0.119E+03   0.314E+02 -.170E+02 -.748E+01   -.419E-03 -.304E-03 0.552E-04
   -.977E+02 -.745E+02 0.286E+03   0.123E+03 0.885E+02 -.308E+03   -.255E+02 -.140E+02 0.219E+02   -.704E-03 -.233E-03 0.513E-03
   0.602E+02 0.156E+02 -.517E+02   -.603E+02 -.153E+02 0.520E+02   0.702E-01 -.402E+00 -.264E+00   -.130E-02 -.945E-03 0.761E-03
   0.186E+03 -.225E+01 0.272E+02   -.217E+03 0.106E+02 -.349E+02   0.315E+02 -.850E+01 0.767E+01   -.233E-03 0.703E-03 0.399E-03
   -.829E+02 -.460E+02 -.269E+03   0.103E+03 0.645E+02 0.292E+03   -.207E+02 -.186E+02 -.232E+02   0.280E-03 0.717E-04 0.282E-03
   0.130E+03 -.912E+02 0.247E+03   -.160E+03 0.102E+03 -.263E+03   0.306E+02 -.104E+02 0.160E+02   0.597E-03 0.377E-04 0.220E-03
   -.925E+02 0.141E+03 -.180E+03   0.102E+03 -.174E+03 0.191E+03   -.986E+01 0.327E+02 -.108E+02   0.354E-03 0.371E-03 0.382E-04
   -.743E+02 0.165E+03 -.202E+03   0.808E+02 -.198E+03 0.213E+03   -.665E+01 0.331E+02 -.104E+02   0.165E-03 0.559E-03 0.151E-03
   0.148E+03 -.978E+02 0.229E+03   -.180E+03 0.110E+03 -.241E+03   0.317E+02 -.119E+02 0.120E+02   0.463E-03 -.167E-04 0.251E-03
   -.620E+02 -.736E+02 -.288E+03   0.834E+02 0.878E+02 0.313E+03   -.215E+02 -.142E+02 -.257E+02   0.197E-03 0.582E-04 0.403E-03
   0.573E+02 0.378E+02 0.910E+02   -.568E+02 -.371E+02 -.914E+02   -.724E+00 -.777E+00 0.270E+00   0.703E-03 0.586E-03 0.990E-03
   -.329E+03 -.392E+02 0.636E+02   0.347E+03 0.450E+02 -.652E+02   -.183E+02 -.577E+01 0.162E+01   -.115E-02 0.316E-02 0.176E-02
   -.186E+02 -.104E+03 -.111E+03   0.193E+02 0.120E+03 0.903E+02   -.654E+00 -.160E+02 0.210E+02   -.111E-03 0.512E-03 -.200E-04
   -.134E+02 0.159E+03 -.518E+03   0.119E+02 -.195E+03 0.567E+03   0.142E+01 0.362E+02 -.490E+02   -.116E-03 0.419E-03 -.151E-03
 -----------------------------------------------------------------------------------------------
   0.428E+02 0.192E+02 0.195E+02   -.387E-12 -.341E-12 -.341E-12   -.428E+02 -.192E+02 -.195E+02   -.602E-02 0.216E-02 0.245E-01


 POSITION                                       TOTAL-FORCE (eV/Angst)
 -----------------------------------------------------------------------------------
     14.42000      1.79590      8.69042        -0.027783      0.017241      0.013225
      2.98322      4.76160      6.27135         0.390673      0.262491      0.304777
     -2.31464      4.33074      8.77249        -0.036184      0.000231     -0.010397
      7.55449      1.23096      9.32786         0.033566      0.027968     -0.059140
      5.08767      4.86966      7.01428         0.364236      0.001091      0.214507
      0.09031      0.27662      8.39994         0.016091      0.014547      0.010481
     -4.93679      9.93291      8.08472         0.056544      0.003975      0.045391
     -1.12835     12.57003      9.97683        -0.469879     -0.252070      0.127167
     -6.43541     11.73851      8.41933         0.030598     -0.008358      0.000129
      3.40514      6.61355      7.46446         0.122978      0.426868      0.174984
      1.03946     12.52471      9.42299         0.057103     -0.008763      0.015937
     -3.23097      8.35498      8.39053         0.010484      0.069879      0.016184
      8.52216      3.09636      8.45400        -0.071394     -0.105938     -0.046322
      9.50110      5.36743      8.19779         0.045143      0.018764     -0.005950
      7.05886      5.05279      8.11188         0.173233     -0.044692      0.072261
      5.59526     13.06381      8.75629         0.003202     -0.032433     -0.010528
     11.71883      5.72521      8.57447         0.015376      0.033808     -0.012550
      9.78218      1.19387      8.33875         0.011645      0.017473      0.007622
      4.12236      8.51772      8.52519         0.019150      0.214810      0.063746
      4.85176     10.70992      8.88631         0.087919      0.136203      0.028450
      3.18964     12.69403      8.73327        -0.086127      0.003890      0.063671
     10.23070      7.50888      7.88698         0.000929     -0.008943      0.017139
      7.13188     11.17030      8.93327         0.091634      0.056202     -0.037177
      5.57572      6.72724      8.53163         0.124736      0.051381      0.141521
     -1.57327      3.37974      8.78303         0.030674     -0.029788     -0.035078
     -0.13329      1.62296      8.40606         0.018691      0.023493      0.012079
      6.53599      0.51357      9.85079         0.258574     -0.085560      0.068349
      6.32585      4.40568      7.20022        -0.203581      0.037871     -0.073108
      4.18486      4.23590      6.24453        -0.692022      0.138387     -0.168761
      7.48052      2.53186      9.09136         0.049555      0.098768     -0.090979
     -6.61133     13.09829      8.22329         0.018539      0.033344      0.024468
      6.85920     12.53355      8.60668        -0.029643      0.012652     -0.005034
     -5.23156     11.23916      8.15746        -0.026493      0.023451     -0.003617
     -3.62969      9.61457      8.33140        -0.025002     -0.022142     -0.003071
      2.49459      5.84415      6.80811         0.022426     -0.625477     -0.370728
      2.25947     11.99592      9.39123         0.104252      0.014392     -0.048079
     -0.04860     11.82949      9.82724         0.067609      0.205643     -0.061231
      3.12094      7.82593      7.89940         0.036328     -0.234568     -0.098256
     -1.95764      8.02755      8.53036        -0.023320      0.005008     -0.008251
     -4.23527      7.30547      8.31052        -0.056192     -0.031484      0.006762
      8.39943      4.49217      8.27426        -0.013920      0.085316     -0.020494
      9.61547      2.47356      7.98596         0.007228      0.000005      0.019357
      4.52160     12.16650      8.77340         0.051484     -0.038316     -0.000895
     -2.79623      5.47076      8.75164        -0.033710      0.023228     -0.005376
     10.69525      4.90111      8.64693        -0.016477     -0.022369      0.008182
     13.31485      1.02783      8.89308        -0.030116     -0.037384     -0.011538
     10.90533      0.51163      8.06960        -0.022243      0.023462      0.003948
      8.75201      0.53717      9.04618         0.004299     -0.033665      0.013614
      3.88181      9.86196      8.61103        -0.019580     -0.175819     -0.035243
      5.24594      7.91397      9.00521        -0.002681     -0.064459     -0.054061
      9.27554      6.56480      7.70211        -0.022110      0.015819     -0.006451
      8.36606     10.73029      8.95723        -0.075167     -0.015111      0.003066
      6.09639     10.37946      9.16314        -0.082791     -0.078971     -0.006135
      9.92848      8.77047      7.70589        -0.007390     -0.029459      0.008149
      6.74955      6.11449      8.83940        -0.082422     -0.030989     -0.077405
      4.69879      6.06776      7.63991        -0.169006     -0.125836     -0.142261
     -0.31705      8.56634      8.71627         0.009082      0.019766      0.003502
     -0.45482      8.18815     11.46309         0.010725      0.087399     -0.054426
     -0.48254      7.50811     12.37893        -0.019472     -0.062232      0.073873
 -----------------------------------------------------------------------------------
    total drift:                                0.004498     -0.002044      0.006501


--------------------------------------------------------------------------------------------------------



  FREE ENERGIE OF THE ION-ELECTRON SYSTEM (eV)
  ---------------------------------------------------
  free  energy   TOTEN  =      -490.28323203 eV

  energy  without entropy=     -490.25045787  energy(sigma->0) =     -490.26684495



--------------------------------------------------------------------------------------------------------


    POTLOK:  cpu time    0.1916: real time    0.1917


--------------------------------------------------------------------------------------------------------


     LOOP+:  cpu time  635.4108: real time  637.9050
    4ORBIT:  cpu time    0.0000: real time    0.0000



 total charge     

# of ion       s       p       d       tot
------------------------------------------
    1        0.846   1.721   0.000   2.567
    2        0.879   1.653   0.000   2.531
    3        0.909   1.779   0.000   2.688
    4        0.861   1.716   0.000   2.577
    5        0.860   1.714   0.000   2.574
    6        0.860   1.721   0.000   2.581
    7        0.857   1.711   0.000   2.567
    8        0.883   1.649   0.000   2.532
    9        0.855   1.710   0.000   2.564
   10        0.860   1.716   0.000   2.576
   11        0.861   1.715   0.000   2.576
   12        0.854   1.705   0.000   2.559
   13        0.851   1.710   0.000   2.560
   14        0.854   1.730   0.000   2.584
   15        0.852   1.707   0.000   2.559
   16        0.851   1.729   0.000   2.580
   17        0.845   1.717   0.000   2.563
   18        0.859   1.717   0.000   2.575
   19        0.853   1.696   0.000   2.549
   20        0.854   1.698   0.000   2.553
   21        0.849   1.710   0.000   2.559
   22        0.860   1.712   0.000   2.572
   23        0.866   1.741   0.000   2.607
   24        0.859   1.717   0.000   2.576
   25        1.239   2.750   0.000   3.989
   26        1.274   2.620   0.000   3.894
   27        1.269   2.632   0.000   3.901
   28        1.272   2.643   0.000   3.915
   29        1.263   2.635   0.000   3.898
   30        1.272   2.647   0.000   3.918
   31        1.273   2.622   0.000   3.895
   32        1.223   2.736   0.000   3.959
   33        1.258   2.660   0.000   3.919
   34        1.275   2.624   0.000   3.899
   35        1.263   2.632   0.000   3.895
   36        1.272   2.645   0.000   3.917
   37        1.266   2.623   0.000   3.889
   38        1.273   2.629   0.000   3.901
   39        1.253   2.602   0.000   3.855
   40        1.217   2.692   0.000   3.908
   41        1.212   2.720   0.000   3.932
   42        1.269   2.636   0.000   3.905
   43        1.212   2.687   0.000   3.899
   44        1.240   2.735   0.000   3.975
   45        1.270   2.649   0.000   3.920
   46        1.270   2.649   0.000   3.919
   47        1.270   2.639   0.000   3.908
   48        1.227   2.722   0.000   3.949
   49        1.259   2.653   0.000   3.913
   50        1.272   2.632   0.000   3.904
   51        1.273   2.644   0.000   3.917
   52        1.276   2.632   0.000   3.908
   53        1.271   2.686   0.000   3.956
   54        1.275   2.630   0.000   3.905
   55        1.271   2.627   0.000   3.898
   56        1.226   2.722   0.000   3.947
   57        1.318   0.847  10.087  12.252
   58        1.031   1.456   0.000   2.487
   59        1.642   3.532   0.000   5.174
--------------------------------------------------
tot         64.882 131.984  10.087 206.953



 magnetization (x)

# of ion       s       p       d       tot
------------------------------------------
    1       -0.000  -0.000   0.000  -0.000
    2       -0.000  -0.001   0.000  -0.002
    3        0.000  -0.000   0.000  -0.000
    4        0.000   0.000   0.000   0.000
    5       -0.000  -0.000   0.000  -0.000
    6       -0.000  -0.000   0.000  -0.000
    7       -0.000  -0.000   0.000  -0.000
    8        0.000   0.000   0.000   0.000
    9       -0.000  -0.000   0.000  -0.000
   10       -0.000  -0.000   0.000  -0.000
   11        0.000   0.000   0.000   0.000
   12        0.000  -0.000   0.000  -0.000
   13        0.000   0.000   0.000   0.000
   14       -0.000  -0.000   0.000  -0.000
   15       -0.000  -0.000   0.000  -0.000
   16       -0.000  -0.000   0.000  -0.000
   17        0.000  -0.000   0.000  -0.000
   18        0.000   0.000   0.000   0.000
   19       -0.000  -0.000   0.000  -0.000
   20       -0.000  -0.000   0.000  -0.000
   21        0.000   0.000   0.000   0.000
   22        0.000  -0.000   0.000  -0.000
   23       -0.000  -0.000   0.000  -0.000
   24       -0.000  -0.000   0.000  -0.000
   25        0.000  -0.000   0.000  -0.000
   26       -0.000  -0.000   0.000  -0.000
   27        0.000   0.000   0.000   0.000
   28       -0.000  -0.000   0.000  -0.000
   29       -0.000  -0.000   0.000  -0.000
   30        0.000  -0.000   0.000   0.000
   31        0.000   0.000   0.000   0.000
   32       -0.000   0.000   0.000   0.000
   33        0.000   0.000   0.000   0.000
   34        0.000   0.000   0.000   0.000
   35       -0.000  -0.000   0.000  -0.000
   36        0.000   0.000   0.000   0.000
   37        0.000   0.000   0.000   0.000
   38       -0.000  -0.000   0.000  -0.000
   39       -0.000  -0.000   0.000  -0.000
   40       -0.000  -0.000   0.000  -0.000
   41       -0.000  -0.000   0.000  -0.000
   42       -0.000   0.000   0.000   0.000
   43       -0.000  -0.000   0.000  -0.000
   44        0.000  -0.000   0.000  -0.000
   45       -0.000  -0.000   0.000  -0.000
   46        0.000  -0.000   0.000  -0.000
   47       -0.000   0.000   0.000   0.000
   48        0.000   0.000   0.000   0.000
   49       -0.000   0.000   0.000   0.000
   50       -0.000  -0.000   0.000  -0.000
   51       -0.000  -0.000   0.000  -0.000
   52        0.000   0.000   0.000   0.000
   53       -0.000  -0.000   0.000  -0.000
   54        0.000   0.000   0.000   0.000
   55        0.000  -0.000   0.000  -0.000
   56       -0.000  -0.000   0.000  -0.000
   57       -0.000  -0.000   0.000  -0.000
   58       -0.000   0.000   0.000  -0.000
   59        0.000  -0.000   0.000  -0.000
--------------------------------------------------
tot         -0.001  -0.002   0.000  -0.003


 total amount of memory used by VASP MPI-rank0   123241. kBytes
=======================================================================

   base      :      30000. kBytes
   nonl-proj :      28336. kBytes
   fftplans  :       5346. kBytes
   grid      :      16143. kBytes
   one-center:        155. kBytes
   wavefun   :      43261. kBytes

  
  
 General timing and accounting informations for this job:
 ========================================================
  
                  Total CPU time used (sec):      652.691
                            User time (sec):      650.812
                          System time (sec):        1.878
                         Elapsed time (sec):      656.028
  
                   Maximum memory used (kb):      187368.
                   Average memory used (kb):           0.
  
                          Minor page faults:       142208
                          Major page faults:            0
                 Voluntary context switches:         1871
