 vasp.5.4.4.18Apr17-6-g9f103f2a35 (build Jan 14 2022 15:04:31) complex          
  
 executed on             LinuxIFC date 2023.01.27  22:53:27
 running on   48 total cores
 distrk:  each k-point on   48 cores,    1 groups
 distr:  one band on NCORES_PER_BAND=  12 cores,    4 groups


--------------------------------------------------------------------------------------------------------


 INCAR:
 POTCAR:    PAW_PBE C 08Apr2002                   
 POTCAR:    PAW_PBE N 08Apr2002                   
 POTCAR:    PAW_PBE C 08Apr2002                   
 POTCAR:    PAW_PBE Cr_pv 02Aug2007               
 POTCAR:    PAW_PBE C 08Apr2002                   
 POTCAR:    PAW_PBE O 08Apr2002                   
 POTCAR:    PAW_PBE C 08Apr2002                   
   SHA256 =  253f7b50bb8d59471dbedb8285d89021f4a42ed1a2c5d38a03a736e69125dd95 C/
   COPYR  = (c) Copyright 08Apr2002 Georg Kresse                                
   COPYR  = This file is part of the software VASP. Any use, copying, and all ot
   COPYR  = If you do not have a valid VASP license, you may not use, copy or di
   VRHFIN =C: s2p2                                                              
   LEXCH  = PE                                                                  
   EATOM  =   147.1560 eV,   10.8157 Ry                                         
                                                                                
   TITEL  = PAW_PBE C 08Apr2002                                                 
   LULTRA =        F    use ultrasoft PP ?                                      
   IUNSCR =        1    unscreen: 0-lin 1-nonlin 2-no                           
   RPACOR =    1.200    partial core radius                                     
   POMASS =   12.011; ZVAL   =    4.000    mass and valenz                      
   RCORE  =    1.500    outmost cutoff radius                                   
   RWIGS  =    1.630; RWIGS  =    0.863    wigner-seitz radius (au A)           
   ENMAX  =  400.000; ENMIN  =  300.000 eV                                      
   ICORE  =        2    local potential                                         
   LCOR   =        T    correct aug charges                                     
   LPAW   =        T    paw PP                                                  
   EAUG   =  644.873                                                            
   DEXC   =    0.000                                                            
   RMAX   =    1.529    core radius for proj-oper                               
   RAUG   =    1.300    factor for augmentation sphere                          
   RDEP   =    1.501    radius for radial grids                                 
   RDEPT  =    1.300    core radius for aug-charge                              
                                                                                
   Atomic configuration                                                         
    4 entries                                                                   
     n  l   j            E        occ.                                          
     1  0  0.50      -273.3789   2.0000                                         
     2  0  0.50       -13.7508   2.0000                                         
     2  1  0.50        -5.2854   2.0000                                         
     3  2  1.50        -5.4423   0.0000                                         
   Description                                                                  
     l       E           TYP  RCUT    TYP  RCUT                                 
     0    -13.7508458     23  1.200                                             
     0     -8.2022199     23  1.200                                             
     1     -5.2854383     23  1.500                                             
     1     34.0145650     23  1.500                                             
     2     -5.4423304      7  1.500                                             
  local pseudopotential read in
  partial core-charges read in
  partial kinetic energy density read in
  atomic valenz-charges read in
  non local Contribution for L=           0  read in
    real space projection operators read in
  non local Contribution for L=           0  read in
    real space projection operators read in
  non local Contribution for L=           1  read in
    real space projection operators read in
  non local Contribution for L=           1  read in
    real space projection operators read in
    PAW grid and wavefunctions read in
 
   number of l-projection  operators is LMAX  =           4
   number of lm-projection operators is LMMAX =           8
 
 POTCAR:    PAW_PBE N 08Apr2002                   
   SHA256 =  e053789ff3a61a86a1b75d8a110fcc91f86041011e7b0817c7c99e4e8a6349d7 N/
   COPYR  = (c) Copyright 08Apr2002 Georg Kresse                                
   COPYR  = This file is part of the software VASP. Any use, copying, and all ot
   COPYR  = If you do not have a valid VASP license, you may not use, copy or di
   VRHFIN =N: s2p3                                                              
   LEXCH  = PE                                                                  
   EATOM  =   264.5486 eV,   19.4438 Ry                                         
                                                                                
   TITEL  = PAW_PBE N 08Apr2002                                                 
   LULTRA =        F    use ultrasoft PP ?                                      
   IUNSCR =        1    unscreen: 0-lin 1-nonlin 2-no                           
   RPACOR =    1.200    partial core radius                                     
   POMASS =   14.001; ZVAL   =    5.000    mass and valenz                      
   RCORE  =    1.500    outmost cutoff radius                                   
   RWIGS  =    1.400; RWIGS  =    0.741    wigner-seitz radius (au A)           
   ENMAX  =  400.000; ENMIN  =  300.000 eV                                      
   ICORE  =        2    local potential                                         
   LCOR   =        T    correct aug charges                                     
   LPAW   =        T    paw PP                                                  
   EAUG   =  627.112                                                            
   DEXC   =    0.000                                                            
   RMAX   =    1.529    core radius for proj-oper                               
   RAUG   =    1.300    factor for augmentation sphere                          
   RDEP   =    1.514    radius for radial grids                                 
   RDEPT  =    1.338    core radius for aug-charge                              
                                                                                
   Atomic configuration                                                         
    4 entries                                                                   
     n  l   j            E        occ.                                          
     1  0  0.50      -384.7179   2.0000                                         
     2  0  0.50       -18.5828   2.0000                                         
     2  1  0.50        -7.0898   3.0000                                         
     3  2  1.50        -6.8029   0.0000                                         
   Description                                                                  
     l       E           TYP  RCUT    TYP  RCUT                                 
     0    -18.5828119     23  1.200                                             
     0    -13.5018863     23  1.200                                             
     1     -7.0897853     23  1.500                                             
     1      9.5240782     23  1.500                                             
     2     -6.8029130      7  1.500                                             
  local pseudopotential read in
  partial core-charges read in
  partial kinetic energy density read in
  atomic valenz-charges read in
  non local Contribution for L=           0  read in
    real space projection operators read in
  non local Contribution for L=           0  read in
    real space projection operators read in
  non local Contribution for L=           1  read in
    real space projection operators read in
  non local Contribution for L=           1  read in
    real space projection operators read in
    PAW grid and wavefunctions read in
 
   number of l-projection  operators is LMAX  =           4
   number of lm-projection operators is LMMAX =           8
 
 POTCAR:    PAW_PBE C 08Apr2002                   
   SHA256 =  253f7b50bb8d59471dbedb8285d89021f4a42ed1a2c5d38a03a736e69125dd95 C/
   COPYR  = (c) Copyright 08Apr2002 Georg Kresse                                
   COPYR  = This file is part of the software VASP. Any use, copying, and all ot
   COPYR  = If you do not have a valid VASP license, you may not use, copy or di
   VRHFIN =C: s2p2                                                              
   LEXCH  = PE                                                                  
   EATOM  =   147.1560 eV,   10.8157 Ry                                         
                                                                                
   TITEL  = PAW_PBE C 08Apr2002                                                 
   LULTRA =        F    use ultrasoft PP ?                                      
   IUNSCR =        1    unscreen: 0-lin 1-nonlin 2-no                           
   RPACOR =    1.200    partial core radius                                     
   POMASS =   12.011; ZVAL   =    4.000    mass and valenz                      
   RCORE  =    1.500    outmost cutoff radius                                   
   RWIGS  =    1.630; RWIGS  =    0.863    wigner-seitz radius (au A)           
   ENMAX  =  400.000; ENMIN  =  300.000 eV                                      
   ICORE  =        2    local potential                                         
   LCOR   =        T    correct aug charges                                     
   LPAW   =        T    paw PP                                                  
   EAUG   =  644.873                                                            
   DEXC   =    0.000                                                            
   RMAX   =    1.529    core radius for proj-oper                               
   RAUG   =    1.300    factor for augmentation sphere                          
   RDEP   =    1.501    radius for radial grids                                 
   RDEPT  =    1.300    core radius for aug-charge                              
                                                                                
   Atomic configuration                                                         
    4 entries                                                                   
     n  l   j            E        occ.                                          
     1  0  0.50      -273.3789   2.0000                                         
     2  0  0.50       -13.7508   2.0000                                         
     2  1  0.50        -5.2854   2.0000                                         
     3  2  1.50        -5.4423   0.0000                                         
   Description                                                                  
     l       E           TYP  RCUT    TYP  RCUT                                 
     0    -13.7508458     23  1.200                                             
     0     -8.2022199     23  1.200                                             
     1     -5.2854383     23  1.500                                             
     1     34.0145650     23  1.500                                             
     2     -5.4423304      7  1.500                                             
  local pseudopotential read in
  partial core-charges read in
  partial kinetic energy density read in
  atomic valenz-charges read in
  non local Contribution for L=           0  read in
    real space projection operators read in
  non local Contribution for L=           0  read in
    real space projection operators read in
  non local Contribution for L=           1  read in
    real space projection operators read in
  non local Contribution for L=           1  read in
    real space projection operators read in
    PAW grid and wavefunctions read in
 
   number of l-projection  operators is LMAX  =           4
   number of lm-projection operators is LMMAX =           8
 
 POTCAR:    PAW_PBE Cr_pv 02Aug2007               
   SHA256 =  c9a7df34d3cdbacf1090e328ef39c0b420964e11c23f63548d1ac9dd218cdba0 Cr
   COPYR  = (c) Copyright 02Aug2007 Georg Kresse                                
   COPYR  = This file is part of the software VASP. Any use, copying, and all ot
   COPYR  = If you do not have a valid VASP license, you may not use, copy or di
   VRHFIN =Cr : p6d5s1                                                          
   LEXCH  = PE                                                                  
   EATOM  =  1647.9177 eV,  121.1185 Ry                                         
                                                                                
   TITEL  = PAW_PBE Cr_pv 02Aug2007                                             
   LULTRA =        F    use ultrasoft PP ?                                      
   IUNSCR =        1    unscreen: 0-lin 1-nonlin 2-no                           
   RPACOR =    2.080    partial core radius                                     
   POMASS =   51.996; ZVAL   =   12.000    mass and valenz                      
   RCORE  =    2.300    outmost cutoff radius                                   
   RWIGS  =    2.500; RWIGS  =    1.323    wigner-seitz radius (au A)           
   ENMAX  =  265.681; ENMIN  =  199.261 eV                                      
   ICORE  =        3    local potential                                         
   LCOR   =        T    correct aug charges                                     
   LPAW   =        T    paw PP                                                  
   EAUG   =  519.424                                                            
   DEXC   =    0.000                                                            
   RMAX   =    2.356    core radius for proj-oper                               
   RAUG   =    1.300    factor for augmentation sphere                          
   RDEP   =    2.447    radius for radial grids                                 
   RDEPT  =    1.882    core radius for aug-charge                              
                                                                                
   Atomic configuration                                                         
    8 entries                                                                   
     n  l   j            E        occ.                                          
     1  0  0.50     -5880.4963   2.0000                                         
     2  0  0.50      -667.0865   2.0000                                         
     2  1  1.50      -560.6250   6.0000                                         
     3  0  0.50       -73.9860   2.0000                                         
     3  1  1.50       -45.4378   6.0000                                         
     3  2  2.50        -2.9137   5.0000                                         
     4  0  0.50        -4.0071   1.0000                                         
     4  3  2.50        -1.3606   0.0000                                         
   Description                                                                  
     l       E           TYP  RCUT    TYP  RCUT                                 
     1    -45.4377911     23  2.000                                             
     1      1.3605826     23  2.000                                             
     2     -2.9136672     23  2.300                                             
     2     -4.2742498     23  2.300                                             
     0     -4.0071320     23  2.300                                             
     0      9.4498803     23  2.300                                             
     3      2.7211652     23  2.300                                             
  local pseudopotential read in
  partial core-charges read in
  partial kinetic energy density read in
  atomic valenz-charges read in
  non local Contribution for L=           1  read in
    real space projection operators read in
  non local Contribution for L=           1  read in
    real space projection operators read in
  non local Contribution for L=           2  read in
    real space projection operators read in
  non local Contribution for L=           2  read in
    real space projection operators read in
  non local Contribution for L=           0  read in
    real space projection operators read in
  non local Contribution for L=           0  read in
    real space projection operators read in
    PAW grid and wavefunctions read in
 
   number of l-projection  operators is LMAX  =           6
   number of lm-projection operators is LMMAX =          18
 
 POTCAR:    PAW_PBE C 08Apr2002                   
   SHA256 =  253f7b50bb8d59471dbedb8285d89021f4a42ed1a2c5d38a03a736e69125dd95 C/
   COPYR  = (c) Copyright 08Apr2002 Georg Kresse                                
   COPYR  = This file is part of the software VASP. Any use, copying, and all ot
   COPYR  = If you do not have a valid VASP license, you may not use, copy or di
   VRHFIN =C: s2p2                                                              
   LEXCH  = PE                                                                  
   EATOM  =   147.1560 eV,   10.8157 Ry                                         
                                                                                
   TITEL  = PAW_PBE C 08Apr2002                                                 
   LULTRA =        F    use ultrasoft PP ?                                      
   IUNSCR =        1    unscreen: 0-lin 1-nonlin 2-no                           
   RPACOR =    1.200    partial core radius                                     
   POMASS =   12.011; ZVAL   =    4.000    mass and valenz                      
   RCORE  =    1.500    outmost cutoff radius                                   
   RWIGS  =    1.630; RWIGS  =    0.863    wigner-seitz radius (au A)           
   ENMAX  =  400.000; ENMIN  =  300.000 eV                                      
   ICORE  =        2    local potential                                         
   LCOR   =        T    correct aug charges                                     
   LPAW   =        T    paw PP                                                  
   EAUG   =  644.873                                                            
   DEXC   =    0.000                                                            
   RMAX   =    1.529    core radius for proj-oper                               
   RAUG   =    1.300    factor for augmentation sphere                          
   RDEP   =    1.501    radius for radial grids                                 
   RDEPT  =    1.300    core radius for aug-charge                              
                                                                                
   Atomic configuration                                                         
    4 entries                                                                   
     n  l   j            E        occ.                                          
     1  0  0.50      -273.3789   2.0000                                         
     2  0  0.50       -13.7508   2.0000                                         
     2  1  0.50        -5.2854   2.0000                                         
     3  2  1.50        -5.4423   0.0000                                         
   Description                                                                  
     l       E           TYP  RCUT    TYP  RCUT                                 
     0    -13.7508458     23  1.200                                             
     0     -8.2022199     23  1.200                                             
     1     -5.2854383     23  1.500                                             
     1     34.0145650     23  1.500                                             
     2     -5.4423304      7  1.500                                             
  local pseudopotential read in
  partial core-charges read in
  partial kinetic energy density read in
  atomic valenz-charges read in
  non local Contribution for L=           0  read in
    real space projection operators read in
  non local Contribution for L=           0  read in
    real space projection operators read in
  non local Contribution for L=           1  read in
    real space projection operators read in
  non local Contribution for L=           1  read in
    real space projection operators read in
    PAW grid and wavefunctions read in
 
   number of l-projection  operators is LMAX  =           4
   number of lm-projection operators is LMMAX =           8
 
 POTCAR:    PAW_PBE O 08Apr2002                   
   SHA256 =  818f92134a0a090dccd8ba1447fa70422a3b330e708bb4f08108d8ae51209ddf O/
   COPYR  = (c) Copyright 08Apr2002 Georg Kresse                                
   COPYR  = This file is part of the software VASP. Any use, copying, and all ot
   COPYR  = If you do not have a valid VASP license, you may not use, copy or di
   VRHFIN =O: s2p4                                                              
   LEXCH  = PE                                                                  
   EATOM  =   432.3788 eV,   31.7789 Ry                                         
                                                                                
   TITEL  = PAW_PBE O 08Apr2002                                                 
   LULTRA =        F    use ultrasoft PP ?                                      
   IUNSCR =        1    unscreen: 0-lin 1-nonlin 2-no                           
   RPACOR =    1.200    partial core radius                                     
   POMASS =   16.000; ZVAL   =    6.000    mass and valenz                      
   RCORE  =    1.520    outmost cutoff radius                                   
   RWIGS  =    1.550; RWIGS  =    0.820    wigner-seitz radius (au A)           
   ENMAX  =  400.000; ENMIN  =  300.000 eV                                      
   ICORE  =        2    local potential                                         
   LCOR   =        T    correct aug charges                                     
   LPAW   =        T    paw PP                                                  
   EAUG   =  605.392                                                            
   DEXC   =    0.000                                                            
   RMAX   =    1.553    core radius for proj-oper                               
   RAUG   =    1.300    factor for augmentation sphere                          
   RDEP   =    1.550    radius for radial grids                                 
   RDEPT  =    1.329    core radius for aug-charge                              
                                                                                
   Atomic configuration                                                         
    4 entries                                                                   
     n  l   j            E        occ.                                          
     1  0  0.50      -514.6923   2.0000                                         
     2  0  0.50       -23.9615   2.0000                                         
     2  1  0.50        -9.0305   4.0000                                         
     3  2  1.50        -9.5241   0.0000                                         
   Description                                                                  
     l       E           TYP  RCUT    TYP  RCUT                                 
     0    -23.9615318     23  1.200                                             
     0     -9.5240782     23  1.200                                             
     1     -9.0304911     23  1.520                                             
     1      8.1634956     23  1.520                                             
     2     -9.5240782      7  1.500                                             
  local pseudopotential read in
  partial core-charges read in
  partial kinetic energy density read in
  kinetic energy density of atom read in
  atomic valenz-charges read in
  non local Contribution for L=           0  read in
    real space projection operators read in
  non local Contribution for L=           0  read in
    real space projection operators read in
  non local Contribution for L=           1  read in
    real space projection operators read in
  non local Contribution for L=           1  read in
    real space projection operators read in
    PAW grid and wavefunctions read in
 
   number of l-projection  operators is LMAX  =           4
   number of lm-projection operators is LMMAX =           8
 

 ----------------------------------------------------------------------------- 
|                                                                             |
|  ADVICE TO THIS USER RUNNING 'VASP/VAMP'   (HEAR YOUR MASTER'S VOICE ...):  |
|                                                                             |
|      You have a (more or less) 'large supercell' and for larger cells       |
|      it might be more efficient to use real space projection opertators     |
|      So try LREAL= Auto  in the INCAR   file.                               |
|      Mind:          For very  accurate calculation you might also keep the  |
|      reciprocal projection scheme          (i.e. LREAL=.FALSE.)             |
|                                                                             |
 ----------------------------------------------------------------------------- 

  PAW_PBE C 08Apr2002                   :
 energy of atom  1       EATOM= -147.1560
 kinetic energy error for atom=    0.0132 (will be added to EATOM!!)
  PAW_PBE N 08Apr2002                   :
 energy of atom  2       EATOM= -264.5486
 kinetic energy error for atom=    0.0298 (will be added to EATOM!!)
  PAW_PBE C 08Apr2002                   :
 energy of atom  3       EATOM= -147.1560
 kinetic energy error for atom=    0.0132 (will be added to EATOM!!)
  PAW_PBE Cr_pv 02Aug2007               :
 energy of atom  4       EATOM=-1647.9177
 kinetic energy error for atom=    0.0134 (will be added to EATOM!!)
  PAW_PBE C 08Apr2002                   :
 energy of atom  5       EATOM= -147.1560
 kinetic energy error for atom=    0.0132 (will be added to EATOM!!)
  PAW_PBE O 08Apr2002                   :
 energy of atom  6       EATOM= -432.3788
 kinetic energy error for atom=    0.0458 (will be added to EATOM!!)
 
 
 POSCAR: POSCAR-clean                            
  positions in direct lattice
  velocities in cartesian coordinates
 exchange correlation table for  LEXCH =        8
   RHO(1)=    0.500       N(1)  =     2000
   RHO(2)=  100.500       N(2)  =     4000

 VTST: version 3.2, (02/03/18)

 CHAIN: initializing optimizer
 
 OPT: Using VASP Dynamics algorithm
 CHAIN: Read ICHAIN            0
 
 POSCAR: POSCAR-clean                            
  positions in direct lattice
  velocities in cartesian coordinates
 


--------------------------------------------------------------------------------------------------------


 ion  position               nearest neighbor table
   1  0.999  1.000  0.492-   2 1.42  60 1.42  70 1.43
   2  0.055  0.111  0.492-   1 1.42  13 1.43  15 1.43
   3  0.167  0.002  0.492-   4 1.42  62 1.43  60 1.43
   4  0.223  0.113  0.492-   3 1.42  15 1.43  17 1.44
   5  0.334  0.003  0.492-   6 1.42  62 1.43  64 1.43
   6  0.390  0.114  0.495-   5 1.42  19 1.43  17 1.43
   7  0.500  0.001  0.490-  64 1.42   8 1.42  66 1.43
   8  0.556  0.113  0.493-   7 1.42  21 1.42  19 1.44
   9  0.666  0.000  0.490-  10 1.41  66 1.42  68 1.43
  10  0.722  0.111  0.491-   9 1.41  23 1.41  21 1.42
  11  0.832  0.999  0.492-  12 1.42  70 1.42  68 1.43
  12  0.887  0.110  0.492-  11 1.42  23 1.42  13 1.43
  13  0.998  0.166  0.493-  14 1.42   2 1.43  12 1.43
  14  0.054  0.277  0.493-  13 1.42  25 1.42  27 1.43
  15  0.166  0.168  0.492-  16 1.42   4 1.43   2 1.43
  16  0.222  0.279  0.491-  15 1.42  27 1.43  29 1.44
  17  0.335  0.170  0.495-  18 1.42   6 1.43   4 1.44
  18  0.391  0.281  0.498-  17 1.42  29 1.43  31 1.44
  19  0.501  0.170  0.496-  20 1.42   6 1.43   8 1.44
  20  0.557  0.281  0.500-  33 1.42  19 1.42  31 1.45
  21  0.667  0.166  0.494-  22 1.42  10 1.42   8 1.42
  22  0.722  0.277  0.496-  21 1.42  35 1.43  33 1.43
  23  0.831  0.166  0.492-  10 1.41  24 1.42  12 1.42
  24  0.887  0.277  0.493-  23 1.42  35 1.42  25 1.43
  25  0.999  0.333  0.493-  14 1.42  26 1.43  24 1.43
  26  0.055  0.444  0.493-  37 1.42  39 1.42  25 1.43
  27  0.165  0.334  0.493-  28 1.42  16 1.43  14 1.43
  28  0.220  0.445  0.493-  27 1.42  41 1.42  39 1.42
  29  0.334  0.336  0.492-  30 1.41  18 1.43  16 1.44
  30  0.387  0.446  0.490-  29 1.41  41 1.42  71 1.91
  31  0.502  0.340  0.505-  32 1.43  18 1.44  20 1.45
  32  0.559  0.451  0.514-  43 1.42  31 1.43  71 2.04
  33  0.667  0.333  0.500-  20 1.42  34 1.42  22 1.43
  34  0.724  0.445  0.502-  43 1.41  33 1.42  45 1.43
  35  0.833  0.334  0.495-  36 1.42  24 1.42  22 1.43
  36  0.889  0.445  0.495-  35 1.42  45 1.42  37 1.42
  37  1.000  0.500  0.493-  26 1.42  38 1.42  36 1.42
  38  0.056  0.612  0.492-  47 1.42  37 1.42  49 1.42
  39  0.165  0.500  0.493-  26 1.42  28 1.42  40 1.42
  40  0.221  0.612  0.492-  49 1.42  51 1.42  39 1.42
  41  0.331  0.500  0.488-  30 1.42  28 1.42  42 1.44  71 2.52
  42  0.387  0.613  0.486-  53 1.42  51 1.42  41 1.44  71 2.53
  43  0.670  0.500  0.508-  34 1.41  44 1.42  32 1.42
  44  0.725  0.612  0.507-  57 1.41  43 1.42  55 1.42
  45  0.835  0.501  0.498-  46 1.42  36 1.42  34 1.43
  46  0.890  0.612  0.497-  45 1.42  47 1.42  57 1.42
  47  0.001  0.668  0.493-  46 1.42  38 1.42  48 1.42
  48  0.056  0.779  0.492-  47 1.42  61 1.43  59 1.43
  49  0.166  0.668  0.491-  40 1.42  38 1.42  50 1.42
  50  0.222  0.779  0.490-  49 1.42  63 1.43  61 1.43
  51  0.332  0.668  0.490-  42 1.42  52 1.42  40 1.42
  52  0.389  0.779  0.487-  51 1.42  63 1.42  65 1.43
  53  0.498  0.666  0.482-  54 1.41  42 1.42  71 1.94
  54  0.554  0.777  0.485-  53 1.41  67 1.43  65 1.43
  55  0.664  0.662  0.512-  44 1.42  56 1.43  71 2.03
  56  0.719  0.773  0.500-  55 1.43  67 1.44  69 1.44
  57  0.835  0.667  0.499-  44 1.41  58 1.42  46 1.42
  58  0.889  0.778  0.497-  57 1.42  69 1.43  59 1.43
  59  0.000  0.834  0.493-  60 1.42  58 1.43  48 1.43
  60  0.056  0.946  0.492-  59 1.42   1 1.42   3 1.43
  61  0.167  0.835  0.491-  62 1.42  48 1.43  50 1.43
  62  0.223  0.947  0.491-  61 1.42   3 1.43   5 1.43
  63  0.333  0.835  0.489-  64 1.42  52 1.42  50 1.43
  64  0.389  0.946  0.490-   7 1.42  63 1.42   5 1.43
  65  0.500  0.834  0.486-  66 1.43  52 1.43  54 1.43
  66  0.556  0.946  0.488-   9 1.42  65 1.43   7 1.43
  67  0.665  0.832  0.492-  68 1.42  54 1.43  56 1.44
  68  0.721  0.943  0.491-  67 1.42  11 1.43   9 1.43
  69  0.831  0.831  0.497-  58 1.43  70 1.43  56 1.44
  70  0.887  0.943  0.493-  11 1.42  69 1.43   1 1.43
  71  0.513  0.557  0.540-  72 1.91  30 1.91  53 1.94  55 2.03  32 2.04  41 2.52  42 2.53
  72  0.519  0.513  0.659-  73 1.16  71 1.91
  73  0.522  0.489  0.732-  72 1.16
 

IMPORTANT INFORMATION: All symmetrisations will be switched off!
NOSYMM: (Re-)initialisation of all symmetry stuff for point group C_1.

 
 
 KPOINTS: K-Points                                

Automatic generation of k-mesh.
Space group operators:
 irot       det(A)        alpha          n_x          n_y          n_z        tau_x        tau_y        tau_z
    1     1.000000     0.000000     1.000000     0.000000     0.000000     0.000000     0.000000     0.000000
 
 Subroutine IBZKPT returns following result:
 ===========================================
 
 Found      5 irreducible k-points:
 
 Following reciprocal coordinates:
            Coordinates               Weight
  0.000000  0.000000  0.000000      1.000000
  0.333333 -0.000000  0.000000      2.000000
  0.000000  0.333333  0.000000      2.000000
  0.333333  0.333333  0.000000      2.000000
 -0.333333  0.333333  0.000000      2.000000
 
 Following cartesian coordinates:
            Coordinates               Weight
  0.000000  0.000000  0.000000      1.000000
  0.022435  0.013066  0.000000      2.000000
  0.000000  0.026132  0.000000      2.000000
  0.022435  0.039198  0.000000      2.000000
 -0.022435  0.013066  0.000000      2.000000
 
 TETIRR: Found     24 inequivalent tetrahedra from       54


--------------------------------------------------------------------------------------------------------




 Dimension of arrays:
   k-points           NKPTS =      5   k-points in BZ     NKDIM =      5   number of bands    NBANDS=    192
   number of dos      NEDOS =   4000   number of ions     NIONS =     73
   non local maximal  LDIM  =      6   non local SUM 2l+1 LMDIM =     18
   total plane-waves  NPLWV = 512000
   max r-space proj   IRMAX =      1   max aug-charges    IRDMAX=   6466
   dimension x,y,z NGX =    80 NGY =   80 NGZ =   80
   dimension x,y,z NGXF=   160 NGYF=  160 NGZF=  160
   support grid    NGXF=   160 NGYF=  160 NGZF=  160
   ions per type =               9   1  60   1   1   1
   NGX,Y,Z   is equivalent  to a cutoff of   8.95,  9.01,  8.87 a.u.
   NGXF,Y,Z  is equivalent  to a cutoff of  17.90, 18.02, 17.73 a.u.

 SYSTEM =  unknown system                          
 POSCAR =  POSCAR-clean                            

 Startparameter for this run:
   NWRITE =      2    write-flag & timer
   PREC   = normal    normal or accurate (medium, high low for compatibility)
   ISTART =      0    job   : 0-new  1-cont  2-samecut
   ICHARG =      2    charge: 1-file 2-atom 10-const
   ISPIN  =      2    spin polarized calculation?
   LNONCOLLINEAR =      F non collinear calculations
   LSORBIT =      F    spin-orbit coupling
   INIWAV =      1    electr: 0-lowe 1-rand  2-diag
   LASPH  =      F    aspherical Exc in radial PAW
   METAGGA=      F    non-selfconsistent MetaGGA calc.

 Electronic Relaxation 1
   ENCUT  =  440.0 eV  32.34 Ry    5.69 a.u.  25.41 25.25 25.66*2*pi/ulx,y,z
   ENINI  =  440.0     initial cutoff
   ENAUG  =  644.9 eV  augmentation charge cutoff
   NELM   =    100;   NELMIN=  2; NELMDL= -5     # of ELM steps 
   EDIFF  = 0.1E-03   stopping-criterion for ELM
   LREAL  =      F    real-space projection
   NLSPLINE    = F    spline interpolate recip. space projectors
   LCOMPAT=      F    compatible to vasp.4.4
   GGA_COMPAT  = T    GGA compatible to vasp.4.4-vasp.4.6
   LMAXPAW     = -100 max onsite density
   LMAXMIX     =    2 max onsite mixed and CHGCAR
   VOSKOWN=      0    Vosko Wilk Nusair interpolation
   ROPT   =    0.00000   0.00000   0.00000   0.00000
   ROPT   =    0.00000   0.00000
 Ionic relaxation
   EDIFFG = -.1E-01   stopping-criterion for IOM
   NSW    =      0    number of steps for IOM
   NBLOCK =      1;   KBLOCK =      1    inner block; outer block 
   IBRION =     -1    ionic relax: 0-MD 1-quasi-New 2-CG
   NFREE  =      0    steps in history (QN), initial steepest desc. (CG)
   ISIF   =      2    stress and relaxation
   IWAVPR =     10    prediction:  0-non 1-charg 2-wave 3-comb
   ISYM   =      0    0-nonsym 1-usesym 2-fastsym
   LCORR  =      T    Harris-Foulkes like correction to forces

   POTIM  = 0.5000    time-step for ionic-motion
   TEIN   =    0.0    initial temperature
   TEBEG  =    0.0;   TEEND  =   0.0 temperature during run
   SMASS  =  -3.00    Nose mass-parameter (am)
   estimated Nose-frequenzy (Omega)   =  0.10E-29 period in steps =****** mass=  -0.504E-26a.u.
   SCALEE = 1.0000    scale energy and forces
   NPACO  =    256;   APACO  = 16.0  distance and # of slots for P.C.
   PSTRESS=    0.0 pullay stress

  Mass of Ions in am
   POMASS =  12.01 14.00 12.01 52.00 12.01 16.00
  Ionic Valenz
   ZVAL   =   4.00  5.00  4.00 12.00  4.00  6.00
  Atomic Wigner-Seitz radii
   RWIGS  =  -1.00 -1.00 -1.00 -1.00 -1.00 -1.00
  virtual crystal weights 
   VCA    =   1.00  1.00  1.00  1.00  1.00  1.00
   NELECT =     303.0000    total number of electrons
   NUPDOWN=      -1.0000    fix difference up-down

 DOS related values:
   EMIN   = -14.00;   EMAX   =  6.00  energy-range for DOS
   EFERMI =   0.00
   ISMEAR =    -5;   SIGMA  =   0.20  broadening in eV -4-tet -1-fermi 0-gaus

 Electronic relaxation 2 (details)
   IALGO  =     38    algorithm
   LDIAG  =      T    sub-space diagonalisation (order eigenvalues)
   LSUBROT=      F    optimize rotation matrix (better conditioning)
   TURBO    =      0    0=normal 1=particle mesh
   IRESTART =      0    0=no restart 2=restart with 2 vectors
   NREBOOT  =      0    no. of reboots
   NMIN     =      0    reboot dimension
   EREF     =   0.00    reference energy to select bands
   IMIX   =      4    mixing-type and parameters
     AMIX     =   0.25;   BMIX     =  0.00
     AMIX_MAG =   1.00;   BMIX_MAG =  0.00
     AMIN     =   0.10
     WC   =   100.;   INIMIX=   1;  MIXPRE=   1;  MAXMIX= -45

 Intra band minimization:
   WEIMIN = 0.0000     energy-eigenvalue tresh-hold
   EBREAK =  0.13E-06  absolut break condition
   DEPER  =   0.30     relativ break condition  

   TIME   =   0.40     timestep for ELM

  volume/ion in A,a.u.               =      38.94       262.80
  Fermi-wavevector in a.u.,A,eV,Ry     =   0.776192  1.466790  8.197156  0.602474
  Thomas-Fermi vector in A             =   1.878618
 
 Write flags
   LWAVE        =      F    write WAVECAR
   LDOWNSAMPLE  =      F    k-point downsampling of WAVECAR
   LCHARG       =      F    write CHGCAR
   LVTOT        =      F    write LOCPOT, total local potential
   LVHAR        =      F    write LOCPOT, Hartree potential only
   LELF         =      F    write electronic localiz. function (ELF)
   LORBIT       =     11    0 simple, 1 ext, 2 COOP (PROOUT), +10 PAW based schemes


 Dipole corrections
   LMONO  =      F    monopole corrections only (constant potential shift)
   LDIPOL =      F    correct potential (dipole corrections)
   IDIPOL =      0    1-x, 2-y, 3-z, 4-all directions 
   EPSILON=  1.0000000 bulk dielectric constant

 Exchange correlation treatment:
   GGA     =    --    GGA type
   LEXCH   =     8    internal setting for exchange type
   VOSKOWN=      0    Vosko Wilk Nusair interpolation
   LHFCALC =     F    Hartree Fock is set to
   LHFONE  =     F    Hartree Fock one center treatment
   AEXX    =    0.0000 exact exchange contribution

 Linear response parameters
   LEPSILON=     F    determine dielectric tensor
   LRPA    =     F    only Hartree local field effects (RPA)
   LNABLA  =     F    use nabla operator in PAW spheres
   LVEL    =     F    velocity operator in full k-point grid
   LINTERFAST=   F  fast interpolation
   KINTER  =     0    interpolate to denser k-point grid
   CSHIFT  =0.1000    complex shift for real part using Kramers Kronig
   OMEGAMAX=  -1.0    maximum frequency
   DEG_THRESHOLD= 0.2000000E-02 threshold for treating states as degnerate
   RTIME   =   -0.100 relaxation time in fs
  (WPLASMAI=    0.000 imaginary part of plasma frequency in eV, 0.658/RTIME)
   DFIELD  = 0.0000000 0.0000000 0.0000000 field for delta impulse in time
 
 Orbital magnetization related:
   ORBITALMAG=     F  switch on orbital magnetization
   LCHIMAG   =     F  perturbation theory with respect to B field
   DQ        =  0.001000  dq finite difference perturbation B field
   LLRAUG    =     F  two centre corrections for induced B field



--------------------------------------------------------------------------------------------------------


 Static calculation
 charge density and potential will be updated during run
 spin polarized calculation
 Variant of blocked Davidson
 Davidson routine will perform the subspace rotation
 perform sub-space diagonalisation
    after iterative eigenvector-optimisation
 modified Broyden-mixing scheme, WC =      100.0
 initial mixing is a Kerker type mixing with AMIX =  0.2500 and BMIX =      0.0001
 Hartree-type preconditioning will be used
 using additional bands           40
 reciprocal scheme for non local part
 use partial core corrections
 calculate Harris-corrections to forces 
   (improved forces if not selfconsistent)
 use gradient corrections 
 use of overlap-Matrix (Vanderbilt PP)
 Fermi weights with tetrahedron method with Bloechl corrections


--------------------------------------------------------------------------------------------------------


  energy-cutoff  :      440.00
  volume of cell :     2842.89
      direct lattice vectors                 reciprocal lattice vectors
    14.857880698 -0.000173602  0.000000000     0.067304808  0.039197510  0.000000000
    -7.428940349 12.755999191  0.000000000     0.000000916  0.078395019  0.000000000
     0.000000000  0.000000000 15.000000000     0.000000000  0.000000000  0.066666667

  length of vectors
    14.857880699 14.761594428 15.000000000     0.077886982  0.078395019  0.066666667


 
 k-points in units of 2pi/SCALE and weight: K-Points                                
   0.00000000  0.00000000  0.00000000       0.111
   0.02243494  0.01306584  0.00000000       0.222
   0.00000031  0.02613167  0.00000000       0.222
   0.02243524  0.03919751  0.00000000       0.222
  -0.02243463  0.01306584  0.00000000       0.222
 
 k-points in reciprocal lattice and weights: K-Points                                
   0.00000000  0.00000000  0.00000000       0.111
   0.33333333 -0.00000000  0.00000000       0.222
   0.00000000  0.33333333  0.00000000       0.222
   0.33333333  0.33333333  0.00000000       0.222
  -0.33333333  0.33333333  0.00000000       0.222
 
 position of ions in fractional coordinates (direct lattice) 
   0.99901217  0.99983669  0.49209166
   0.05455076  0.11132152  0.49211271
   0.16726163  0.00209304  0.49163311
   0.22305402  0.11347492  0.49230413
   0.33406859  0.00251060  0.49219238
   0.39003880  0.11385867  0.49479729
   0.49976772  0.00120594  0.49034712
   0.55632852  0.11251990  0.49329695
   0.66636396  0.00036900  0.48950861
   0.72158559  0.11062727  0.49147248
   0.83218903  0.99872141  0.49238529
   0.88679389  0.11000243  0.49219432
   0.99849749  0.16641520  0.49251008
   0.05434566  0.27749801  0.49304010
   0.16623434  0.16770493  0.49198185
   0.22206441  0.27903299  0.49116956
   0.33484839  0.17006279  0.49495916
   0.39068614  0.28148819  0.49779681
   0.50134587  0.16955625  0.49608846
   0.55654569  0.28104970  0.50036079
   0.66703983  0.16638723  0.49358903
   0.72242602  0.27732219  0.49610509
   0.83149002  0.16563001  0.49228914
   0.88732382  0.27693479  0.49331049
   0.99875238  0.33268747  0.49343984
   0.05456024  0.44443497  0.49326859
   0.16548128  0.33350796  0.49253451
   0.22031470  0.44477933  0.49312235
   0.33409466  0.33605866  0.49174891
   0.38734185  0.44621148  0.49001244
   0.50230986  0.33955389  0.50458902
   0.55938785  0.45130019  0.51434483
   0.66716913  0.33322457  0.50004165
   0.72381414  0.44473558  0.50202720
   0.83345496  0.33364256  0.49469468
   0.88929682  0.44472039  0.49474740
   0.99999209  0.50049122  0.49303055
   0.05564352  0.61190714  0.49205734
   0.16526082  0.50048111  0.49340226
   0.22116599  0.61210332  0.49193272
   0.33083089  0.50021195  0.48848011
   0.38732333  0.61307167  0.48602492
   0.66986258  0.50042283  0.50844760
   0.72525497  0.61192324  0.50692855
   0.83468317  0.50053932  0.49759430
   0.89014928  0.61167485  0.49651526
   0.00067535  0.66759505  0.49296978
   0.05602053  0.77912683  0.49195817
   0.16643672  0.66783006  0.49102165
   0.22240791  0.77937960  0.49011625
   0.33192718  0.66812091  0.48955231
   0.38872318  0.77944077  0.48742249
   0.49753285  0.66636592  0.48222868
   0.55416922  0.77658508  0.48530095
   0.66446478  0.66159078  0.51156587
   0.71861426  0.77313639  0.50019522
   0.83483070  0.66726323  0.49948439
   0.88913349  0.77837569  0.49651710
   0.00019237  0.83448753  0.49303294
   0.05576003  0.94580990  0.49182882
   0.16705390  0.83511113  0.49074800
   0.22288236  0.94668151  0.49141185
   0.33345627  0.83508743  0.48902729
   0.38927384  0.94649112  0.49028590
   0.50015090  0.83420406  0.48568045
   0.55579438  0.94598520  0.48812154
   0.66515863  0.83177163  0.49233475
   0.72100494  0.94333936  0.49115983
   0.83103840  0.83128326  0.49650743
   0.88730953  0.94322324  0.49312026
   0.51309833  0.55733330  0.54031637
   0.51853959  0.51334337  0.65908900
   0.52202243  0.48946877  0.73248109
 
 position of ions in cartesian coordinates  (Angst):
   7.41547651 12.75374254  7.38137487
  -0.01649221  1.42000780  7.38169060
   2.46960421  0.02666981  7.37449661
   2.47111153  1.44744729  7.38456189
   4.94490012  0.03196716  7.38288574
   4.94930065  1.45231333  7.42195939
   7.41653032  0.01529625  7.35520679
   7.42995916  1.43520712  7.39945423
   9.89801487  0.00459130  7.34262919
   9.89938925  1.41103608  7.37208716
   4.94512350 12.73954502  7.38577937
  12.35867642  1.40303691  7.38291478
  13.59926799  2.12261876  7.38765117
  -1.25405483  3.53975501  7.39560154
   1.22402005  2.13921509  7.37972779
   1.22648702  3.55930608  7.36754342
   3.71175106  2.16926268  7.42438741
   3.71360906  3.59059528  7.46695212
   6.18931383  2.16277239  7.44132685
   6.18118798  3.58497307  7.50541192
   8.67471742  2.12231962  7.40383551
   8.67350961  3.53739622  7.44157632
  11.12372406  2.11263193  7.38433715
  11.12641949  3.53242588  7.39965734
  12.36782836  4.24358774  7.40159755
  -2.49103142  5.66920271  7.39902885
  -0.01890959  4.25419851  7.38801768
  -0.03082963  5.67356650  7.39683521
   2.46737878  4.28670604  7.37623372
   2.44020047  5.69180609  7.35018656
   4.94073443  4.33126192  7.56883536
   4.95863572  5.75668775  7.71517249
   7.43721389  4.25049648  7.50062471
   7.45042997  5.67292105  7.53040793
   9.90476364  4.25579952  7.42042025
   9.90926484  5.67269850  7.42121095
  11.13964372  6.38409195  7.39545831
  -3.71907685  7.80547735  7.38086005
  -1.26261870  6.38410790  7.40103393
  -1.26122109  7.80795102  7.37899076
   1.19940116  6.38064581  7.32720158
   1.20033089  7.82027454  7.29037375
   6.23512699  6.38327690  7.62671404
   6.22981061  7.80556648  7.60392831
   8.68314615  6.38473428  7.46391443
   8.68163578  7.80236941  7.44772893
  -4.94948954  8.51584181  7.39454663
  -4.95574030  9.93853143  7.37937255
  -2.48837276  8.51881079  7.36532479
  -2.48545434  9.94172695  7.35174368
  -0.03169598  8.52249215  7.34328469
  -0.01481627  9.94247830  7.31133740
   2.44189112  8.50007678  7.23343025
   2.46457594  9.90602243  7.27951421
   4.95761990  8.43913615  7.67348806
   4.93350081  9.86200244  7.50292824
   7.44675627  8.51146423  7.49226578
   7.42813276  9.92880533  7.44775651
  -6.19649982 10.64472222  7.39549414
  -6.19788939 12.06474063  7.37743225
  -3.72192384 10.65264794  7.36122003
  -3.72128097 12.07582987  7.37117770
  -1.24936122 10.65231667  7.33540930
  -1.24764179 12.07337237  7.35428851
   1.23393027 10.64101943  7.28520671
   1.23025899 12.06688995  7.32182306
   3.70366570 10.60996282  7.38502126
   3.70459350 12.03311099  7.36739747
   6.17191566 10.60370438  7.44761150
   6.17638994 12.03160085  7.39680395
   3.48315791  7.10925410  8.10474551
   3.89080207  6.54811754  9.88633500
   4.11991267  6.24357260 10.98721633
 


--------------------------------------------------------------------------------------------------------


 k-point  1 :   0.0000 0.0000 0.0000  plane waves:   59581
 k-point  2 :   0.3333-0.0000 0.0000  plane waves:   59554
 k-point  3 :   0.0000 0.3333 0.0000  plane waves:   59614
 k-point  4 :   0.3333 0.3333 0.0000  plane waves:   59624
 k-point  5 :  -0.3333 0.3333 0.0000  plane waves:   59552

 maximum and minimum number of plane-waves per node :      5004     4936

 maximum number of plane-waves:     59624
 maximum index in each direction: 
   IXMAX=   25   IYMAX=   25   IZMAX=   25
   IXMIN=  -25   IYMIN=  -25   IZMIN=  -25


 parallel 3D FFT for wavefunctions:
    minimum data exchange during FFTs selected (reduces bandwidth)
 parallel 3D FFT for charge:
    minimum data exchange during FFTs selected (reduces bandwidth)


 total amount of memory used by VASP MPI-rank0   116094. kBytes
=======================================================================

   base      :      30000. kBytes
   nonl-proj :      27308. kBytes
   fftplans  :       4700. kBytes
   grid      :      15193. kBytes
   one-center:        217. kBytes
   wavefun   :      38676. kBytes
 
     INWAV:  cpu time    0.0000: real time    0.0001
 Broyden mixing: mesh for mixing (old mesh)
   NGX = 51   NGY = 51   NGZ = 51
  (NGX  =160   NGY  =160   NGZ  =160)
  gives a total of 132651 points

 initial charge density was supplied:
 charge density of overlapping atoms calculated
 number of electron     303.0000000 magnetization       2.0000000
 keeping initial charge density in first step


--------------------------------------------------------------------------------------------------------


 Maximum index for augmentation-charges          179 (set IRDMAX)


--------------------------------------------------------------------------------------------------------


 First call to EWALD:  gamma=   0.125
 Maximum number of real-space cells 3x 3x 3
 Maximum number of reciprocal cells 3x 3x 3

    FEWALD:  cpu time    0.0036: real time    0.0038


--------------------------------------- Iteration      1(   1)  ---------------------------------------


    POTLOK:  cpu time    0.1807: real time    0.2644
    SETDIJ:  cpu time    0.0089: real time    0.0097
     EDDAV:  cpu time   11.4129: real time   11.5331
 BZINTS: Fermi energy:  8.079388;303.000000 electrons
         Band energy:***********;  BLOECHL correction: -0.012424
       DOS:  cpu time    0.1158: real time    0.1160
    --------------------------------------------
      LOOP:  cpu time   11.7183: real time   11.9233

 eigenvalue-minimisations  :  4376
 total energy-change (2. order) : 0.2538168E+04  (-0.1120844E+05)
 number of electron     303.0000000 magnetization       2.0000000
 augmentation part      303.0000000 magnetization       2.0000000

 Free energy of the ion-electron system (eV)
  ---------------------------------------------------
  alpha Z        PSCENC =       167.26811561
  Ewald energy   TEWEN  =     30914.02886904
  -Hartree energ DENC   =    -40585.22552227
  -exchange      EXHF   =         0.00000000
  -V(xc)+E(xc)   XCENC  =      1023.25109975
  PAW double counting   =      9455.23336183    -9546.47664214
  entropy T*S    EENTRO =         0.00000000
  eigenvalues    EBANDS =     -1534.66457400
  atomic energy  EATOM  =     12644.75315347
  Solvation  Ediel_sol  =         0.00000000
  ---------------------------------------------------
  free energy    TOTEN  =      2538.16786130 eV

  energy without entropy =     2538.16786130  energy(sigma->0) =     2538.16786130


--------------------------------------------------------------------------------------------------------




--------------------------------------- Iteration      1(   2)  ---------------------------------------


     EDDAV:  cpu time   14.7997: real time   15.0655
 BZINTS: Fermi energy: -1.990748;303.000000 electrons
         Band energy:***********;  BLOECHL correction:  0.000000
       DOS:  cpu time    0.0052: real time    0.0052
    --------------------------------------------
      LOOP:  cpu time   14.8050: real time   15.0707

 eigenvalue-minimisations  :  5464
 total energy-change (2. order) :-0.2778099E+04  (-0.2652342E+04)
 number of electron     303.0000000 magnetization       2.0000000
 augmentation part      303.0000000 magnetization       2.0000000

 Free energy of the ion-electron system (eV)
  ---------------------------------------------------
  alpha Z        PSCENC =       167.26811561
  Ewald energy   TEWEN  =     30914.02886904
  -Hartree energ DENC   =    -40585.22552227
  -exchange      EXHF   =         0.00000000
  -V(xc)+E(xc)   XCENC  =      1023.25109975
  PAW double counting   =      9455.23336183    -9546.47664214
  entropy T*S    EENTRO =         0.00000000
  eigenvalues    EBANDS =     -4312.76366906
  atomic energy  EATOM  =     12644.75315347
  Solvation  Ediel_sol  =         0.00000000
  ---------------------------------------------------
  free energy    TOTEN  =      -239.93123376 eV

  energy without entropy =     -239.93123376  energy(sigma->0) =     -239.93123376


--------------------------------------------------------------------------------------------------------




--------------------------------------- Iteration      1(   3)  ---------------------------------------


     EDDAV:  cpu time   12.8796: real time   13.0234
 BZINTS: Fermi energy: -4.598229;303.000000 electrons
         Band energy:***********;  BLOECHL correction: -0.045193
       DOS:  cpu time    0.0127: real time    0.0127
    --------------------------------------------
      LOOP:  cpu time   12.8922: real time   13.0361

 eigenvalue-minimisations  :  4584
 total energy-change (2. order) :-0.4601433E+03  (-0.4559916E+03)
 number of electron     303.0000000 magnetization       2.0000000
 augmentation part      303.0000000 magnetization       2.0000000

 Free energy of the ion-electron system (eV)
  ---------------------------------------------------
  alpha Z        PSCENC =       167.26811561
  Ewald energy   TEWEN  =     30914.02886904
  -Hartree energ DENC   =    -40585.22552227
  -exchange      EXHF   =         0.00000000
  -V(xc)+E(xc)   XCENC  =      1023.25109975
  PAW double counting   =      9455.23336183    -9546.47664214
  entropy T*S    EENTRO =         0.00000000
  eigenvalues    EBANDS =     -4772.90701613
  atomic energy  EATOM  =     12644.75315347
  Solvation  Ediel_sol  =         0.00000000
  ---------------------------------------------------
  free energy    TOTEN  =      -700.07458083 eV

  energy without entropy =     -700.07458083  energy(sigma->0) =     -700.07458083


--------------------------------------------------------------------------------------------------------




--------------------------------------- Iteration      1(   4)  ---------------------------------------


     EDDAV:  cpu time   12.9765: real time   13.2153
 BZINTS: Fermi energy: -4.734249;303.000000 electrons
         Band energy:***********;  BLOECHL correction: -0.041468
       DOS:  cpu time    0.0134: real time    0.0135
    --------------------------------------------
      LOOP:  cpu time   12.9899: real time   13.2288

 eigenvalue-minimisations  :  4680
 total energy-change (2. order) :-0.1661696E+02  (-0.1648115E+02)
 number of electron     303.0000000 magnetization       2.0000000
 augmentation part      303.0000000 magnetization       2.0000000

 Free energy of the ion-electron system (eV)
  ---------------------------------------------------
  alpha Z        PSCENC =       167.26811561
  Ewald energy   TEWEN  =     30914.02886904
  -Hartree energ DENC   =    -40585.22552227
  -exchange      EXHF   =         0.00000000
  -V(xc)+E(xc)   XCENC  =      1023.25109975
  PAW double counting   =      9455.23336183    -9546.47664214
  entropy T*S    EENTRO =         0.00000000
  eigenvalues    EBANDS =     -4789.52397661
  atomic energy  EATOM  =     12644.75315347
  Solvation  Ediel_sol  =         0.00000000
  ---------------------------------------------------
  free energy    TOTEN  =      -716.69154131 eV

  energy without entropy =     -716.69154131  energy(sigma->0) =     -716.69154131


--------------------------------------------------------------------------------------------------------




--------------------------------------- Iteration      1(   5)  ---------------------------------------


     EDDAV:  cpu time   14.4711: real time   14.5737
 BZINTS: Fermi energy: -4.741550;303.000000 electrons
         Band energy:***********;  BLOECHL correction: -0.041539
       DOS:  cpu time    0.0131: real time    0.0131
    CHARGE:  cpu time    0.1652: real time    0.1689
    MIXING:  cpu time    0.0044: real time    0.0046
    --------------------------------------------
      LOOP:  cpu time   14.6538: real time   14.7603

 eigenvalue-minimisations  :  5336
 total energy-change (2. order) :-0.5444668E+00  (-0.5428237E+00)
 number of electron     303.0000008 magnetization       0.0642879
 augmentation part       12.4738358 magnetization       0.0884878

 Broyden mixing:
  rms(total) = 0.47943E+01    rms(broyden)= 0.47937E+01
  rms(prec ) = 0.54783E+01
  weight for this iteration     100.00

 Free energy of the ion-electron system (eV)
  ---------------------------------------------------
  alpha Z        PSCENC =       167.26811561
  Ewald energy   TEWEN  =     30914.02886904
  -Hartree energ DENC   =    -40585.22552227
  -exchange      EXHF   =         0.00000000
  -V(xc)+E(xc)   XCENC  =      1023.25109975
  PAW double counting   =      9455.23336183    -9546.47664214
  entropy T*S    EENTRO =         0.00000000
  eigenvalues    EBANDS =     -4790.06844341
  atomic energy  EATOM  =     12644.75315347
  Solvation  Ediel_sol  =         0.00000000
  ---------------------------------------------------
  free energy    TOTEN  =      -717.23600810 eV

  energy without entropy =     -717.23600810  energy(sigma->0) =     -717.23600810


--------------------------------------------------------------------------------------------------------




--------------------------------------- Iteration      1(   6)  ---------------------------------------


    POTLOK:  cpu time    0.1553: real time    0.1578
    SETDIJ:  cpu time    0.0086: real time    0.0086
     EDDAV:  cpu time   12.4074: real time   12.5743
 BZINTS: Fermi energy: -5.514678;303.000000 electrons
         Band energy:***********;  BLOECHL correction: -0.021955
       DOS:  cpu time    0.0131: real time    0.0132
    CHARGE:  cpu time    0.1639: real time    0.1703
    MIXING:  cpu time    0.0032: real time    0.0040
    --------------------------------------------
      LOOP:  cpu time   12.7516: real time   12.9281

 eigenvalue-minimisations  :  4800
 total energy-change (2. order) : 0.6259979E+01  (-0.7178183E+01)
 number of electron     303.0000032 magnetization       0.0475989
 augmentation part       17.8427443 magnetization       0.0687024

 Broyden mixing:
  rms(total) = 0.72133E+01    rms(broyden)= 0.72130E+01
  rms(prec ) = 0.82435E+01
  weight for this iteration     100.00

 eigenvalues of (default mixing * dielectric matrix)
  average eigenvalue GAMMA=   0.2797
  0.2797

 Free energy of the ion-electron system (eV)
  ---------------------------------------------------
  alpha Z        PSCENC =       167.26811561
  Ewald energy   TEWEN  =     30914.02886904
  -Hartree energ DENC   =    -40945.39490616
  -exchange      EXHF   =         0.00000000
  -V(xc)+E(xc)   XCENC  =      1035.84896397
  PAW double counting   =     13271.17880385   -13362.77075684
  entropy T*S    EENTRO =         0.00000000
  eigenvalues    EBANDS =     -4435.88827160
  atomic energy  EATOM  =     12644.75315347
  Solvation  Ediel_sol  =         0.00000000
  ---------------------------------------------------
  free energy    TOTEN  =      -710.97602866 eV

  energy without entropy =     -710.97602866  energy(sigma->0) =     -710.97602866


--------------------------------------------------------------------------------------------------------




--------------------------------------- Iteration      1(   7)  ---------------------------------------


    POTLOK:  cpu time    0.1413: real time    0.1494
    SETDIJ:  cpu time    0.0103: real time    0.0103
     EDDAV:  cpu time   13.5655: real time   13.6978
 BZINTS: Fermi energy: -4.040788;303.000000 electrons
         Band energy:***********;  BLOECHL correction: -0.011089
       DOS:  cpu time    0.0122: real time    0.0123
    CHARGE:  cpu time    0.1673: real time    0.1709
    MIXING:  cpu time    0.0041: real time    0.0043
    --------------------------------------------
      LOOP:  cpu time   13.9005: real time   14.0449

 eigenvalue-minimisations  :  5328
 total energy-change (2. order) : 0.3564740E+02  (-0.7789291E+01)
 number of electron     303.0000010 magnetization       0.3997213
 augmentation part       13.9906050 magnetization       0.1830182

 Broyden mixing:
  rms(total) = 0.25350E+01    rms(broyden)= 0.25345E+01
  rms(prec ) = 0.27713E+01
  weight for this iteration     100.00

 eigenvalues of (default mixing * dielectric matrix)
  average eigenvalue GAMMA=   0.7585
  1.2350  0.2820

 Free energy of the ion-electron system (eV)
  ---------------------------------------------------
  alpha Z        PSCENC =       167.26811561
  Ewald energy   TEWEN  =     30914.02886904
  -Hartree energ DENC   =    -41097.63895317
  -exchange      EXHF   =         0.00000000
  -V(xc)+E(xc)   XCENC  =      1040.18372392
  PAW double counting   =     14448.49169931   -14544.39351596
  entropy T*S    EENTRO =         0.00000000
  eigenvalues    EBANDS =     -4248.02172329
  atomic energy  EATOM  =     12644.75315347
  Solvation  Ediel_sol  =         0.00000000
  ---------------------------------------------------
  free energy    TOTEN  =      -675.32863108 eV

  energy without entropy =     -675.32863108  energy(sigma->0) =     -675.32863108


--------------------------------------------------------------------------------------------------------




--------------------------------------- Iteration      1(   8)  ---------------------------------------


    POTLOK:  cpu time    0.1384: real time    0.1406
    SETDIJ:  cpu time    0.0099: real time    0.0100
     EDDAV:  cpu time   12.6048: real time   12.7359
 BZINTS: Fermi energy: -2.529406;303.000000 electrons
         Band energy:***********;  BLOECHL correction: -0.026317
       DOS:  cpu time    0.0135: real time    0.0136
    CHARGE:  cpu time    0.1627: real time    0.1639
    MIXING:  cpu time    0.0034: real time    0.0034
    --------------------------------------------
      LOOP:  cpu time   12.9327: real time   13.0674

 eigenvalue-minimisations  :  4784
 total energy-change (2. order) : 0.6588267E+01  (-0.3142212E+01)
 number of electron     303.0000012 magnetization       0.1908420
 augmentation part       12.4680431 magnetization       0.0871823

 Broyden mixing:
  rms(total) = 0.22785E+01    rms(broyden)= 0.22782E+01
  rms(prec ) = 0.26478E+01
  weight for this iteration     100.00

 eigenvalues of (default mixing * dielectric matrix)
  average eigenvalue GAMMA=   1.2154
  2.7798  0.3168  0.5497

 Free energy of the ion-electron system (eV)
  ---------------------------------------------------
  alpha Z        PSCENC =       167.26811561
  Ewald energy   TEWEN  =     30914.02886904
  -Hartree energ DENC   =    -41417.96747409
  -exchange      EXHF   =         0.00000000
  -V(xc)+E(xc)   XCENC  =      1051.49426564
  PAW double counting   =     18873.83256554   -18973.18548470
  entropy T*S    EENTRO =         0.00000000
  eigenvalues    EBANDS =     -3928.96437423
  atomic energy  EATOM  =     12644.75315347
  Solvation  Ediel_sol  =         0.00000000
  ---------------------------------------------------
  free energy    TOTEN  =      -668.74036373 eV

  energy without entropy =     -668.74036373  energy(sigma->0) =     -668.74036373


--------------------------------------------------------------------------------------------------------




--------------------------------------- Iteration      1(   9)  ---------------------------------------


    POTLOK:  cpu time    0.1384: real time    0.1408
    SETDIJ:  cpu time    0.0088: real time    0.0088
     EDDAV:  cpu time   12.3146: real time   12.4033
 BZINTS: Fermi energy: -2.745782;303.000000 electrons
         Band energy:***********;  BLOECHL correction: -0.059714
       DOS:  cpu time    0.0135: real time    0.0138
    CHARGE:  cpu time    0.2112: real time    0.2127
    MIXING:  cpu time    0.0039: real time    0.0039
    --------------------------------------------
      LOOP:  cpu time   12.6905: real time   12.7834

 eigenvalue-minimisations  :  4656
 total energy-change (2. order) : 0.3828689E+01  (-0.2185487E+01)
 number of electron     303.0000014 magnetization       0.0422689
 augmentation part       14.4484918 magnetization      -0.0601627

 Broyden mixing:
  rms(total) = 0.15606E+01    rms(broyden)= 0.15597E+01
  rms(prec ) = 0.19359E+01
  weight for this iteration     100.00

 eigenvalues of (default mixing * dielectric matrix)
  average eigenvalue GAMMA=   1.2259
  3.1783  1.0181  0.3535  0.3535

 Free energy of the ion-electron system (eV)
  ---------------------------------------------------
  alpha Z        PSCENC =       167.26811561
  Ewald energy   TEWEN  =     30914.02886904
  -Hartree energ DENC   =    -41798.62826171
  -exchange      EXHF   =         0.00000000
  -V(xc)+E(xc)   XCENC  =      1065.53791644
  PAW double counting   =     26424.76132504   -26527.28269429
  entropy T*S    EENTRO =         0.00000000
  eigenvalues    EBANDS =     -3555.35009882
  atomic energy  EATOM  =     12644.75315347
  Solvation  Ediel_sol  =         0.00000000
  ---------------------------------------------------
  free energy    TOTEN  =      -664.91167521 eV

  energy without entropy =     -664.91167521  energy(sigma->0) =     -664.91167521


--------------------------------------------------------------------------------------------------------




--------------------------------------- Iteration      1(  10)  ---------------------------------------


    POTLOK:  cpu time    0.1402: real time    0.1425
    SETDIJ:  cpu time    0.0102: real time    0.0102
     EDDAV:  cpu time   13.5414: real time   13.6743
 BZINTS: Fermi energy: -1.965872;303.000000 electrons
         Band energy:***********;  BLOECHL correction: -0.004099
       DOS:  cpu time    0.0134: real time    0.0135
    CHARGE:  cpu time    0.1610: real time    0.1616
    MIXING:  cpu time    0.0039: real time    0.0039
    --------------------------------------------
      LOOP:  cpu time   13.8701: real time   14.0060

 eigenvalue-minimisations  :  5280
 total energy-change (2. order) : 0.1541758E+01  (-0.1019598E+01)
 number of electron     303.0000011 magnetization      -0.1409045
 augmentation part       13.0440564 magnetization      -0.0794566

 Broyden mixing:
  rms(total) = 0.73181E+00    rms(broyden)= 0.73118E+00
  rms(prec ) = 0.80158E+00
  weight for this iteration     100.00

 eigenvalues of (default mixing * dielectric matrix)
  average eigenvalue GAMMA=   1.2627
  3.5105  1.2987  0.8129  0.3457  0.3457

 Free energy of the ion-electron system (eV)
  ---------------------------------------------------
  alpha Z        PSCENC =       167.26811561
  Ewald energy   TEWEN  =     30914.02886904
  -Hartree energ DENC   =    -41821.89069419
  -exchange      EXHF   =         0.00000000
  -V(xc)+E(xc)   XCENC  =      1066.31269717
  PAW double counting   =     28325.74569734   -28428.58318371
  entropy T*S    EENTRO =         0.00000000
  eigenvalues    EBANDS =     -3531.00457169
  atomic energy  EATOM  =     12644.75315347
  Solvation  Ediel_sol  =         0.00000000
  ---------------------------------------------------
  free energy    TOTEN  =      -663.36991697 eV

  energy without entropy =     -663.36991697  energy(sigma->0) =     -663.36991697


--------------------------------------------------------------------------------------------------------




--------------------------------------- Iteration      1(  11)  ---------------------------------------


    POTLOK:  cpu time    0.1526: real time    0.1548
    SETDIJ:  cpu time    0.0087: real time    0.0087
     EDDAV:  cpu time   13.3095: real time   13.4393
 BZINTS: Fermi energy: -1.963171;303.000000 electrons
         Band energy:***********;  BLOECHL correction: -0.003658
       DOS:  cpu time    0.0135: real time    0.0135
    CHARGE:  cpu time    0.1673: real time    0.1687
    MIXING:  cpu time    0.0032: real time    0.0036
    --------------------------------------------
      LOOP:  cpu time   13.6547: real time   13.7886

 eigenvalue-minimisations  :  5104
 total energy-change (2. order) : 0.1638285E+00  (-0.1116270E+00)
 number of electron     303.0000014 magnetization      -0.8425179
 augmentation part       13.1559049 magnetization      -0.2593219

 Broyden mixing:
  rms(total) = 0.59887E+00    rms(broyden)= 0.59862E+00
  rms(prec ) = 0.64785E+00
  weight for this iteration     100.00

 eigenvalues of (default mixing * dielectric matrix)
  average eigenvalue GAMMA=   1.1121
  3.5167  1.1669  1.0455  0.3494  0.3494  0.2444

 Free energy of the ion-electron system (eV)
  ---------------------------------------------------
  alpha Z        PSCENC =       167.26811561
  Ewald energy   TEWEN  =     30914.02886904
  -Hartree energ DENC   =    -41796.65499617
  -exchange      EXHF   =         0.00000000
  -V(xc)+E(xc)   XCENC  =      1065.99573181
  PAW double counting   =     29964.15827239   -30066.56142196
  entropy T*S    EENTRO =         0.00000000
  eigenvalues    EBANDS =     -3556.19381260
  atomic energy  EATOM  =     12644.75315347
  Solvation  Ediel_sol  =         0.00000000
  ---------------------------------------------------
  free energy    TOTEN  =      -663.20608842 eV

  energy without entropy =     -663.20608842  energy(sigma->0) =     -663.20608842


--------------------------------------------------------------------------------------------------------




--------------------------------------- Iteration      1(  12)  ---------------------------------------


    POTLOK:  cpu time    0.1400: real time    0.1424
    SETDIJ:  cpu time    0.0095: real time    0.0097
     EDDAV:  cpu time   12.2824: real time   12.4187
 BZINTS: Fermi energy: -2.172041;303.000000 electrons
         Band energy:***********;  BLOECHL correction:  0.000000
       DOS:  cpu time    0.0087: real time    0.0087
    CHARGE:  cpu time    0.2013: real time    0.2039
    MIXING:  cpu time    0.0042: real time    0.0042
    --------------------------------------------
      LOOP:  cpu time   12.6461: real time   12.7876

 eigenvalue-minimisations  :  4696
 total energy-change (2. order) : 0.5473059E-02  (-0.4784126E-01)
 number of electron     303.0000014 magnetization      -1.0194910
 augmentation part       13.3932939 magnetization      -0.4797510

 Broyden mixing:
  rms(total) = 0.44474E+00    rms(broyden)= 0.44455E+00
  rms(prec ) = 0.45702E+00
  weight for this iteration     100.00

 eigenvalues of (default mixing * dielectric matrix)
  average eigenvalue GAMMA=   1.2957
  3.6708  2.1156  1.0760  0.7536  0.7536  0.3501  0.3501

 Free energy of the ion-electron system (eV)
  ---------------------------------------------------
  alpha Z        PSCENC =       167.26811561
  Ewald energy   TEWEN  =     30914.02886904
  -Hartree energ DENC   =    -41760.89546125
  -exchange      EXHF   =         0.00000000
  -V(xc)+E(xc)   XCENC  =      1064.96284157
  PAW double counting   =     30784.52287395   -30886.46543754
  entropy T*S    EENTRO =         0.00000000
  eigenvalues    EBANDS =     -3591.37557021
  atomic energy  EATOM  =     12644.75315347
  Solvation  Ediel_sol  =         0.00000000
  ---------------------------------------------------
  free energy    TOTEN  =      -663.20061536 eV

  energy without entropy =     -663.20061536  energy(sigma->0) =     -663.20061536


--------------------------------------------------------------------------------------------------------




--------------------------------------- Iteration      1(  13)  ---------------------------------------


    POTLOK:  cpu time    0.1380: real time    0.1402
    SETDIJ:  cpu time    0.0103: real time    0.0103
     EDDAV:  cpu time   12.5317: real time   12.6658
 BZINTS: Fermi energy: -2.252058;303.000000 electrons
         Band energy:***********;  BLOECHL correction:  0.000000
       DOS:  cpu time    0.0077: real time    0.0078
    CHARGE:  cpu time    0.1673: real time    0.1686
    MIXING:  cpu time    0.0037: real time    0.0037
    --------------------------------------------
      LOOP:  cpu time   12.8586: real time   12.9964

 eigenvalue-minimisations  :  4672
 total energy-change (2. order) :-0.6473770E-02  (-0.3952294E-01)
 number of electron     303.0000014 magnetization      -0.9493735
 augmentation part       13.4172387 magnetization      -0.5696876

 Broyden mixing:
  rms(total) = 0.22770E+00    rms(broyden)= 0.22757E+00
  rms(prec ) = 0.23632E+00
  weight for this iteration     100.00

 eigenvalues of (default mixing * dielectric matrix)
  average eigenvalue GAMMA=   1.2855
  3.7793  2.1550  1.2716  0.8545  0.8545  0.3500  0.3500  0.6688

 Free energy of the ion-electron system (eV)
  ---------------------------------------------------
  alpha Z        PSCENC =       167.26811561
  Ewald energy   TEWEN  =     30914.02886904
  -Hartree energ DENC   =    -41722.52248862
  -exchange      EXHF   =         0.00000000
  -V(xc)+E(xc)   XCENC  =      1063.82242160
  PAW double counting   =     31785.19564317   -31886.58494695
  entropy T*S    EENTRO =         0.00000000
  eigenvalues    EBANDS =     -3629.16785646
  atomic energy  EATOM  =     12644.75315347
  Solvation  Ediel_sol  =         0.00000000
  ---------------------------------------------------
  free energy    TOTEN  =      -663.20708913 eV

  energy without entropy =     -663.20708913  energy(sigma->0) =     -663.20708913


--------------------------------------------------------------------------------------------------------




--------------------------------------- Iteration      1(  14)  ---------------------------------------


    POTLOK:  cpu time    0.1394: real time    0.1418
    SETDIJ:  cpu time    0.0097: real time    0.0101
     EDDAV:  cpu time   11.9096: real time   12.0585
 BZINTS: Fermi energy: -2.242058;303.000000 electrons
         Band energy:***********;  BLOECHL correction:  0.000000
       DOS:  cpu time    0.0087: real time    0.0091
    CHARGE:  cpu time    0.1641: real time    0.1692
    MIXING:  cpu time    0.0038: real time    0.0038
    --------------------------------------------
      LOOP:  cpu time   12.2353: real time   12.3926

 eigenvalue-minimisations  :  4432
 total energy-change (2. order) :-0.2523640E-02  (-0.4440888E-02)
 number of electron     303.0000014 magnetization      -0.9604430
 augmentation part       13.4260773 magnetization      -0.5798668

 Broyden mixing:
  rms(total) = 0.20221E+00    rms(broyden)= 0.20221E+00
  rms(prec ) = 0.21111E+00
  weight for this iteration     100.00

 eigenvalues of (default mixing * dielectric matrix)
  average eigenvalue GAMMA=   1.2996
  3.7665  2.4086  1.4745  0.9919  0.9919  0.3503  0.3503  0.6812  0.6812

 Free energy of the ion-electron system (eV)
  ---------------------------------------------------
  alpha Z        PSCENC =       167.26811561
  Ewald energy   TEWEN  =     30914.02886904
  -Hartree energ DENC   =    -41726.69724601
  -exchange      EXHF   =         0.00000000
  -V(xc)+E(xc)   XCENC  =      1063.93539176
  PAW double counting   =     31847.52960433   -31948.91630436
  entropy T*S    EENTRO =         0.00000000
  eigenvalues    EBANDS =     -3625.11119661
  atomic energy  EATOM  =     12644.75315347
  Solvation  Ediel_sol  =         0.00000000
  ---------------------------------------------------
  free energy    TOTEN  =      -663.20961277 eV

  energy without entropy =     -663.20961277  energy(sigma->0) =     -663.20961277


--------------------------------------------------------------------------------------------------------




--------------------------------------- Iteration      1(  15)  ---------------------------------------


    POTLOK:  cpu time    0.1497: real time    0.1519
    SETDIJ:  cpu time    0.0086: real time    0.0086
     EDDAV:  cpu time   12.3735: real time   12.4584
 BZINTS: Fermi energy: -2.237057;303.000000 electrons
         Band energy:***********;  BLOECHL correction:  0.000000
       DOS:  cpu time    0.0087: real time    0.0087
    CHARGE:  cpu time    0.1665: real time    0.1673
    MIXING:  cpu time    0.0040: real time    0.0040
    --------------------------------------------
      LOOP:  cpu time   12.7111: real time   12.7989

 eigenvalue-minimisations  :  4688
 total energy-change (2. order) : 0.4324014E-03  (-0.1456041E-02)
 number of electron     303.0000013 magnetization      -0.9940797
 augmentation part       13.4148608 magnetization      -0.6207325

 Broyden mixing:
  rms(total) = 0.15890E+00    rms(broyden)= 0.15889E+00
  rms(prec ) = 0.16765E+00
  weight for this iteration     100.00

 eigenvalues of (default mixing * dielectric matrix)
  average eigenvalue GAMMA=   1.3118
  3.7041  2.4479  1.9912  1.0270  1.0270  0.3502  0.3502  0.7685  0.7685  0.6834

 Free energy of the ion-electron system (eV)
  ---------------------------------------------------
  alpha Z        PSCENC =       167.26811561
  Ewald energy   TEWEN  =     30914.02886904
  -Hartree energ DENC   =    -41728.60931665
  -exchange      EXHF   =         0.00000000
  -V(xc)+E(xc)   XCENC  =      1063.97501275
  PAW double counting   =     31843.54964678   -31944.90214882
  entropy T*S    EENTRO =         0.00000000
  eigenvalues    EBANDS =     -3623.27251256
  atomic energy  EATOM  =     12644.75315347
  Solvation  Ediel_sol  =         0.00000000
  ---------------------------------------------------
  free energy    TOTEN  =      -663.20918037 eV

  energy without entropy =     -663.20918037  energy(sigma->0) =     -663.20918037


--------------------------------------------------------------------------------------------------------




--------------------------------------- Iteration      1(  16)  ---------------------------------------


    POTLOK:  cpu time    0.1416: real time    0.1437
    SETDIJ:  cpu time    0.0100: real time    0.0100
     EDDAV:  cpu time   12.9025: real time   13.1125
 BZINTS: Fermi energy: -2.232053;303.000000 electrons
         Band energy:***********;  BLOECHL correction:  0.000000
       DOS:  cpu time    0.0076: real time    0.0076
    CHARGE:  cpu time    0.1617: real time    0.1660
    MIXING:  cpu time    0.0044: real time    0.0047
    --------------------------------------------
      LOOP:  cpu time   13.2277: real time   13.4445

 eigenvalue-minimisations  :  4928
 total energy-change (2. order) : 0.1870189E-02  (-0.3773834E-03)
 number of electron     303.0000013 magnetization      -1.0088729
 augmentation part       13.3973661 magnetization      -0.6441189

 Broyden mixing:
  rms(total) = 0.11484E+00    rms(broyden)= 0.11484E+00
  rms(prec ) = 0.12026E+00
  weight for this iteration     100.00

 eigenvalues of (default mixing * dielectric matrix)
  average eigenvalue GAMMA=   1.3601
  3.6432  2.7829  2.3987  1.1724  1.1724  0.3502  0.3502  0.8274  0.8274  0.7182
  0.7182

 Free energy of the ion-electron system (eV)
  ---------------------------------------------------
  alpha Z        PSCENC =       167.26811561
  Ewald energy   TEWEN  =     30914.02886904
  -Hartree energ DENC   =    -41728.74692419
  -exchange      EXHF   =         0.00000000
  -V(xc)+E(xc)   XCENC  =      1063.96839235
  PAW double counting   =     31839.87945745   -31941.16727316
  entropy T*S    EENTRO =         0.00000000
  eigenvalues    EBANDS =     -3623.19110076
  atomic energy  EATOM  =     12644.75315347
  Solvation  Ediel_sol  =         0.00000000
  ---------------------------------------------------
  free energy    TOTEN  =      -663.20731018 eV

[...]
   0.154E+02 -.320E+01 0.648E+01   -.153E+02 0.324E+01 -.630E+01   -.601E-01 -.177E-01 -.199E+00   -.187E-02 -.179E-02 -.362E-02
   0.561E+02 0.146E+02 0.690E+02   -.561E+02 -.153E+02 -.709E+02   0.322E-01 0.636E+00 0.194E+01   -.386E-01 -.240E-01 -.225E-01
   0.528E+02 -.194E+02 0.711E+02   -.524E+02 0.203E+02 -.725E+02   -.294E+00 -.957E+00 0.145E+01   -.446E-01 0.136E-01 -.249E-01
   -.444E+02 0.115E+02 0.111E+02   0.432E+02 -.114E+02 -.109E+02   0.115E+01 0.490E-02 -.270E+00   0.274E-01 -.186E-01 -.146E-01
   -.397E+02 -.236E+02 0.939E+01   0.383E+02 0.237E+02 -.912E+01   0.133E+01 -.207E+00 -.270E+00   0.319E-01 0.869E-02 -.151E-01
   -.147E+02 0.254E+00 0.939E+01   0.143E+02 -.150E+00 -.937E+01   0.316E+00 -.132E+00 -.168E-01   0.421E-02 -.405E-02 -.217E-02
   -.141E+02 -.640E+01 0.109E+02   0.138E+02 0.651E+01 -.109E+02   0.311E+00 -.857E-01 -.204E-01   0.529E-02 -.115E-02 -.221E-02
   -.616E+01 -.537E+01 0.130E+02   0.600E+01 0.538E+01 -.131E+02   0.145E+00 0.179E-01 0.616E-01   0.205E-02 0.309E-03 -.117E-02
   -.341E+01 -.506E+01 0.124E+02   0.333E+01 0.508E+01 -.123E+02   0.984E-01 0.199E-01 -.199E-01   0.304E-02 -.882E-03 -.964E-03
   0.767E+01 -.457E+01 0.110E+02   -.766E+01 0.455E+01 -.111E+02   -.317E-01 0.356E-01 0.431E-01   -.103E-02 0.106E-02 -.155E-02
   0.536E+01 -.437E+01 0.119E+02   -.538E+01 0.436E+01 -.119E+02   0.480E-01 0.490E-01 -.151E-01   -.762E-03 0.222E-02 -.122E-02
   0.260E+02 -.119E+02 0.179E+02   -.258E+02 0.117E+02 -.176E+02   -.194E+00 0.213E+00 -.263E+00   -.844E-02 0.140E-02 -.725E-02
   0.127E+02 -.138E+02 0.245E+02   -.126E+02 0.137E+02 -.246E+02   -.965E-01 0.205E+00 0.862E-01   -.550E-02 0.430E-02 -.366E-02
   -.460E+01 -.560E+02 0.146E+03   0.122E+02 0.523E+02 -.148E+03   -.760E+01 0.360E+01 0.146E+01   -.542E-01 0.666E-01 -.552E-01
   0.320E+01 -.324E+02 0.590E+02   -.279E+01 0.314E+02 -.590E+02   -.410E+00 0.109E+01 0.272E-01   -.103E-01 0.204E-01 -.146E-01
   -.147E+02 -.540E+02 0.280E+01   0.829E+01 0.496E+02 -.932E+00   0.633E+01 0.430E+01 -.184E+01   0.629E-01 0.585E-01 -.348E-01
   -.828E+01 -.287E+02 0.899E+01   0.811E+01 0.270E+02 -.909E+01   0.144E+00 0.178E+01 0.852E-01   0.110E-01 0.193E-01 -.105E-01
   -.230E+02 -.132E+02 0.112E+02   0.224E+02 0.129E+02 -.113E+02   0.650E+00 0.292E+00 0.163E+00   0.862E-02 0.125E-02 -.421E-02
   -.118E+02 -.154E+02 0.852E+01   0.116E+02 0.153E+02 -.842E+01   0.251E+00 0.178E+00 -.922E-01   0.464E-02 0.240E-02 -.251E-02
   -.590E+01 -.405E+01 0.118E+02   0.572E+01 0.394E+01 -.118E+02   0.168E+00 0.642E-01 0.210E-01   0.317E-02 -.520E-04 -.121E-02
   -.402E+01 -.254E+01 0.126E+02   0.414E+01 0.253E+01 -.126E+02   -.522E-01 0.815E-02 0.411E-01   0.786E-03 -.887E-04 -.986E-03
   0.837E+00 -.128E+01 0.121E+02   -.938E+00 0.125E+01 -.122E+02   0.944E-01 -.210E-02 0.426E-01   0.124E-02 -.346E-03 -.854E-03
   0.589E+00 0.162E+01 0.991E+01   -.686E+00 -.160E+01 -.990E+01   0.120E+00 -.364E-01 -.996E-02   0.191E-02 -.119E-02 -.900E-03
   0.830E+01 -.378E+01 0.149E+02   -.835E+01 0.361E+01 -.149E+02   0.866E-02 0.106E+00 0.151E-01   -.107E-02 0.229E-02 -.148E-02
   0.659E+01 -.782E+00 0.120E+02   -.703E+01 0.569E+00 -.120E+02   0.405E+00 0.198E+00 0.160E-01   0.434E-02 0.255E-02 -.110E-02
   0.899E+01 -.141E+02 0.360E+02   -.847E+01 0.132E+02 -.362E+02   -.549E+00 0.856E+00 0.147E+00   -.579E-02 0.102E-01 -.474E-02
   0.847E+01 -.439E+00 0.210E+02   -.949E+01 -.637E+00 -.211E+02   0.966E+00 0.105E+01 0.581E-01   -.208E-02 0.966E-02 -.177E-02
   -.746E+01 -.189E+02 0.228E+02   0.779E+01 0.174E+02 -.226E+02   -.290E+00 0.150E+01 -.215E+00   -.101E-02 0.209E-01 -.871E-02
   -.420E+01 -.484E+01 0.151E+02   0.528E+01 0.332E+01 -.151E+02   -.108E+01 0.154E+01 -.563E-01   -.222E-02 0.914E-02 -.288E-02
   -.540E+01 -.139E+02 0.932E+01   0.482E+01 0.133E+02 -.934E+01   0.575E+00 0.623E+00 0.183E-01   0.370E-02 0.692E-02 -.358E-02
   -.747E+01 -.591E+01 0.118E+02   0.783E+01 0.532E+01 -.119E+02   -.346E+00 0.546E+00 0.106E+00   -.216E-02 0.566E-02 -.175E-02
   0.453E+02 -.955E+02 -.292E+03   -.360E+02 0.936E+02 0.285E+03   -.936E+01 0.188E+01 0.749E+01   -.178E-01 -.344E-01 -.129E+00
   0.251E+02 -.192E+02 -.267E+03   -.293E+02 0.247E+02 0.249E+03   0.425E+01 -.550E+01 0.181E+02   0.179E-01 -.337E-01 0.817E-01
   -.452E+02 0.706E+02 -.681E+03   0.568E+02 -.860E+02 0.736E+03   -.116E+02 0.154E+02 -.556E+02   0.126E-01 -.214E-01 0.507E-01
 -----------------------------------------------------------------------------------------------
   0.147E+02 -.126E+02 0.293E+02   -.171E-12 -.512E-12 0.227E-12   -.147E+02 0.126E+02 -.288E+02   0.154E-01 -.763E-01 -.441E+00
 
 
 POSITION                                       TOTAL-FORCE (eV/Angst)
 -----------------------------------------------------------------------------------
      7.41548     12.75374      7.38137        -0.038600      0.051450      0.021634
     -0.01649      1.42001      7.38169        -0.005473      0.006106      0.003848
      2.46960      0.02667      7.37450        -0.012010     -0.011967     -0.003882
      2.47111      1.44745      7.38456         0.026169     -0.028105      0.007970
      4.94490      0.03197      7.38289        -0.045917      0.000787     -0.022247
      4.94930      1.45231      7.42196         0.024752     -0.032107     -0.000544
      7.41653      0.01530      7.35521         0.040843      0.029001      0.014144
      7.42996      1.43521      7.39945        -0.011091     -0.016952      0.002699
      9.89801      0.00459      7.34263         0.055064      0.044644      0.016322
      9.89939      1.41104      7.37209         0.037329      0.044093      0.004840
      4.94512     12.73955      7.38578        -0.047157      0.078433      0.013464
     12.35868      1.40304      7.38291         0.007356     -0.006633      0.000026
     13.59927      2.12262      7.38765        -0.039722     -0.049851     -0.013223
     -1.25405      3.53976      7.39560        -0.023072      0.060170     -0.019045
      1.22402      2.13922      7.37973         0.001749      0.016958     -0.013890
      1.22649      3.55931      7.36754        -0.033069      0.038334     -0.002759
      3.71175      2.16926      7.42439        -0.020152     -0.060198     -0.006157
      3.71361      3.59060      7.46695         0.012520      0.035030     -0.012815
      6.18931      2.16277      7.44133        -0.024955     -0.017075     -0.022261
      6.18119      3.58497      7.50541         0.021545      0.021155     -0.002075
      8.67472      2.12232      7.40384         0.029314     -0.032374     -0.002509
      8.67351      3.53740      7.44158         0.049755      0.078422      0.008346
     11.12372      2.11263      7.38434        -0.020044     -0.057115      0.003588
     11.12642      3.53243      7.39966        -0.015505      0.049630      0.006672
     12.36783      4.24359      7.40160         0.004133     -0.048661     -0.015142
     -2.49103      5.66920      7.39903        -0.012974     -0.011154     -0.003239
     -0.01891      4.25420      7.38802         0.045085     -0.016340     -0.017203
     -0.03083      5.67357      7.39684        -0.068883      0.026383     -0.003759
      2.46738      4.28671      7.37623        -0.027719     -0.046888     -0.007547
      2.44020      5.69181      7.35019        -0.004677      0.024619      0.001552
      4.94073      4.33126      7.56884        -0.000399     -0.067434     -0.031469
      4.95864      5.75669      7.71517         0.064755      0.028631     -0.017741
      7.43721      4.25050      7.50062        -0.021745      0.025259      0.004629
      7.45043      5.67292      7.53041         0.056336      0.002516     -0.007773
      9.90476      4.25580      7.42042        -0.008425     -0.116478     -0.001451
      9.90926      5.67270      7.42121         0.017361      0.015910      0.019264
     11.13964      6.38409      7.39546         0.017205     -0.031009      0.018463
     -3.71908      7.80548      7.38086         0.028297      0.020290      0.015609
     -1.26262      6.38411      7.40103         0.048963     -0.040187     -0.026809
     -1.26122      7.80795      7.37899         0.014607      0.014475     -0.021160
      1.19940      6.38065      7.32720        -0.034928     -0.038068      0.003280
      1.20033      7.82027      7.29037         0.021418      0.009737      0.009090
      6.23513      6.38328      7.62671        -0.023200      0.005321     -0.023955
      6.22981      7.80557      7.60393        -0.007681     -0.037522     -0.014666
      8.68315      6.38473      7.46391        -0.091545     -0.034273     -0.000088
      8.68164      7.80237      7.44773        -0.012440      0.024816      0.005938
     -4.94949      8.51584      7.39455        -0.013308      0.025759      0.011709
     -4.95574      9.93853      7.37937         0.021194      0.038451      0.009910
     -2.48837      8.51881      7.36532        -0.021055      0.013269      0.003507
     -2.48545      9.94173      7.35174         0.018525      0.041960      0.003790
     -0.03170      8.52249      7.34328        -0.051883      0.018317      0.018291
     -0.01482      9.94248      7.31134         0.025940      0.077226     -0.009042
      2.44189      8.50008      7.23343        -0.017582     -0.013504     -0.048966
      2.46458      9.90602      7.27951        -0.005424      0.034978     -0.019514
      4.95762      8.43914      7.67349         0.009152     -0.032283     -0.003395
      4.93350      9.86200      7.50293        -0.028846      0.077891     -0.021123
      7.44676      8.51146      7.49227         0.034566      0.014102      0.007088
      7.42813      9.92881      7.44776         0.032420      0.040698     -0.003373
     -6.19650     10.64472      7.39549        -0.015454     -0.041943      0.014537
     -6.19789     12.06474      7.37743         0.062569     -0.005724      0.014109
     -3.72192     10.65265      7.36122        -0.005363     -0.031571      0.012919
     -3.72128     12.07583      7.37118         0.024758     -0.010758     -0.004890
     -1.24936     10.65232      7.33541        -0.036107     -0.057706     -0.004831
     -1.24764     12.07337      7.35429        -0.028886     -0.012287     -0.003154
      1.23393     10.64102      7.28521        -0.036802     -0.068277     -0.001194
      1.23026     12.06689      7.32182        -0.045310     -0.007045      0.015621
      3.70367     10.60996      7.38502         0.043313     -0.020948      0.016778
      3.70459     12.03311      7.36740        -0.003033      0.036402      0.012836
      6.17192     10.60370      7.44761        -0.002246     -0.020772     -0.003317
      6.17639     12.03160      7.39680         0.010526     -0.037964      0.006746
      3.48316      7.10925      8.10475        -0.052545      0.025003      0.100984
      3.89080      6.54812      9.88633         0.098752     -0.031770      0.058827
      4.11991      6.24357     10.98722         0.008954     -0.003280     -0.052822
 -----------------------------------------------------------------------------------
    total drift:                               -0.004729      0.001540      0.009234


--------------------------------------------------------------------------------------------------------



  FREE ENERGIE OF THE ION-ELECTRON SYSTEM (eV)
  ---------------------------------------------------
  free  energy   TOTEN  =      -669.77992665 eV

  energy  without entropy=     -669.77992665  energy(sigma->0) =     -669.77992665
 


--------------------------------------------------------------------------------------------------------


    POTLOK:  cpu time    0.1673: real time    0.1679


--------------------------------------------------------------------------------------------------------


 stress matrix after NEB project (eV)
    -10.98998     -0.61830      0.24761
     -0.61830     -1.98641     -0.07810
      0.24761     -0.07810     -3.39611
  FORCES: max atom, RMS     0.119255    0.056097
  FORCE total and by dimension    0.479294    0.116478
  Stress total and by dimension   11.711468   10.989981
     LOOP+:  cpu time  275.9012: real time  279.2037
    4ORBIT:  cpu time    0.0000: real time    0.0000
 


 total charge     
 
# of ion       s       p       d       tot
------------------------------------------
    1        0.864   1.781   0.000   2.645
    2        0.863   1.779   0.000   2.642
    3        0.864   1.782   0.000   2.647
    4        0.863   1.780   0.000   2.643
    5        0.865   1.782   0.000   2.646
    6        0.864   1.782   0.000   2.645
    7        0.865   1.786   0.000   2.651
    8        0.861   1.785   0.000   2.646
    9        0.852   1.748   0.000   2.599
   10        1.210   2.694   0.000   3.903
   11        0.866   1.787   0.000   2.653
   12        0.861   1.787   0.000   2.649
   13        0.863   1.785   0.000   2.648
   14        0.866   1.790   0.000   2.656
   15        0.864   1.782   0.000   2.646
   16        0.865   1.775   0.000   2.640
   17        0.862   1.776   0.000   2.638
   18        0.866   1.769   0.000   2.635
   19        0.861   1.774   0.000   2.635
   20        0.863   1.769   0.000   2.632
   21        0.853   1.751   0.000   2.604
   22        0.863   1.792   0.000   2.655
   23        0.852   1.753   0.000   2.605
   24        0.863   1.791   0.000   2.654
   25        0.863   1.785   0.000   2.647
   26        0.866   1.790   0.000   2.655
   27        0.865   1.787   0.000   2.652
   28        0.869   1.790   0.000   2.659
   29        0.865   1.777   0.000   2.642
   30        0.882   1.694   0.000   2.576
   31        0.858   1.750   0.000   2.609
   32        0.871   1.633   0.000   2.503
   33        0.864   1.790   0.000   2.653
   34        0.869   1.793   0.000   2.662
   35        0.866   1.793   0.000   2.659
   36        0.867   1.799   0.000   2.665
   37        0.867   1.793   0.000   2.659
   38        0.866   1.793   0.000   2.659
   39        0.866   1.791   0.000   2.657
   40        0.866   1.792   0.000   2.658
   41        0.868   1.777   0.000   2.645
   42        0.870   1.772   0.000   2.642
   43        0.874   1.792   0.000   2.667
   44        0.877   1.784   0.000   2.661
   45        0.868   1.793   0.000   2.661
   46        0.867   1.794   0.000   2.661
   47        0.867   1.790   0.000   2.658
   48        0.864   1.787   0.000   2.651
   49        0.867   1.792   0.000   2.659
   50        0.864   1.786   0.000   2.650
   51        0.868   1.794   0.000   2.662
   52        0.865   1.783   0.000   2.648
   53        0.879   1.706   0.000   2.584
   54        0.866   1.776   0.000   2.642
   55        0.870   1.649   0.000   2.519
   56        0.858   1.744   0.000   2.602
   57        0.870   1.798   0.000   2.668
   58        0.866   1.789   0.000   2.654
   59        0.866   1.782   0.000   2.648
   60        0.864   1.787   0.000   2.651
   61        0.865   1.782   0.000   2.648
   62        0.864   1.785   0.000   2.649
   63        0.866   1.786   0.000   2.652
   64        0.864   1.793   0.000   2.657
   65        0.863   1.772   0.000   2.635
   66        0.862   1.791   0.000   2.652
   67        0.863   1.771   0.000   2.634
   68        0.861   1.781   0.000   2.641
   69        0.863   1.765   0.000   2.627
   70        0.863   1.781   0.000   2.643
   71        0.410   6.449   4.318  11.178
   72        0.983   1.541   0.000   2.524
   73        1.627   3.527   0.000   5.153
--------------------------------------------------
tot         63.918 136.726   4.318 204.962
 


 magnetization (x)
 
# of ion       s       p       d       tot
------------------------------------------
    1       -0.000  -0.002   0.000  -0.002
    2        0.000   0.001   0.000   0.001
    3        0.000   0.001   0.000   0.001
    4        0.000   0.003   0.000   0.003
    5       -0.000  -0.000   0.000  -0.000
    6        0.000   0.003   0.000   0.003
    7       -0.000  -0.001   0.000  -0.001
    8        0.000   0.002   0.000   0.002
    9       -0.000  -0.000   0.000  -0.000
   10        0.000   0.000   0.000   0.000
   11        0.000   0.001   0.000   0.001
   12       -0.000  -0.000   0.000  -0.001
   13        0.000   0.001   0.000   0.001
   14        0.000   0.002   0.000   0.002
   15       -0.000  -0.000   0.000  -0.000
   16        0.000   0.003   0.000   0.003
   17       -0.000  -0.005   0.000  -0.005
   18        0.001   0.013   0.000   0.014
   19        0.000   0.001   0.000   0.001
   20        0.000   0.002   0.000   0.003
   21       -0.000  -0.001   0.000  -0.001
   22        0.000   0.001   0.000   0.002
   23       -0.000  -0.003   0.000  -0.003
   24        0.000   0.001   0.000   0.001
   25       -0.000  -0.001   0.000  -0.001
   26        0.000   0.001   0.000   0.001
   27       -0.001  -0.009   0.000  -0.009
   28        0.000   0.004   0.000   0.004
   29       -0.002  -0.013   0.000  -0.015
   30        0.008   0.044   0.000   0.052
   31       -0.001  -0.007   0.000  -0.008
   32        0.007   0.034   0.000   0.041
   33       -0.000  -0.004   0.000  -0.004
   34        0.000   0.004   0.000   0.004
   35        0.000   0.004   0.000   0.004
   36       -0.000   0.000   0.000   0.000
   37       -0.000  -0.002   0.000  -0.002
   38        0.000   0.002   0.000   0.002
   39        0.000   0.003   0.000   0.003
   40        0.000   0.002   0.000   0.002
   41       -0.001  -0.009   0.000  -0.010
   42       -0.000   0.005   0.000   0.004
   43       -0.002  -0.004   0.000  -0.005
   44       -0.001   0.001   0.000  -0.001
   45       -0.000   0.001   0.000   0.001
   46        0.000   0.002   0.000   0.002
   47        0.000   0.002   0.000   0.002
   48        0.000   0.002   0.000   0.003
   49       -0.000  -0.001   0.000  -0.001
   50        0.000   0.002   0.000   0.003
   51       -0.000  -0.003   0.000  -0.003
   52        0.000   0.001   0.000   0.001
   53        0.004   0.010   0.000   0.014
   54       -0.000  -0.003   0.000  -0.004
   55        0.005   0.020   0.000   0.026
   56       -0.000  -0.005   0.000  -0.005
   57       -0.000  -0.001   0.000  -0.001
   58       -0.000  -0.001   0.000  -0.001
   59        0.000   0.001   0.000   0.001
   60       -0.000  -0.001   0.000  -0.001
   61       -0.000  -0.002   0.000  -0.002
   62        0.000   0.003   0.000   0.003
   63        0.000   0.002   0.000   0.002
   64       -0.000  -0.001   0.000  -0.001
   65        0.000  -0.002   0.000  -0.002
   66        0.000   0.001   0.000   0.001
   67       -0.000  -0.002   0.000  -0.002
   68       -0.000   0.000   0.000   0.000
   69        0.000   0.004   0.000   0.004
   70        0.000   0.000   0.000   0.000
   71       -0.011  -0.015  -0.972  -0.998
   72        0.003  -0.018   0.000  -0.015
   73       -0.001  -0.045   0.000  -0.045
--------------------------------------------------
tot          0.009   0.032  -0.972  -0.931
 
 BZINTS: Fermi energy: -2.227052;303.000000 electrons
         Band energy:***********;  BLOECHL correction:  0.000000

 total amount of memory used by VASP MPI-rank0   116094. kBytes
=======================================================================

   base      :      30000. kBytes
   nonl-proj :      27308. kBytes
   fftplans  :       4700. kBytes
   grid      :      15193. kBytes
   one-center:        217. kBytes
   wavefun   :      38676. kBytes
 
  
  
 General timing and accounting informations for this job:
 ========================================================
  
                  Total CPU time used (sec):      293.837
                            User time (sec):      284.941
                          System time (sec):        8.896
                         Elapsed time (sec):      306.930
  
                   Maximum memory used (kb):      472936.
                   Average memory used (kb):           0.
  
                          Minor page faults:      1379286
                          Major page faults:            0
                 Voluntary context switches:         8578
