       N       E                     dE             d eps       ncg     rms          rms(c)
DAV:   1     0.328724507186E+04    0.32872E+04   -0.13122E+05  4312   0.137E+03
DAV:   2     0.613209855824E+02   -0.32259E+04   -0.31351E+04  4400   0.403E+02
DAV:   3    -0.347653619424E+03   -0.40897E+03   -0.40482E+03  4080   0.161E+02
DAV:   4    -0.361578235651E+03   -0.13925E+02   -0.13550E+02  4160   0.388E+01
DAV:   5    -0.362098528301E+03   -0.52029E+00   -0.51349E+00  4368   0.594E+00    0.765E+01
DAV:   6    -0.264778384418E+03    0.97320E+02   -0.12202E+02  5224   0.680E+01    0.536E+01
DAV:   7    -0.218725052030E+03    0.46053E+02   -0.15980E+02  4376   0.434E+01    0.290E+01
DAV:   8    -0.218250267576E+03    0.47478E+00   -0.23899E+01  4808   0.238E+01    0.194E+01
DAV:   9    -0.217557368097E+03    0.69290E+00   -0.75602E+00  4712   0.109E+01    0.721E+00
DAV:  10    -0.217513661346E+03    0.43707E-01   -0.17783E+00  4256   0.570E+00    0.252E+00
DAV:  11    -0.217460391848E+03    0.53269E-01   -0.31975E-01  4408   0.225E+00    0.161E+00
DAV:  12    -0.217432267914E+03    0.28124E-01   -0.13557E-01  5144   0.213E+00    0.614E-01
DAV:  13    -0.217431785347E+03    0.48257E-03   -0.21066E-02  4424   0.559E-01    0.273E-01
DAV:  14    -0.217431515207E+03    0.27014E-03   -0.37537E-03  5184   0.313E-01    0.146E-01
DAV:  15    -0.217431503778E+03    0.11429E-04   -0.96341E-04  4376   0.159E-01
   1 F= -.22296145E+03 E0= -.22296145E+03  d E =0.000000E+00  mag=    -0.0000
