 vasp.5.4.4.18Apr17-6-g9f103f2a35 (build Nov  8 2022 18:58:45) complex           
 executed on             LinuxGNU date 2023.04.13  15:54:02
 running on   48 total cores
 distrk:  each k-point on   48 cores,    1 groups
 distr:  one band on NCORES_PER_BAND=  12 cores,    4 groups


--------------------------------------------------------------------------------------------------------


 INCAR:
 POTCAR:    PAW_PBE C 08Apr2002                   
 POTCAR:    PAW_PBE N 08Apr2002                   
 POTCAR:    PAW_PBE Ge_d 03Jul2007                
 POTCAR:    PAW_PBE C 08Apr2002                   
 POTCAR:    PAW_PBE O 08Apr2002                   
 POTCAR:    PAW_PBE C 08Apr2002                   
   SHA256 =  253f7b50bb8d59471dbedb8285d89021f4a42ed1a2c5d38a03a736e69125dd95 C/
   COPYR  = (c) Copyright 08Apr2002 Georg Kresse                                
   COPYR  = This file is part of the software VASP. Any use, copying, and all ot
   COPYR  = If you do not have a valid VASP license, you may not use, copy or di
   VRHFIN =C: s2p2                                                              
   LEXCH  = PE                                                                  
   EATOM  =   147.1560 eV,   10.8157 Ry                                         
                                                                                
   TITEL  = PAW_PBE C 08Apr2002                                                 
   LULTRA =        F    use ultrasoft PP ?                                      
   IUNSCR =        1    unscreen: 0-lin 1-nonlin 2-no                           
   RPACOR =    1.200    partial core radius                                     
   POMASS =   12.011; ZVAL   =    4.000    mass and valenz                      
   RCORE  =    1.500    outmost cutoff radius                                   
   RWIGS  =    1.630; RWIGS  =    0.863    wigner-seitz radius (au A)           
   ENMAX  =  400.000; ENMIN  =  300.000 eV                                      
   ICORE  =        2    local potential                                         
   LCOR   =        T    correct aug charges                                     
   LPAW   =        T    paw PP                                                  
   EAUG   =  644.873                                                            
   DEXC   =    0.000                                                            
   RMAX   =    1.529    core radius for proj-oper                               
   RAUG   =    1.300    factor for augmentation sphere                          
   RDEP   =    1.501    radius for radial grids                                 
   RDEPT  =    1.300    core radius for aug-charge                              
                                                                                
   Atomic configuration                                                         
    4 entries                                                                   
     n  l   j            E        occ.                                          
     1  0  0.50      -273.3789   2.0000                                         
     2  0  0.50       -13.7508   2.0000                                         
     2  1  0.50        -5.2854   2.0000                                         
     3  2  1.50        -5.4423   0.0000                                         
   Description                                                                  
     l       E           TYP  RCUT    TYP  RCUT                                 
     0    -13.7508458     23  1.200                                             
     0     -8.2022199     23  1.200                                             
     1     -5.2854383     23  1.500                                             
     1     34.0145650     23  1.500                                             
     2     -5.4423304      7  1.500                                             
  local pseudopotential read in
  partial core-charges read in
  partial kinetic energy density read in
  atomic valenz-charges read in
  non local Contribution for L=           0  read in
    real space projection operators read in
  non local Contribution for L=           0  read in
    real space projection operators read in
  non local Contribution for L=           1  read in
    real space projection operators read in
  non local Contribution for L=           1  read in
    real space projection operators read in
    PAW grid and wavefunctions read in

   number of l-projection  operators is LMAX  =           4
   number of lm-projection operators is LMMAX =           8

 POTCAR:    PAW_PBE N 08Apr2002                   
   SHA256 =  e053789ff3a61a86a1b75d8a110fcc91f86041011e7b0817c7c99e4e8a6349d7 N/
   COPYR  = (c) Copyright 08Apr2002 Georg Kresse                                
   COPYR  = This file is part of the software VASP. Any use, copying, and all ot
   COPYR  = If you do not have a valid VASP license, you may not use, copy or di
   VRHFIN =N: s2p3                                                              
   LEXCH  = PE                                                                  
   EATOM  =   264.5486 eV,   19.4438 Ry                                         
                                                                                
   TITEL  = PAW_PBE N 08Apr2002                                                 
   LULTRA =        F    use ultrasoft PP ?                                      
   IUNSCR =        1    unscreen: 0-lin 1-nonlin 2-no                           
   RPACOR =    1.200    partial core radius                                     
   POMASS =   14.001; ZVAL   =    5.000    mass and valenz                      
   RCORE  =    1.500    outmost cutoff radius                                   
   RWIGS  =    1.400; RWIGS  =    0.741    wigner-seitz radius (au A)           
   ENMAX  =  400.000; ENMIN  =  300.000 eV                                      
   ICORE  =        2    local potential                                         
   LCOR   =        T    correct aug charges                                     
   LPAW   =        T    paw PP                                                  
   EAUG   =  627.112                                                            
   DEXC   =    0.000                                                            
   RMAX   =    1.529    core radius for proj-oper                               
   RAUG   =    1.300    factor for augmentation sphere                          
   RDEP   =    1.514    radius for radial grids                                 
   RDEPT  =    1.338    core radius for aug-charge                              
                                                                                
   Atomic configuration                                                         
    4 entries                                                                   
     n  l   j            E        occ.                                          
     1  0  0.50      -384.7179   2.0000                                         
     2  0  0.50       -18.5828   2.0000                                         
     2  1  0.50        -7.0898   3.0000                                         
     3  2  1.50        -6.8029   0.0000                                         
   Description                                                                  
     l       E           TYP  RCUT    TYP  RCUT                                 
     0    -18.5828119     23  1.200                                             
     0    -13.5018863     23  1.200                                             
     1     -7.0897853     23  1.500                                             
     1      9.5240782     23  1.500                                             
     2     -6.8029130      7  1.500                                             
  local pseudopotential read in
  partial core-charges read in
  partial kinetic energy density read in
  atomic valenz-charges read in
  non local Contribution for L=           0  read in
    real space projection operators read in
  non local Contribution for L=           0  read in
    real space projection operators read in
  non local Contribution for L=           1  read in
    real space projection operators read in
  non local Contribution for L=           1  read in
    real space projection operators read in
    PAW grid and wavefunctions read in

   number of l-projection  operators is LMAX  =           4
   number of lm-projection operators is LMMAX =           8

 POTCAR:    PAW_PBE Ge_d 03Jul2007                
   SHA256 =  944b26c40d2d7c4f4eb1ff3a2e8dbfdd7129146276cd341854bfd5c0e57780ed Ge
   COPYR  = (c) Copyright 03Jul2007 Georg Kresse                                
   COPYR  = This file is part of the software VASP. Any use, copying, and all ot
   COPYR  = If you do not have a valid VASP license, you may not use, copy or di
   VRHFIN =Ge: 3d4s4p                                                           
   LEXCH  = PE                                                                  
   EATOM  =  2596.2402 eV,  190.8183 Ry                                         
                                                                                
   TITEL  = PAW_PBE Ge_d 03Jul2007                                              
   LULTRA =        F    use ultrasoft PP ?                                      
   IUNSCR =        1    unscreen: 0-lin 1-nonlin 2-no                           
   RPACOR =    2.000    partial core radius                                     
   POMASS =   72.610; ZVAL   =   14.000    mass and valenz                      
   RCORE  =    2.300    outmost cutoff radius                                   
   RWIGS  =    2.300; RWIGS  =    1.217    wigner-seitz radius (au A)           
   ENMAX  =  310.294; ENMIN  =  232.720 eV                                      
   ICORE  =        3    local potential                                         
   LCOR   =        T    correct aug charges                                     
   LPAW   =        T    paw PP                                                  
   EAUG   =  531.356                                                            
   DEXC   =    0.000                                                            
   RMAX   =    2.342    core radius for proj-oper                               
   RAUG   =    1.300    factor for augmentation sphere                          
   RDEP   =    2.318    radius for radial grids                                 
   RDEPT  =    1.783    core radius for aug-charge                              
                                                                                
   Atomic configuration                                                         
    9 entries                                                                   
     n  l   j            E        occ.                                          
     1  0  0.50    -10959.8463   2.0000                                         
     2  0  0.50     -1371.6056   2.0000                                         
     2  1  1.50     -1198.4791   6.0000                                         
     3  0  0.50      -168.4733   2.0000                                         
     3  1  1.50      -115.6019   6.0000                                         
     3  2  2.50       -29.3106  10.0000                                         
     4  0  0.50       -11.7309   2.0000                                         
     4  1  0.50        -3.8952   2.0000                                         
     4  3  2.50        -4.0817   0.0000                                         
   Description                                                                  
     l       E           TYP  RCUT    TYP  RCUT                                 
     2    -29.3105938     23  2.200                                             
     2    -13.6058260     23  2.200                                             
     0    -11.7309493     23  2.300                                             
     0     -7.4578696     23  2.300                                             
     1     -3.8952261     23  2.300                                             
     1      6.1178114     23  2.300                                             
     3     -1.3605826     23  2.300                                             
  local pseudopotential read in
  partial core-charges read in
  partial kinetic energy density read in
  atomic valenz-charges read in
  non local Contribution for L=           2  read in
    real space projection operators read in
  non local Contribution for L=           2  read in
    real space projection operators read in
  non local Contribution for L=           0  read in
    real space projection operators read in
  non local Contribution for L=           0  read in
    real space projection operators read in
  non local Contribution for L=           1  read in
    real space projection operators read in
  non local Contribution for L=           1  read in
    real space projection operators read in
    PAW grid and wavefunctions read in

   number of l-projection  operators is LMAX  =           6
   number of lm-projection operators is LMMAX =          18

 POTCAR:    PAW_PBE C 08Apr2002                   
   SHA256 =  253f7b50bb8d59471dbedb8285d89021f4a42ed1a2c5d38a03a736e69125dd95 C/
   COPYR  = (c) Copyright 08Apr2002 Georg Kresse                                
   COPYR  = This file is part of the software VASP. Any use, copying, and all ot
   COPYR  = If you do not have a valid VASP license, you may not use, copy or di
   VRHFIN =C: s2p2                                                              
   LEXCH  = PE                                                                  
   EATOM  =   147.1560 eV,   10.8157 Ry                                         
                                                                                
   TITEL  = PAW_PBE C 08Apr2002                                                 
   LULTRA =        F    use ultrasoft PP ?                                      
   IUNSCR =        1    unscreen: 0-lin 1-nonlin 2-no                           
   RPACOR =    1.200    partial core radius                                     
   POMASS =   12.011; ZVAL   =    4.000    mass and valenz                      
   RCORE  =    1.500    outmost cutoff radius                                   
   RWIGS  =    1.630; RWIGS  =    0.863    wigner-seitz radius (au A)           
   ENMAX  =  400.000; ENMIN  =  300.000 eV                                      
   ICORE  =        2    local potential                                         
   LCOR   =        T    correct aug charges                                     
   LPAW   =        T    paw PP                                                  
   EAUG   =  644.873                                                            
   DEXC   =    0.000                                                            
   RMAX   =    1.529    core radius for proj-oper                               
   RAUG   =    1.300    factor for augmentation sphere                          
   RDEP   =    1.501    radius for radial grids                                 
   RDEPT  =    1.300    core radius for aug-charge                              
                                                                                
   Atomic configuration                                                         
    4 entries                                                                   
     n  l   j            E        occ.                                          
     1  0  0.50      -273.3789   2.0000                                         
     2  0  0.50       -13.7508   2.0000                                         
     2  1  0.50        -5.2854   2.0000                                         
     3  2  1.50        -5.4423   0.0000                                         
   Description                                                                  
     l       E           TYP  RCUT    TYP  RCUT                                 
     0    -13.7508458     23  1.200                                             
     0     -8.2022199     23  1.200                                             
     1     -5.2854383     23  1.500                                             
     1     34.0145650     23  1.500                                             
     2     -5.4423304      7  1.500                                             
  local pseudopotential read in
  partial core-charges read in
  partial kinetic energy density read in
  atomic valenz-charges read in
  non local Contribution for L=           0  read in
    real space projection operators read in
  non local Contribution for L=           0  read in
    real space projection operators read in
  non local Contribution for L=           1  read in
    real space projection operators read in
  non local Contribution for L=           1  read in
    real space projection operators read in
    PAW grid and wavefunctions read in

   number of l-projection  operators is LMAX  =           4
   number of lm-projection operators is LMMAX =           8

 POTCAR:    PAW_PBE O 08Apr2002                   
   SHA256 =  818f92134a0a090dccd8ba1447fa70422a3b330e708bb4f08108d8ae51209ddf O/
   COPYR  = (c) Copyright 08Apr2002 Georg Kresse                                
   COPYR  = This file is part of the software VASP. Any use, copying, and all ot
   COPYR  = If you do not have a valid VASP license, you may not use, copy or di
   VRHFIN =O: s2p4                                                              
   LEXCH  = PE                                                                  
   EATOM  =   432.3788 eV,   31.7789 Ry                                         
                                                                                
   TITEL  = PAW_PBE O 08Apr2002                                                 
   LULTRA =        F    use ultrasoft PP ?                                      
   IUNSCR =        1    unscreen: 0-lin 1-nonlin 2-no                           
   RPACOR =    1.200    partial core radius                                     
   POMASS =   16.000; ZVAL   =    6.000    mass and valenz                      
   RCORE  =    1.520    outmost cutoff radius                                   
   RWIGS  =    1.550; RWIGS  =    0.820    wigner-seitz radius (au A)           
   ENMAX  =  400.000; ENMIN  =  300.000 eV                                      
   ICORE  =        2    local potential                                         
   LCOR   =        T    correct aug charges                                     
   LPAW   =        T    paw PP                                                  
   EAUG   =  605.392                                                            
   DEXC   =    0.000                                                            
   RMAX   =    1.553    core radius for proj-oper                               
   RAUG   =    1.300    factor for augmentation sphere                          
   RDEP   =    1.550    radius for radial grids                                 
   RDEPT  =    1.329    core radius for aug-charge                              
                                                                                
   Atomic configuration                                                         
    4 entries                                                                   
     n  l   j            E        occ.                                          
     1  0  0.50      -514.6923   2.0000                                         
     2  0  0.50       -23.9615   2.0000                                         
     2  1  0.50        -9.0305   4.0000                                         
     3  2  1.50        -9.5241   0.0000                                         
   Description                                                                  
     l       E           TYP  RCUT    TYP  RCUT                                 
     0    -23.9615318     23  1.200                                             
     0     -9.5240782     23  1.200                                             
     1     -9.0304911     23  1.520                                             
     1      8.1634956     23  1.520                                             
     2     -9.5240782      7  1.500                                             
  local pseudopotential read in
  partial core-charges read in
  partial kinetic energy density read in
  kinetic energy density of atom read in
  atomic valenz-charges read in
  non local Contribution for L=           0  read in
    real space projection operators read in
  non local Contribution for L=           0  read in
    real space projection operators read in
  non local Contribution for L=           1  read in
    real space projection operators read in
  non local Contribution for L=           1  read in
    real space projection operators read in
    PAW grid and wavefunctions read in

   number of l-projection  operators is LMAX  =           4
   number of lm-projection operators is LMMAX =           8


 ----------------------------------------------------------------------------- 
|                                                                             |
|  ADVICE TO THIS USER RUNNING 'VASP/VAMP'   (HEAR YOUR MASTER'S VOICE ...):  |
|                                                                             |
|      You have a (more or less) 'large supercell' and for larger cells       |
|      it might be more efficient to use real space projection opertators     |
|      So try LREAL= Auto  in the INCAR   file.                               |
|      Mind:          For very  accurate calculation you might also keep the  |
|      reciprocal projection scheme          (i.e. LREAL=.FALSE.)             |
|                                                                             |
 ----------------------------------------------------------------------------- 

  PAW_PBE C 08Apr2002                   :
 energy of atom  1       EATOM= -147.1560
 kinetic energy error for atom=    0.0132 (will be added to EATOM!!)
  PAW_PBE N 08Apr2002                   :
 energy of atom  2       EATOM= -264.5486
 kinetic energy error for atom=    0.0298 (will be added to EATOM!!)
  PAW_PBE Ge_d 03Jul2007                :
 energy of atom  3       EATOM=-2596.2402
 kinetic energy error for atom=    0.0090 (will be added to EATOM!!)
  PAW_PBE C 08Apr2002                   :
 energy of atom  4       EATOM= -147.1560
 kinetic energy error for atom=    0.0132 (will be added to EATOM!!)
  PAW_PBE O 08Apr2002                   :
 energy of atom  5       EATOM= -432.3788
 kinetic energy error for atom=    0.0458 (will be added to EATOM!!)


 POSCAR: POSCAR-c3n4                             
  positions in cartesian coordinates
  No initial velocities read in
 exchange correlation table for  LEXCH =        8
   RHO(1)=    0.500       N(1)  =     2000
   RHO(2)=  100.500       N(2)  =     4000



--------------------------------------------------------------------------------------------------------


 ion  position               nearest neighbor table
   1  0.106  0.214  0.436-  26 1.07  46 1.07  25 1.13   6 1.81  16 1.81   3 1.95   2 1.97
   2  0.288  0.399  0.443-  29 1.06  35 1.11  25 1.15   5 1.83  10 1.86   1 1.97   3 2.00
   3  0.104  0.392  0.437-  44 1.05  39 1.10  25 1.14  17 1.82  12 1.85   1 1.95   2 2.00
   4  0.447  0.064  0.516-  30 1.06  27 1.07  48 1.13  13 1.81   8 1.81  18 1.94  11 1.94
   5  0.453  0.401  0.422-  28 1.06  29 1.07  56 1.14  15 1.81   2 1.83  10 1.95  24 1.97
   6  0.112  0.053  0.459-  26 1.06  31 1.07  32 1.12   9 1.80   1 1.81  16 1.91  23 1.95
   7  0.096  0.712  0.494-  54 1.06  34 1.09  33 1.12  12 1.79  22 1.82   9 1.93   8 1.98
   8  0.284  0.890  0.511-  27 1.07  37 1.08  33 1.13   4 1.81  11 1.82   9 1.97   7 1.98
   9  0.109  0.895  0.508-  31 1.06  52 1.08  33 1.15   6 1.80  23 1.81   7 1.93   8 1.97
  10  0.448  0.548  0.512-  38 1.06  56 1.08  35 1.09  19 1.80   2 1.86  24 1.89   5 1.95  57 2.18

  11  0.445  0.885  0.499-  37 1.07  36 1.07  48 1.11  21 1.82   8 1.82  18 1.94   4 1.94
  12  0.087  0.542  0.491-  34 1.06  40 1.08  39 1.09   7 1.79   3 1.85  22 1.91  17 1.93  57 2.19

  13  0.616  0.223  0.483-  42 1.08  30 1.08  41 1.12   4 1.81  18 1.81  15 1.95  14 1.98
  14  0.780  0.390  0.410-  45 1.08  51 1.09  41 1.12  17 1.80  22 1.80  15 1.96  13 1.98
  15  0.610  0.394  0.445-  28 1.07  55 1.07  41 1.16  24 1.81   5 1.81  13 1.95  14 1.96
  16  0.940  0.052  0.471-  46 1.05  43 1.07  32 1.12  20 1.80   1 1.81   6 1.91  23 1.94
  17  0.941  0.387  0.404-  45 1.06  44 1.07  40 1.14  14 1.80   3 1.82  12 1.93  22 1.96
  18  0.623  0.066  0.522-  42 1.06  47 1.07  48 1.13  13 1.81  21 1.81   4 1.94  11 1.94
  19  0.613  0.711  0.541-  50 1.06  38 1.09  49 1.13  10 1.80  24 1.82  20 1.95  21 2.00
  20  0.790  0.897  0.533-  43 1.06  53 1.07  49 1.16  16 1.80  23 1.80  19 1.95  21 1.97
  21  0.609  0.892  0.531-  47 1.07  36 1.08  49 1.15  18 1.81  11 1.82  20 1.97  19 2.00
  22  0.938  0.563  0.430-  51 1.05  54 1.08  40 1.14  14 1.80   7 1.82  12 1.91  17 1.96
  23  0.954  0.902  0.545-  52 1.07  53 1.07  32 1.12  20 1.80   9 1.81  16 1.94   6 1.95
  24  0.621  0.555  0.500-  55 1.05  50 1.06  56 1.13  15 1.81  19 1.82  10 1.89   5 1.97
  25  0.167  0.335  0.435-   1 1.13   3 1.14   2 1.15
  26  0.165  0.161  0.431-   6 1.06   1 1.07
  27  0.336  0.002  0.532-   8 1.07   4 1.07
  28  0.512  0.352  0.402-   5 1.06  15 1.07
  29  0.345  0.361  0.400-   2 1.06   5 1.07
  30  0.506  0.177  0.503-   4 1.06  13 1.08
  31  0.159  0.988  0.457-   9 1.06   6 1.07
  32  0.002  0.002  0.493-  16 1.12  23 1.12   6 1.12
  33  0.165  0.831  0.510-   7 1.12   8 1.13   9 1.15
  34  0.134  0.645  0.528-  12 1.06   7 1.09  57 2.10
  35  0.334  0.491  0.501-  10 1.09   2 1.11  57 1.65
  36  0.503  0.831  0.500-  11 1.07  21 1.08
  37  0.333  0.829  0.489-  11 1.07   8 1.08
  38  0.499  0.648  0.555-  10 1.06  19 1.09  57 2.11
  39  0.142  0.484  0.495-  12 1.09   3 1.10  57 1.66
  40  0.988  0.496  0.446-  12 1.08  22 1.14  17 1.14
  41  0.667  0.330  0.439-  13 1.12  14 1.12  15 1.16
  42  0.680  0.178  0.505-  18 1.06  13 1.08
  43  0.827  0.986  0.478-  20 1.06  16 1.07
  44  0.011  0.348  0.389-   3 1.05  17 1.07
  45  0.830  0.330  0.389-  17 1.06  14 1.08
  46  0.993  0.161  0.445-  16 1.05   1 1.07
  47  0.669  0.005  0.549-  21 1.07  18 1.07
  48  0.505  0.004  0.508-  11 1.11  18 1.13   4 1.13
  49  0.668  0.832  0.544-  19 1.13  21 1.15  20 1.16
  50  0.675  0.666  0.522-  19 1.06  24 1.06
  51  0.832  0.507  0.406-  22 1.05  14 1.09
  52  0.016  0.853  0.559-  23 1.07   9 1.08
  53  0.849  0.860  0.576-  20 1.07  23 1.07
  54  0.004  0.677  0.444-   7 1.06  22 1.08
  55  0.668  0.491  0.494-  24 1.05  15 1.07
  56  0.506  0.502  0.477-  10 1.08  24 1.13   5 1.14
  57  0.287  0.593  0.568-  35 1.65  39 1.66  34 2.10  38 2.11  10 2.18  12 2.19
  58  0.287  0.593  0.966-  59 0.93
  59  0.232  0.530  0.023-  58 0.93


IMPORTANT INFORMATION: All symmetrisations will be switched off!
NOSYMM: (Re-)initialisation of all symmetry stuff for point group C_1.



 KPOINTS: K-Points                                

Automatic generation of k-mesh.
Space group operators:
 irot       det(A)        alpha          n_x          n_y          n_z        tau_x        tau_y        tau_z
    1     1.000000     0.000002     1.000000     0.000000     0.000000     0.000000     0.000000     0.000000
 
 Subroutine IBZKPT returns following result:
 ===========================================
 
 Found      5 irreducible k-points:
 
 Following reciprocal coordinates:
            Coordinates               Weight
  0.000000  0.000000  0.000000      1.000000
  0.333333  0.000000  0.000000      2.000000
  0.000000  0.333333  0.000000      2.000000
  0.333333  0.333333  0.000000      2.000000
 -0.333333  0.333333  0.000000      2.000000
 
 Following cartesian coordinates:
            Coordinates               Weight
  0.000000  0.000000  0.000000      1.000000
  0.024277  0.014368  0.000000      2.000000
  0.000396  0.028736  0.000000      2.000000
  0.024673  0.043104  0.000000      2.000000
 -0.023881  0.014368  0.000000      2.000000
 
 TETIRR: Found     24 inequivalent tetrahedra from       54


--------------------------------------------------------------------------------------------------------




 Dimension of arrays:
   k-points           NKPTS =      5   k-points in BZ     NKDIM =      5   number of bands    NBANDS=    172
   number of dos      NEDOS =   4000   number of ions     NIONS =     59
   non local maximal  LDIM  =      6   non local SUM 2l+1 LMDIM =     18
   total plane-waves  NPLWV = 215040
   max r-space proj   IRMAX =      1   max aug-charges    IRDMAX=   6063
   dimension x,y,z NGX =    60 NGY =   56 NGZ =   64
   dimension x,y,z NGXF=   120 NGYF=  112 NGZF=  128
   support grid    NGXF=   120 NGYF=  112 NGZF=  128
   ions per type =              24  32   1   1   1
   NGX,Y,Z   is equivalent  to a cutoff of   9.01,  8.56,  8.87 a.u.
   NGXF,Y,Z  is equivalent  to a cutoff of  18.01, 17.13, 17.73 a.u.

 SYSTEM =  unknown system                          
 POSCAR =  POSCAR-c3n4                             

 Startparameter for this run:
   NWRITE =      2    write-flag & timer
   PREC   = normal    normal or accurate (medium, high low for compatibility)
   ISTART =      0    job   : 0-new  1-cont  2-samecut
   ICHARG =      2    charge: 1-file 2-atom 10-const
   ISPIN  =      2    spin polarized calculation?
   LNONCOLLINEAR =      F non collinear calculations
   LSORBIT =      F    spin-orbit coupling
   INIWAV =      1    electr: 0-lowe 1-rand  2-diag
   LASPH  =      F    aspherical Exc in radial PAW
   METAGGA=      F    non-selfconsistent MetaGGA calc.

 Electronic Relaxation 1
   ENCUT  =  440.0 eV  32.34 Ry    5.69 a.u.  18.94 18.59 20.52*2*pi/ulx,y,z
   ENINI  =  440.0     initial cutoff
   ENAUG  =  644.9 eV  augmentation charge cutoff
   NELM   =    100;   NELMIN=  2; NELMDL= -5     # of ELM steps 
   EDIFF  = 0.1E-03   stopping-criterion for ELM
   LREAL  =      F    real-space projection
   NLSPLINE    = F    spline interpolate recip. space projectors
   LCOMPAT=      F    compatible to vasp.4.4
   GGA_COMPAT  = T    GGA compatible to vasp.4.4-vasp.4.6
   LMAXPAW     = -100 max onsite density
   LMAXMIX     =    2 max onsite mixed and CHGCAR
   VOSKOWN=      0    Vosko Wilk Nusair interpolation
   ROPT   =    0.00000   0.00000   0.00000   0.00000
   ROPT   =    0.00000
 Ionic relaxation
   EDIFFG = -.1E-01   stopping-criterion for IOM
   NSW    =      0    number of steps for IOM
   NBLOCK =      1;   KBLOCK =      1    inner block; outer block 
   IBRION =     -1    ionic relax: 0-MD 1-quasi-New 2-CG
   NFREE  =      0    steps in history (QN), initial steepest desc. (CG)
   ISIF   =      2    stress and relaxation
   IWAVPR =     10    prediction:  0-non 1-charg 2-wave 3-comb
   ISYM   =      0    0-nonsym 1-usesym 2-fastsym
   LCORR  =      T    Harris-Foulkes like correction to forces

   POTIM  = 0.5000    time-step for ionic-motion
   TEIN   =    0.0    initial temperature
   TEBEG  =    0.0;   TEEND  =   0.0 temperature during run
   SMASS  =  -3.00    Nose mass-parameter (am)
   estimated Nose-frequenzy (Omega)   =  0.10E-29 period in steps =****** mass=  -0.280E-26a.u.
   SCALEE = 1.0000    scale energy and forces
   NPACO  =    256;   APACO  = 16.0  distance and # of slots for P.C.
   PSTRESS=    0.0 pullay stress

  Mass of Ions in am
   POMASS =  12.01 14.00 72.61 12.01 16.00
  Ionic Valenz
   ZVAL   =   4.00  5.00 14.00  4.00  6.00
  Atomic Wigner-Seitz radii
   RWIGS  =  -1.00 -1.00 -1.00 -1.00 -1.00
  virtual crystal weights 
   VCA    =   1.00  1.00  1.00  1.00  1.00
   NELECT =     280.0000    total number of electrons
   NUPDOWN=      -1.0000    fix difference up-down

 DOS related values:
   EMIN   = -14.00;   EMAX   =  6.00  energy-range for DOS
   EFERMI =   0.00
   ISMEAR =    -5;   SIGMA  =   0.20  broadening in eV -4-tet -1-fermi 0-gaus

 Electronic relaxation 2 (details)
   IALGO  =     38    algorithm
   LDIAG  =      T    sub-space diagonalisation (order eigenvalues)
   LSUBROT=      F    optimize rotation matrix (better conditioning)
   TURBO    =      0    0=normal 1=particle mesh
   IRESTART =      0    0=no restart 2=restart with 2 vectors
   NREBOOT  =      0    no. of reboots
   NMIN     =      0    reboot dimension
   EREF     =   0.00    reference energy to select bands
   IMIX   =      4    mixing-type and parameters
     AMIX     =   0.25;   BMIX     =  0.00
     AMIX_MAG =   1.00;   BMIX_MAG =  0.00
     AMIN     =   0.10
     WC   =   100.;   INIMIX=   1;  MIXPRE=   1;  MAXMIX= -45

 Intra band minimization:
   WEIMIN = 0.0000     energy-eigenvalue tresh-hold
   EBREAK =  0.15E-06  absolut break condition
   DEPER  =   0.30     relativ break condition  

   TIME   =   0.40     timestep for ELM

  volume/ion in A,a.u.               =      20.90       141.06
  Fermi-wavevector in a.u.,A,eV,Ry     =   0.998716  1.887300 13.570919  0.997434
  Thomas-Fermi vector in A             =   2.130958

 Write flags
   LWAVE        =      F    write WAVECAR
   LDOWNSAMPLE  =      F    k-point downsampling of WAVECAR
   LCHARG       =      F    write CHGCAR
   LVTOT        =      F    write LOCPOT, total local potential
   LVHAR        =      F    write LOCPOT, Hartree potential only
   LELF         =      F    write electronic localiz. function (ELF)
   LORBIT       =     11    0 simple, 1 ext, 2 COOP (PROOUT), +10 PAW based schemes


 Dipole corrections
   LMONO  =      F    monopole corrections only (constant potential shift)
   LDIPOL =      F    correct potential (dipole corrections)
   IDIPOL =      0    1-x, 2-y, 3-z, 4-all directions 
   EPSILON=  1.0000000 bulk dielectric constant

 Exchange correlation treatment:
   GGA     =    --    GGA type
   LEXCH   =     8    internal setting for exchange type
   VOSKOWN=      0    Vosko Wilk Nusair interpolation
   LHFCALC =     F    Hartree Fock is set to
   LHFONE  =     F    Hartree Fock one center treatment
   AEXX    =    0.0000 exact exchange contribution

 Linear response parameters
   LEPSILON=     F    determine dielectric tensor
   LRPA    =     F    only Hartree local field effects (RPA)
   LNABLA  =     F    use nabla operator in PAW spheres
   LVEL    =     F    velocity operator in full k-point grid
   LINTERFAST=   F  fast interpolation
   KINTER  =     0    interpolate to denser k-point grid
   CSHIFT  =0.1000    complex shift for real part using Kramers Kronig
   OMEGAMAX=  -1.0    maximum frequency
   DEG_THRESHOLD= 0.2000000E-02 threshold for treating states as degnerate
   RTIME   =   -0.100 relaxation time in fs
  (WPLASMAI=    0.000 imaginary part of plasma frequency in eV, 0.658/RTIME)
   DFIELD  = 0.0000000 0.0000000 0.0000000 field for delta impulse in time

 Orbital magnetization related:
   ORBITALMAG=     F  switch on orbital magnetization
   LCHIMAG   =     F  perturbation theory with respect to B field
   DQ        =  0.001000  dq finite difference perturbation B field
   LLRAUG    =     F  two centre corrections for induced B field



--------------------------------------------------------------------------------------------------------


 Static calculation
 charge density and potential will be updated during run
 spin polarized calculation
 Variant of blocked Davidson
 Davidson routine will perform the subspace rotation
 perform sub-space diagonalisation
    after iterative eigenvector-optimisation
 modified Broyden-mixing scheme, WC =      100.0
 initial mixing is a Kerker type mixing with AMIX =  0.2500 and BMIX =      0.0001
 Hartree-type preconditioning will be used
 using additional bands           32
 reciprocal scheme for non local part
 use partial core corrections
 calculate Harris-corrections to forces   (improved forces if not selfconsistent)
 use gradient corrections 
 use of overlap-Matrix (Vanderbilt PP)
 Fermi weights with tetrahedron method with Bloechl corrections


--------------------------------------------------------------------------------------------------------


  energy-cutoff  :      440.00
  volume of cell :     1233.26
      direct lattice vectors                 reciprocal lattice vectors
    11.074739388 -0.152592379  0.000000000     0.091037962  0.053880143 -0.000000000
    -5.537369694  9.356152795  0.000000000     0.001484766  0.107760286 -0.000000000
     0.000000000  0.000000000 12.000000000    -0.000000000 -0.000000000  0.083333333

  length of vectors
    11.075790579 10.871985019 12.000000000     0.105787430  0.107770514  0.083333333



 k-points in units of 2pi/SCALE and weight: K-Points                                
   0.00000000  0.00000000  0.00000000       0.111
   0.02427679  0.01436804  0.00000000       0.222
   0.00039594  0.02873608  0.00000000       0.222
   0.02467273  0.04310411  0.00000000       0.222
  -0.02388085  0.01436804  0.00000000       0.222

 k-points in reciprocal lattice and weights: K-Points                                
   0.00000000  0.00000000  0.00000000       0.111
   0.33333333  0.00000000  0.00000000       0.222
   0.00000000  0.33333333  0.00000000       0.222
   0.33333333  0.33333333  0.00000000       0.222
  -0.33333333  0.33333333  0.00000000       0.222

 position of ions in fractional coordinates (direct lattice) 
   0.10567936  0.21351909  0.43638452
   0.28750403  0.39866334  0.44307848
   0.10379301  0.39177313  0.43720774
   0.44732828  0.06383887  0.51561413
   0.45258916  0.40124889  0.42244582
   0.11203481  0.05273921  0.45860169
   0.09638015  0.71191070  0.49382164
   0.28433946  0.89006364  0.51112159
   0.10941441  0.89537413  0.50804572
   0.44792521  0.54827090  0.51182417
   0.44544784  0.88520183  0.49889037
   0.08690842  0.54210436  0.49059155
   0.61614813  0.22292684  0.48262487
   0.78023735  0.38968276  0.40980308
   0.61037743  0.39432339  0.44538198
   0.93951642  0.05229783  0.47062057
   0.94071854  0.38652888  0.40380040
   0.62278394  0.06558106  0.52195204
   0.61322902  0.71118454  0.54116914
   0.78984871  0.89727295  0.53280047
   0.60944297  0.89248269  0.53124739
   0.93832005  0.56283419  0.43042990
   0.95436023  0.90171878  0.54458488
   0.62130548  0.55465507  0.49978063
   0.16668926  0.33545237  0.43494871
   0.16473950  0.16097029  0.43087242
   0.33626584  0.00180669  0.53207802
   0.51175722  0.35246859  0.40230650
   0.34471728  0.36074551  0.39967324
   0.50565751  0.17673507  0.50307206
   0.15873210  0.98821904  0.45657691
   0.00214731  0.00186372  0.49276218
   0.16462634  0.83083069  0.51017993
   0.13400723  0.64526801  0.52770834
   0.33371346  0.49116238  0.50147098
   0.50288345  0.83078126  0.49964378
   0.33307237  0.82932770  0.48929409
   0.49902190  0.64803204  0.55475412
   0.14173676  0.48364631  0.49503647
   0.98839512  0.49595573  0.44590834
   0.66736443  0.33015381  0.43923807
   0.67970142  0.17802103  0.50515807
   0.82720183  0.98622484  0.47776955
   0.01097216  0.34809993  0.38872280
   0.83047981  0.33016544  0.38944898
   0.99296173  0.16101876  0.44505124
   0.66886761  0.00524437  0.54940128
   0.50484899  0.00388347  0.50822952
   0.66830364  0.83227641  0.54411956
   0.67536455  0.66551462  0.52238502
   0.83211404  0.50666912  0.40566699
   0.01584380  0.85299492  0.55859758
   0.84924332  0.85956436  0.57597004
   0.00424175  0.67726383  0.44447513
   0.66753141  0.49127771  0.49374111
   0.50565566  0.50179634  0.47708161
   0.28676550  0.59288202  0.56771515
   0.28676550  0.59288202  0.96638181
   0.23209909  0.52992702  0.02273763

 position of ions in cartesian coordinates  (Angst):
  -0.01196273  1.98159132  5.23661419
   0.97648588  3.68608419  5.31694173
  -1.01991218  3.64965125  5.24649282
   4.60054471  0.52902731  6.18736956
   2.79044349  3.68508430  5.06934990
   0.94871983  0.47634048  5.50322023
  -2.87472771  6.64603842  5.92585963
  -1.77962603  8.28418336  6.13345904
  -3.74628156  8.36056138  6.09654867
   1.92467634  5.06135635  6.14189007
   0.03152898  8.21411165  5.98668444
  -2.03934421  5.05874970  5.88709861
   5.58925163  1.99171808  5.79149846
   6.48310777  3.52687320  4.91763700
   4.57625652  3.59621098  5.34458373
  10.11530713  0.34594342  5.64744680
   8.27785939  3.47287681  4.84560476
   6.53402326  0.51855429  6.26342450
   2.85325990  6.56037717  6.49402970
   3.77883655  8.27449795  6.39360564
   1.80741544  8.25720802  6.37496864
   7.27502902  5.12278222  5.16515886
   5.57614053  8.29099061  6.53501854
   3.80946613  5.09463113  5.99736757
  -0.01148367  3.11310814  5.21938455
   0.93309507  1.48092460  5.17046908
   3.71405219 -0.03440796  6.38493625
   3.71582900  3.21965970  4.82767799
   1.82007276  3.32258889  4.79607886
   4.62137768  1.57640088  6.03686475
  -3.71421758  9.22170704  5.47892289
   0.01346081  0.01710958  5.91314613
  -2.77742280  7.74825813  6.12215913
  -2.08899237  6.01677759  6.33250010
   0.97604197  4.54446811  6.01765180
   0.96896021  7.69618018  5.99572535
  -0.90360439  7.70849236  5.87152905
   1.93814452  5.98693985  6.65704940
  -1.10843074  4.50344079  5.94043760
   8.19992816  4.48941605  5.35090010
   5.56270344  2.98713479  5.27085679
   6.54174787  1.56187469  6.06189689
   3.69995319  9.10104558  5.73323463
  -1.80604419  3.25520182  4.66467365
   7.36909934  2.96235341  4.67338770
  10.10517194  1.35499772  5.34061488
   7.37849452 -0.05299701  6.59281537
   5.56956681 -0.04070177  6.09875429
   2.79266653  7.68492720  6.52943470
   3.79428586  6.12360100  6.26862027
   6.40983186  4.61349947  4.86800393
  -4.54788231  7.97833318  6.70317092
   4.64542280  7.91262747  6.91164052
  -3.70328397  6.33593664  5.33370162
   4.67235004  4.49460913  5.92489334
   2.82137278  4.61772407  5.72497934
  -0.10715377  5.50333658  6.81258177
  -0.10715377  5.50333658 11.59658177
  -0.36396493  4.92266163  0.27285152



--------------------------------------------------------------------------------------------------------


 k-point  1 :   0.0000 0.0000 0.0000  plane waves:   25855
 k-point  2 :   0.3333 0.0000 0.0000  plane waves:   25857
 k-point  3 :   0.0000 0.3333 0.0000  plane waves:   25829
 k-point  4 :   0.3333 0.3333 0.0000  plane waves:   25874
 k-point  5 :  -0.3333 0.3333 0.0000  plane waves:   25865

 maximum and minimum number of plane-waves per node :      2176     2140

 maximum number of plane-waves:     25874
 maximum index in each direction: 
   IXMAX=   19   IYMAX=   18   IZMAX=   20
   IXMIN=  -19   IYMIN=  -18   IZMIN=  -20


 parallel 3D FFT for wavefunctions:
    minimum data exchange during FFTs selected (reduces bandwidth)
 parallel 3D FFT for charge:
    minimum data exchange during FFTs selected (reduces bandwidth)


 total amount of memory used by VASP MPI-rank0    63181. kBytes
=======================================================================

   base      :      30000. kBytes
   nonl-proj :       9833. kBytes
   fftplans  :       1973. kBytes
   grid      :       5974. kBytes
   one-center:        155. kBytes
   wavefun   :      15246. kBytes

     INWAV:  cpu time    0.0000: real time    0.0000
 Broyden mixing: mesh for mixing (old mesh)
   NGX = 37   NGY = 37   NGZ = 41
  (NGX  =120   NGY  =112   NGZ  =128)
  gives a total of  56129 points

 initial charge density was supplied:
 charge density of overlapping atoms calculated
 number of electron     280.0000000 magnetization       2.0000000
 keeping initial charge density in first step


--------------------------------------------------------------------------------------------------------


 Maximum index for augmentation-charges          176 (set IRDMAX)


--------------------------------------------------------------------------------------------------------


 First call to EWALD:  gamma=   0.165
 Maximum number of real-space cells 3x 3x 3
 Maximum number of reciprocal cells 3x 3x 3

    FEWALD:  cpu time    0.0031: real time    0.0031


--------------------------------------- Iteration      1(   1)  ---------------------------------------


    POTLOK:  cpu time    0.0548: real time    0.0658
    SETDIJ:  cpu time    0.0102: real time    0.0103
     EDDAV:  cpu time    6.6027: real time    6.6128
 BZINTS: Fermi energy: 14.969998;280.000000 electrons
         Band energy:***********;  BLOECHL correction: -0.181816
       DOS:  cpu time    0.4597: real time    0.4597
    --------------------------------------------
      LOOP:  cpu time    7.1275: real time    7.1486

 eigenvalue-minimisations  :  4312
 total energy-change (2. order) : 0.3287245E+04  (-0.1312216E+05)
 number of electron     280.0000000 magnetization       2.0000000
 augmentation part      280.0000000 magnetization       2.0000000

 Free energy of the ion-electron system (eV)
  ---------------------------------------------------
  alpha Z        PSCENC =       302.14145564
  Ewald energy   TEWEN  =     32182.55193649
  -Hartree energ DENC   =    -42852.09097901
  -exchange      EXHF   =         0.00000000
  -V(xc)+E(xc)   XCENC  =      1170.94227915
  PAW double counting   =     11453.83848114   -11942.90478952
  entropy T*S    EENTRO =         0.00000000
  eigenvalues    EBANDS =     -2198.96946421
  atomic energy  EATOM  =     15171.73615219
  Solvation  Ediel_sol  =         0.00000000
  ---------------------------------------------------
  free energy    TOTEN  =      3287.24507186 eV

  energy without entropy =     3287.24507186  energy(sigma->0) =     3287.24507186


--------------------------------------------------------------------------------------------------------




--------------------------------------- Iteration      1(   2)  ---------------------------------------


     EDDAV:  cpu time    6.6759: real time    6.6863
 BZINTS: Fermi energy:  0.715946;280.000000 electrons
         Band energy:***********;  BLOECHL correction: -0.061075
       DOS:  cpu time    0.0215: real time    0.0215
    --------------------------------------------
      LOOP:  cpu time    6.6974: real time    6.7077

 eigenvalue-minimisations  :  4400
 total energy-change (2. order) :-0.3225924E+04  (-0.3135075E+04)
 number of electron     280.0000000 magnetization       2.0000000
 augmentation part      280.0000000 magnetization       2.0000000

 Free energy of the ion-electron system (eV)
  ---------------------------------------------------
  alpha Z        PSCENC =       302.14145564
  Ewald energy   TEWEN  =     32182.55193649
  -Hartree energ DENC   =    -42852.09097901
  -exchange      EXHF   =         0.00000000
  -V(xc)+E(xc)   XCENC  =      1170.94227915
  PAW double counting   =     11453.83848114   -11942.90478952
  entropy T*S    EENTRO =         0.00000000
  eigenvalues    EBANDS =     -5424.89355048
  atomic energy  EATOM  =     15171.73615219
  Solvation  Ediel_sol  =         0.00000000
  ---------------------------------------------------
  free energy    TOTEN  =        61.32098558 eV

  energy without entropy =       61.32098558  energy(sigma->0) =       61.32098558


--------------------------------------------------------------------------------------------------------




--------------------------------------- Iteration      1(   3)  ---------------------------------------


     EDDAV:  cpu time    6.2730: real time    6.2838
 BZINTS: Fermi energy: -3.693703;280.000000 electrons
         Band energy:***********;  BLOECHL correction: -0.014214
       DOS:  cpu time    0.0220: real time    0.0220
    --------------------------------------------
      LOOP:  cpu time    6.2950: real time    6.3058

 eigenvalue-minimisations  :  4080
 total energy-change (2. order) :-0.4089746E+03  (-0.4048217E+03)
 number of electron     280.0000000 magnetization       2.0000000
 augmentation part      280.0000000 magnetization       2.0000000

 Free energy of the ion-electron system (eV)
  ---------------------------------------------------
  alpha Z        PSCENC =       302.14145564
  Ewald energy   TEWEN  =     32182.55193649
  -Hartree energ DENC   =    -42852.09097901
  -exchange      EXHF   =         0.00000000
  -V(xc)+E(xc)   XCENC  =      1170.94227915
  PAW double counting   =     11453.83848114   -11942.90478952
  entropy T*S    EENTRO =         0.00000000
  eigenvalues    EBANDS =     -5833.86815549
  atomic energy  EATOM  =     15171.73615219
  Solvation  Ediel_sol  =         0.00000000
  ---------------------------------------------------
  free energy    TOTEN  =      -347.65361942 eV

  energy without entropy =     -347.65361942  energy(sigma->0) =     -347.65361942


--------------------------------------------------------------------------------------------------------




--------------------------------------- Iteration      1(   4)  ---------------------------------------


     EDDAV:  cpu time    6.3603: real time    6.3626
 BZINTS: Fermi energy: -4.031258;280.000000 electrons
         Band energy:***********;  BLOECHL correction:  0.000000
       DOS:  cpu time    0.0157: real time    0.0157
    --------------------------------------------
      LOOP:  cpu time    6.3759: real time    6.3783

 eigenvalue-minimisations  :  4160
 total energy-change (2. order) :-0.1392462E+02  (-0.1354978E+02)
 number of electron     280.0000000 magnetization       2.0000000
 augmentation part      280.0000000 magnetization       2.0000000

 Free energy of the ion-electron system (eV)
  ---------------------------------------------------
  alpha Z        PSCENC =       302.14145564
  Ewald energy   TEWEN  =     32182.55193649
  -Hartree energ DENC   =    -42852.09097901
  -exchange      EXHF   =         0.00000000
  -V(xc)+E(xc)   XCENC  =      1170.94227915
  PAW double counting   =     11453.83848114   -11942.90478952
  entropy T*S    EENTRO =         0.00000000
  eigenvalues    EBANDS =     -5847.79277171
  atomic energy  EATOM  =     15171.73615219
  Solvation  Ediel_sol  =         0.00000000
  ---------------------------------------------------
  free energy    TOTEN  =      -361.57823565 eV

  energy without entropy =     -361.57823565  energy(sigma->0) =     -361.57823565


--------------------------------------------------------------------------------------------------------




--------------------------------------- Iteration      1(   5)  ---------------------------------------


     EDDAV:  cpu time    6.6276: real time    6.6339
 BZINTS: Fermi energy: -4.054655;280.000000 electrons
         Band energy:***********;  BLOECHL correction: -0.001786
       DOS:  cpu time    0.0244: real time    0.0244
    CHARGE:  cpu time    0.1328: real time    0.1328
    MIXING:  cpu time    0.0021: real time    0.0022
    --------------------------------------------
      LOOP:  cpu time    6.7870: real time    6.7933

 eigenvalue-minimisations  :  4368
 total energy-change (2. order) :-0.5202926E+00  (-0.5134928E+00)
 number of electron     280.0000039 magnetization       0.0333678
 augmentation part       27.1983169 magnetization      -0.1260717

 Broyden mixing:
  rms(total) = 0.76500E+01    rms(broyden)= 0.76469E+01
  rms(prec ) = 0.87442E+01
  weight for this iteration     100.00

 Free energy of the ion-electron system (eV)
  ---------------------------------------------------
  alpha Z        PSCENC =       302.14145564
  Ewald energy   TEWEN  =     32182.55193649
  -Hartree energ DENC   =    -42852.09097901
  -exchange      EXHF   =         0.00000000
  -V(xc)+E(xc)   XCENC  =      1170.94227915
  PAW double counting   =     11453.83848114   -11942.90478952
  entropy T*S    EENTRO =         0.00000000
  eigenvalues    EBANDS =     -5848.31306436
  atomic energy  EATOM  =     15171.73615219
  Solvation  Ediel_sol  =         0.00000000
  ---------------------------------------------------
  free energy    TOTEN  =      -362.09852830 eV

  energy without entropy =     -362.09852830  energy(sigma->0) =     -362.09852830


--------------------------------------------------------------------------------------------------------




--------------------------------------- Iteration      1(   6)  ---------------------------------------


    POTLOK:  cpu time    0.0532: real time    0.0569
    SETDIJ:  cpu time    0.0089: real time    0.0089
     EDDAV:  cpu time    7.6575: real time    7.6581
 BZINTS: Fermi energy: -1.719430;280.000000 electrons
         Band energy:***********;  BLOECHL correction:  0.000000
       DOS:  cpu time    0.0149: real time    0.0149
    CHARGE:  cpu time    0.1301: real time    0.1301
    MIXING:  cpu time    0.0017: real time    0.0042
    --------------------------------------------
      LOOP:  cpu time    7.8663: real time    7.8731

 eigenvalue-minimisations  :  5224
 total energy-change (2. order) : 0.9732014E+02  (-0.1220215E+02)
 number of electron     280.0000040 magnetization      -0.0367976
 augmentation part       25.6697883 magnetization      -0.0420931

 Broyden mixing:
  rms(total) = 0.53584E+01    rms(broyden)= 0.53582E+01
  rms(prec ) = 0.59021E+01
  weight for this iteration     100.00

 eigenvalues of (default mixing * dielectric matrix)
  average eigenvalue GAMMA=   2.0609
  2.0609

 Free energy of the ion-electron system (eV)
  ---------------------------------------------------
  alpha Z        PSCENC =       302.14145564
  Ewald energy   TEWEN  =     32182.55193649
  -Hartree energ DENC   =    -43691.32927579
  -exchange      EXHF   =         0.00000000
  -V(xc)+E(xc)   XCENC  =      1198.11674620
  PAW double counting   =     19413.35600209   -19911.13128883
  entropy T*S    EENTRO =         0.00000000
  eigenvalues    EBANDS =     -4930.22011240
  atomic energy  EATOM  =     15171.73615219
  Solvation  Ediel_sol  =         0.00000000
  ---------------------------------------------------
  free energy    TOTEN  =      -264.77838442 eV

  energy without entropy =     -264.77838442  energy(sigma->0) =     -264.77838442


--------------------------------------------------------------------------------------------------------




--------------------------------------- Iteration      1(   7)  ---------------------------------------


    POTLOK:  cpu time    0.0550: real time    0.0553
    SETDIJ:  cpu time    0.0088: real time    0.0088
     EDDAV:  cpu time    6.6111: real time    6.6115
 BZINTS: Fermi energy:  1.354464;280.000000 electrons
         Band energy:***********;  BLOECHL correction:  0.000000
       DOS:  cpu time    0.0140: real time    0.0140
    CHARGE:  cpu time    0.1291: real time    0.1291
    MIXING:  cpu time    0.0012: real time    0.0016
    --------------------------------------------
      LOOP:  cpu time    6.8191: real time    6.8203

 eigenvalue-minimisations  :  4376
 total energy-change (2. order) : 0.4605333E+02  (-0.1598018E+02)
 number of electron     280.0000039 magnetization      -0.0048114
 augmentation part       24.2501022 magnetization      -0.0048121

 Broyden mixing:
  rms(total) = 0.29038E+01    rms(broyden)= 0.29031E+01
  rms(prec ) = 0.29973E+01
  weight for this iteration     100.00

 eigenvalues of (default mixing * dielectric matrix)
  average eigenvalue GAMMA=   1.8520
  1.0093  2.6946

 Free energy of the ion-electron system (eV)
  ---------------------------------------------------
  alpha Z        PSCENC =       302.14145564
  Ewald energy   TEWEN  =     32182.55193649
  -Hartree energ DENC   =    -44764.86213819
  -exchange      EXHF   =         0.00000000
  -V(xc)+E(xc)   XCENC  =      1233.80092393
  PAW double counting   =     39086.73335808   -39608.68442988
  entropy T*S    EENTRO =         0.00000000
  eigenvalues    EBANDS =     -3822.14231029
  atomic energy  EATOM  =     15171.73615219
  Solvation  Ediel_sol  =         0.00000000
  ---------------------------------------------------
  free energy    TOTEN  =      -218.72505203 eV

  energy without entropy =     -218.72505203  energy(sigma->0) =     -218.72505203


--------------------------------------------------------------------------------------------------------




--------------------------------------- Iteration      1(   8)  ---------------------------------------


    POTLOK:  cpu time    0.0549: real time    0.0553
    SETDIJ:  cpu time    0.0091: real time    0.0091
     EDDAV:  cpu time    7.1461: real time    7.1485
 BZINTS: Fermi energy:  1.621405;280.000000 electrons
         Band energy:***********;  BLOECHL correction:  0.000000
       DOS:  cpu time    0.0137: real time    0.0137
    CHARGE:  cpu time    0.1340: real time    0.1340
    MIXING:  cpu time    0.0012: real time    0.0012
    --------------------------------------------
      LOOP:  cpu time    7.3589: real time    7.3617

 eigenvalue-minimisations  :  4808
 total energy-change (2. order) : 0.4747845E+00  (-0.2389867E+01)
 number of electron     280.0000041 magnetization       0.0165557
 augmentation part       23.8543977 magnetization       0.0205715

 Broyden mixing:
  rms(total) = 0.19386E+01    rms(broyden)= 0.19384E+01
  rms(prec ) = 0.19903E+01
  weight for this iteration     100.00

 eigenvalues of (default mixing * dielectric matrix)
  average eigenvalue GAMMA=   1.9611
  3.3395  1.7328  0.8109

 Free energy of the ion-electron system (eV)
  ---------------------------------------------------
  alpha Z        PSCENC =       302.14145564
  Ewald energy   TEWEN  =     32182.55193649
  -Hartree energ DENC   =    -44913.23489413
  -exchange      EXHF   =         0.00000000
  -V(xc)+E(xc)   XCENC  =      1240.44324391
  PAW double counting   =     49750.47013478   -50277.30707081
  entropy T*S    EENTRO =         0.00000000
  eigenvalues    EBANDS =     -3675.05122564
  atomic energy  EATOM  =     15171.73615219
  Solvation  Ediel_sol  =         0.00000000
  ---------------------------------------------------
  free energy    TOTEN  =      -218.25026758 eV

  energy without entropy =     -218.25026758  energy(sigma->0) =     -218.25026758


--------------------------------------------------------------------------------------------------------




--------------------------------------- Iteration      1(   9)  ---------------------------------------


    POTLOK:  cpu time    0.0512: real time    0.0594
    SETDIJ:  cpu time    0.0089: real time    0.0089
     EDDAV:  cpu time    7.0593: real time    7.0597
 BZINTS: Fermi energy:  1.285071;280.000000 electrons
         Band energy:***********;  BLOECHL correction:  0.000000
       DOS:  cpu time    0.0139: real time    0.0139
    CHARGE:  cpu time    0.1281: real time    0.1281
    MIXING:  cpu time    0.0012: real time    0.0012
    --------------------------------------------
      LOOP:  cpu time    7.2626: real time    7.2712

 eigenvalue-minimisations  :  4712
 total energy-change (2. order) : 0.6928995E+00  (-0.7560174E+00)
 number of electron     280.0000041 magnetization       0.0029714
 augmentation part       23.9894776 magnetization       0.0032636

 Broyden mixing:
  rms(total) = 0.72055E+00    rms(broyden)= 0.72044E+00
  rms(prec ) = 0.75971E+00
  weight for this iteration     100.00

 eigenvalues of (default mixing * dielectric matrix)
  average eigenvalue GAMMA=   1.9476
  3.9875  2.0575  0.9609  0.7845

 Free energy of the ion-electron system (eV)
  ---------------------------------------------------
  alpha Z        PSCENC =       302.14145564
  Ewald energy   TEWEN  =     32182.55193649
  -Hartree energ DENC   =    -44749.07973606
  -exchange      EXHF   =         0.00000000
  -V(xc)+E(xc)   XCENC  =      1237.44654406
  PAW double counting   =     61981.33069930   -62511.07047826
  entropy T*S    EENTRO =         0.00000000
  eigenvalues    EBANDS =     -3832.61394144
  atomic energy  EATOM  =     15171.73615219
  Solvation  Ediel_sol  =         0.00000000
  ---------------------------------------------------
  free energy    TOTEN  =      -217.55736810 eV

  energy without entropy =     -217.55736810  energy(sigma->0) =     -217.55736810


--------------------------------------------------------------------------------------------------------




--------------------------------------- Iteration      1(  10)  ---------------------------------------


    POTLOK:  cpu time    0.0507: real time    0.0555
    SETDIJ:  cpu time    0.0090: real time    0.0090
     EDDAV:  cpu time    6.4909: real time    6.4914
 BZINTS: Fermi energy:  1.240060;280.000000 electrons
         Band energy:***********;  BLOECHL correction:  0.000000
       DOS:  cpu time    0.0136: real time    0.0136
    CHARGE:  cpu time    0.1289: real time    0.1289
    MIXING:  cpu time    0.0012: real time    0.0012
    --------------------------------------------
      LOOP:  cpu time    6.6943: real time    6.6997

 eigenvalue-minimisations  :  4256
 total energy-change (2. order) : 0.4370675E-01  (-0.1778323E+00)
 number of electron     280.0000040 magnetization      -0.0006496
 augmentation part       24.0065507 magnetization      -0.0023317

 Broyden mixing:
  rms(total) = 0.25193E+00    rms(broyden)= 0.25184E+00
  rms(prec ) = 0.28083E+00
  weight for this iteration     100.00

 eigenvalues of (default mixing * dielectric matrix)
  average eigenvalue GAMMA=   1.7658
  3.9952  2.0960  1.0623  0.8396  0.8360

 Free energy of the ion-electron system (eV)
  ---------------------------------------------------
  alpha Z        PSCENC =       302.14145564
  Ewald energy   TEWEN  =     32182.55193649
  -Hartree energ DENC   =    -44726.51213661
  -exchange      EXHF   =         0.00000000
  -V(xc)+E(xc)   XCENC  =      1237.35535680
  PAW double counting   =     67946.63237890   -68477.69361301
  entropy T*S    EENTRO =         0.00000000
  eigenvalues    EBANDS =     -3853.72519175
  atomic energy  EATOM  =     15171.73615219
  Solvation  Ediel_sol  =         0.00000000
  ---------------------------------------------------
  free energy    TOTEN  =      -217.51366135 eV

  energy without entropy =     -217.51366135  energy(sigma->0) =     -217.51366135


--------------------------------------------------------------------------------------------------------




--------------------------------------- Iteration      1(  11)  ---------------------------------------


    POTLOK:  cpu time    0.0504: real time    0.0561
    SETDIJ:  cpu time    0.0091: real time    0.0091
     EDDAV:  cpu time    6.6907: real time    6.6942
 BZINTS: Fermi energy:  1.265066;280.000000 electrons
         Band energy:***********;  BLOECHL correction:  0.000000
       DOS:  cpu time    0.0137: real time    0.0137
    CHARGE:  cpu time    0.1335: real time    0.1336
    MIXING:  cpu time    0.0012: real time    0.0012
    --------------------------------------------
      LOOP:  cpu time    6.8986: real time    6.9078

 eigenvalue-minimisations  :  4408
 total energy-change (2. order) : 0.5326950E-01  (-0.3197475E-01)
 number of electron     280.0000040 magnetization      -0.0002488
 augmentation part       24.0017139 magnetization      -0.0007716

 Broyden mixing:
  rms(total) = 0.16091E+00    rms(broyden)= 0.16089E+00
  rms(prec ) = 0.17595E+00
  weight for this iteration     100.00

 eigenvalues of (default mixing * dielectric matrix)
  average eigenvalue GAMMA=   1.7521
  3.8583  2.1992  1.8685  0.9393  0.9393  0.7080

 Free energy of the ion-electron system (eV)
  ---------------------------------------------------
  alpha Z        PSCENC =       302.14145564
  Ewald energy   TEWEN  =     32182.55193649
  -Hartree energ DENC   =    -44730.88709017
  -exchange      EXHF   =         0.00000000
  -V(xc)+E(xc)   XCENC  =      1237.35352245
  PAW double counting   =     68629.86523799   -69160.74181690
  entropy T*S    EENTRO =         0.00000000
  eigenvalues    EBANDS =     -3849.47978954
  atomic energy  EATOM  =     15171.73615219
  Solvation  Ediel_sol  =         0.00000000
  ---------------------------------------------------
  free energy    TOTEN  =      -217.46039185 eV

  energy without entropy =     -217.46039185  energy(sigma->0) =     -217.46039185


--------------------------------------------------------------------------------------------------------




--------------------------------------- Iteration      1(  12)  ---------------------------------------


    POTLOK:  cpu time    0.0476: real time    0.0565
    SETDIJ:  cpu time    0.0091: real time    0.0091
     EDDAV:  cpu time    7.5626: real time    7.5631
 BZINTS: Fermi energy:  1.255064;280.000000 electrons
         Band energy:***********;  BLOECHL correction:  0.000000
       DOS:  cpu time    0.0135: real time    0.0135
    CHARGE:  cpu time    0.1357: real time    0.1357
    MIXING:  cpu time    0.0013: real time    0.0013
    --------------------------------------------
      LOOP:  cpu time    7.7699: real time    7.7793

 eigenvalue-minimisations  :  5144
 total energy-change (2. order) : 0.2812393E-01  (-0.1355672E-01)
 number of electron     280.0000040 magnetization       0.0000227
 augmentation part       23.9913903 magnetization       0.0000854

 Broyden mixing:
  rms(total) = 0.61422E-01    rms(broyden)= 0.61398E-01
  rms(prec ) = 0.65219E-01
  weight for this iteration     100.00

 eigenvalues of (default mixing * dielectric matrix)
  average eigenvalue GAMMA=   1.7376
  3.7781  2.7733  1.8741  1.0525  1.0525  0.9183  0.7146

 Free energy of the ion-electron system (eV)
  ---------------------------------------------------
  alpha Z        PSCENC =       302.14145564
  Ewald energy   TEWEN  =     32182.55193649
  -Hartree energ DENC   =    -44729.59663356
  -exchange      EXHF   =         0.00000000
  -V(xc)+E(xc)   XCENC  =      1237.10593274
  PAW double counting   =     68645.60181207   -69176.02348563
  entropy T*S    EENTRO =         0.00000000
  eigenvalues    EBANDS =     -3850.94943785
  atomic energy  EATOM  =     15171.73615219
  Solvation  Ediel_sol  =         0.00000000
  ---------------------------------------------------
  free energy    TOTEN  =      -217.43226791 eV

  energy without entropy =     -217.43226791  energy(sigma->0) =     -217.43226791


--------------------------------------------------------------------------------------------------------




--------------------------------------- Iteration      1(  13)  ---------------------------------------


    POTLOK:  cpu time    0.0552: real time    0.0569
    SETDIJ:  cpu time    0.0091: real time    0.0091
     EDDAV:  cpu time    6.7185: real time    6.7190
 BZINTS: Fermi energy:  1.250063;280.000000 electrons
         Band energy:***********;  BLOECHL correction:  0.000000
       DOS:  cpu time    0.0137: real time    0.0137
    CHARGE:  cpu time    0.1328: real time    0.1328
    MIXING:  cpu time    0.0014: real time    0.0014
    --------------------------------------------
      LOOP:  cpu time    6.9305: real time    6.9327

 eigenvalue-minimisations  :  4424
 total energy-change (2. order) : 0.4825668E-03  (-0.2106578E-02)
 number of electron     280.0000040 magnetization      -0.0001138
 augmentation part       23.9938880 magnetization      -0.0000899

 Broyden mixing:
  rms(total) = 0.27308E-01    rms(broyden)= 0.27300E-01
  rms(prec ) = 0.29682E-01
  weight for this iteration     100.00

 eigenvalues of (default mixing * dielectric matrix)
  average eigenvalue GAMMA=   1.7059
  3.7822  2.9555  1.9001  1.2343  1.2343  0.7269  0.9069  0.9069

 Free energy of the ion-electron system (eV)
  ---------------------------------------------------
  alpha Z        PSCENC =       302.14145564
  Ewald energy   TEWEN  =     32182.55193649
  -Hartree energ DENC   =    -44728.69090388
  -exchange      EXHF   =         0.00000000
  -V(xc)+E(xc)   XCENC  =      1236.99347146
  PAW double counting   =     68807.24516583   -69337.66279516
  entropy T*S    EENTRO =         0.00000000
  eigenvalues    EBANDS =     -3851.74626792
  atomic energy  EATOM  =     15171.73615219
  Solvation  Ediel_sol  =         0.00000000
  ---------------------------------------------------
  free energy    TOTEN  =      -217.43178535 eV

  energy without entropy =     -217.43178535  energy(sigma->0) =     -217.43178535


--------------------------------------------------------------------------------------------------------




--------------------------------------- Iteration      1(  14)  ---------------------------------------


    POTLOK:  cpu time    0.0570: real time    0.0575
    SETDIJ:  cpu time    0.0091: real time    0.0091
     EDDAV:  cpu time    7.6093: real time    7.6097
 BZINTS: Fermi energy:  1.260065;280.000000 electrons
         Band energy:***********;  BLOECHL correction:  0.000000
       DOS:  cpu time    0.0138: real time    0.0138
    CHARGE:  cpu time    0.1338: real time    0.1339
    MIXING:  cpu time    0.0015: real time    0.0015
    --------------------------------------------
      LOOP:  cpu time    7.8245: real time    7.8255

 eigenvalue-minimisations  :  5184
 total energy-change (2. order) : 0.2701400E-03  (-0.3753692E-03)
 number of electron     280.0000040 magnetization      -0.0000041
 augmentation part       23.9941185 magnetization       0.0000164

 Broyden mixing:
  rms(total) = 0.14590E-01    rms(broyden)= 0.14587E-01
  rms(prec ) = 0.15449E-01
  weight for this iteration     100.00

 eigenvalues of (default mixing * dielectric matrix)
  average eigenvalue GAMMA=   1.7242
  3.6824  3.1022  2.0736  1.7741  1.3587  0.7289  0.9947  0.9018  0.9018

 Free energy of the ion-electron system (eV)
  ---------------------------------------------------
  alpha Z        PSCENC =       302.14145564
  Ewald energy   TEWEN  =     32182.55193649
  -Hartree energ DENC   =    -44731.15032724
  -exchange      EXHF   =         0.00000000
  -V(xc)+E(xc)   XCENC  =      1237.02523160
  PAW double counting   =     68890.02011155   -69420.47354598
  entropy T*S    EENTRO =         0.00000000
  eigenvalues    EBANDS =     -3849.28252945
  atomic energy  EATOM  =     15171.73615219
  Solvation  Ediel_sol  =         0.00000000
  ---------------------------------------------------
  free energy    TOTEN  =      -217.43151521 eV

  energy without entropy =     -217.43151521  energy(sigma->0) =     -217.43151521


--------------------------------------------------------------------------------------------------------




--------------------------------------- Iteration      1(  15)  ---------------------------------------


    POTLOK:  cpu time    0.0552: real time    0.0556
    SETDIJ:  cpu time    0.0093: real time    0.0093
     EDDAV:  cpu time    6.6523: real time    6.6527
 BZINTS: Fermi energy:  1.265066;280.000000 electrons
         Band energy:***********;  BLOECHL correction:  0.000000
       DOS:  cpu time    0.0139: real time    0.0139
    --------------------------------------------
      LOOP:  cpu time    6.7307: real time    6.7315

 eigenvalue-minimisations  :  4376
 total energy-change (2. order) : 0.1142899E-04  (-0.9634074E-04)
 number of electron     280.0000040 magnetization      -0.0000041
 augmentation part       23.9941185 magnetization       0.0000164

 Free energy of the ion-electron system (eV)
  ---------------------------------------------------
  alpha Z        PSCENC =       302.14145564
  Ewald energy   TEWEN  =     32182.55193649
  -Hartree energ DENC   =    -44732.96160153
  -exchange      EXHF   =         0.00000000
  -V(xc)+E(xc)   XCENC  =      1237.05648844
  PAW double counting   =     68886.55189825   -69417.00366347
  entropy T*S    EENTRO =         0.00000000
  eigenvalues    EBANDS =     -3847.50416978
  atomic energy  EATOM  =     15171.73615219
  Solvation  Ediel_sol  =         0.00000000
  ---------------------------------------------------
  free energy    TOTEN  =      -217.43150378 eV

  energy without entropy =     -217.43150378  energy(sigma->0) =     -217.43150378


--------------------------------------------------------------------------------------------------------




 average (electrostatic) potential at core
  the test charge radii are     0.6991  0.7089  0.9911  0.6991  0.7215
  (the norm of the test charge is              1.0000)
       1 -58.4723       2 -58.9424       3 -58.9095       4 -58.7206       5 -58.6389
       6 -58.7776       7 -58.5822       8 -58.3434       9 -58.2574      10 -59.7722
      11 -58.9611      12 -59.7710      13 -58.4233      14 -58.4830      15 -58.1646
      16 -58.8501      17 -58.7107      18 -58.6428      19 -58.7277      20 -58.3577
      21 -58.3383      22 -58.8507      23 -58.6497      24 -58.9346      25 -72.7560
      26 -70.0489      27 -70.0636      28 -70.3063      29 -70.3750      30 -70.2631
      31 -70.1091      32 -74.0660      33 -72.0899      34 -70.7123      35 -72.2869
      36 -70.4028      37 -70.3844      38 -70.8081      39 -72.1877      40 -74.2346
      41 -72.4292      42 -70.3820      43 -70.2258      44 -70.4635      45 -70.6283
      46 -70.1613      47 -70.1268      48 -73.9514      49 -72.3183      50 -70.5950
      51 -70.5258      52 -69.9962      53 -69.9208      54 -70.4160      55 -70.5195
      56 -74.3248      57 -78.3119      58 -57.9302      59 -81.4544



 E-fermi :   1.2651     XC(G=0):  -4.6054     alpha+bet : -4.5380


 spin component 1

 k-point     1 :       0.0000    0.0000    0.0000
  band No.  band energies     occupation 
      1     -31.1577      1.00000
      2     -31.0035      1.00000
      3     -30.6938      1.00000
      4     -30.6102      1.00000
      5     -29.0296      1.00000
      6     -28.7994      1.00000
      7     -28.7175      1.00000
      8     -28.6786      1.00000
      9     -27.8147      1.00000
     10     -27.5953      1.00000
     11     -27.4922      1.00000
     12     -27.4347      1.00000
     13     -27.2372      1.00000
     14     -27.1709      1.00000
     15     -25.8792      1.00000
     16     -25.6243      1.00000
     17     -25.4743      1.00000
     18     -24.6616      1.00000
     19     -24.3965      1.00000
     20     -23.8415      1.00000
     21     -23.7594      1.00000
     22     -23.5559      1.00000
     23     -23.5043      1.00000
     24     -23.4385      1.00000
     25     -23.2509      1.00000
     26     -23.1627      1.00000
     27     -23.0884      1.00000
     28     -22.8220      1.00000
     29     -22.7383      1.00000
     30     -22.7258      1.00000
     31     -22.5894      1.00000
     32     -22.5499      1.00000
     33     -22.4101      1.00000
     34     -22.0558      1.00000
     35     -21.8779      1.00000
     36     -21.8069      1.00000
     37     -21.5907      1.00000
     38     -20.6968      1.00000
     39     -19.2632      1.00000
     40     -19.1369      1.00000
     41     -18.9340      1.00000
     42     -18.6340      1.00000
     43     -18.4957      1.00000
     44     -18.2583      1.00000
     45     -18.2213      1.00000
     46     -18.1555      1.00000
     47     -16.6857      1.00000
     48     -16.5139      1.00000
     49     -16.4185      1.00000
     50     -16.0408      1.00000
     51     -15.9777      1.00000
     52     -15.8667      1.00000
     53     -15.6477      1.00000
     54     -15.6154      1.00000
     55     -15.5374      1.00000
     56     -15.5055      1.00000
     57     -15.3274      1.00000
     58     -15.1595      1.00000
     59     -14.9983      1.00000
     60     -14.8905      1.00000
     61     -14.7801      1.00000
     62     -14.5191      1.00000
     63     -14.4636      1.00000
     64     -14.3034      1.00000
     65     -14.1395      1.00000
     66     -13.9725      1.00000
     67     -13.8910      1.00000
     68     -13.4322      1.00000
     69     -12.9837      1.00000
     70     -12.5851      1.00000
     71     -12.3277      1.00000
     72     -12.2708      1.00000
     73     -11.9194      1.00000
     74     -11.8554      1.00000
     75     -11.7795      1.00000
     76     -11.5800      1.00000
     77     -11.4770      1.00000
     78     -11.1810      1.00000
     79     -11.0819      1.00000
     80     -10.9741      1.00000
     81     -10.8540      1.00000
     82     -10.8179      1.00000
     83     -10.6243      1.00000
     84     -10.5751      1.00000
     85     -10.4587      1.00000
     86     -10.3162      1.00000
     87     -10.3140      1.00000
     88     -10.2137      1.00000
     89     -10.1090      1.00000
     90      -9.7181      1.00000
     91      -9.4616      1.00000
     92      -9.0071      1.00000
     93      -8.8663      1.00000
     94      -8.6852      1.00000
     95      -8.3877      1.00000
     96      -8.2867      1.00000
     97      -8.0574      1.00000
     98      -7.9207      1.00000
     99      -7.4566      1.00000
    100      -7.3217      1.00000
    101      -7.1889      1.00000
    102      -7.1158      1.00000
    103      -7.0254      1.00000
    104      -6.9658      1.00000
    105      -6.8660      1.00000
    106      -6.7126      1.00000
    107      -6.4895      1.00000
    108      -6.3198      1.00000
    109      -5.9237      1.00000
    110      -5.4807      1.00000
    111      -5.3973      1.00000
    112      -5.1029      1.00000
    113      -4.7278      1.00000
    114      -4.6777      1.00000
    115      -4.4757      1.00000
    116      -4.2935      1.00000
    117      -4.0665      1.00000
    118      -3.9584      1.00000
    119      -3.9448      1.00000
    120      -3.8539      1.00000
    121      -3.7838      1.00000
    122      -3.6353      1.00000
    123      -3.5886      1.00000
    124      -3.4623      1.00000
    125      -3.3506      1.00000
    126      -3.1363      1.00000
    127      -3.0126      1.00000
    128      -2.5498      1.00000
    129      -2.3985      1.00000
    130      -2.1139      1.00000
    131      -1.8591      1.00000
    132      -1.6534      1.00000
    133      -1.5792      1.00000
    134      -1.4998      1.00000
    135      -1.1479      1.00000
    136      -1.0548      1.00000
    137      -0.6231      1.00000
    138      -0.3504      1.00000
    139      -0.2097      1.00000
    140       1.0241      1.00000
    141       1.7015      0.00000
    142       1.8126      0.00000
    143       1.8677      0.00000
    144       2.3222      0.00000
    145       2.5475      0.00000
    146       2.6364      0.00000
    147       2.8398      0.00000
    148       2.9237      0.00000
    149       3.0896      0.00000
    150       3.2873      0.00000
    151       3.3254      0.00000
    152       3.4770      0.00000
    153       3.5517      0.00000
    154       3.7387      0.00000
    155       3.8365      0.00000
    156       3.9128      0.00000
    157       4.0485      0.00000
    158       4.1278      0.00000
    159       4.2617      0.00000
    160       4.3104      0.00000
    161       4.4671      0.00000
    162       4.5821      0.00000
    163       4.6190      0.00000
    164       4.6703      0.00000
    165       4.7441      0.00000
    166       4.9154      0.00000
    167       5.0942      0.00000
    168       5.2182      0.00000
    169       5.3377      0.00000
    170       5.3542      0.00000
    171       5.4587      0.00000
    172       5.5638      0.00000

 k-point     2 :       0.3333    0.0000    0.0000
  band No.  band energies     occupation 
      1     -31.1286      1.00000
      2     -31.0326      1.00000
      3     -30.6872      1.00000
      4     -30.6341      1.00000
      5     -28.9520      1.00000
      6     -28.7776      1.00000
      7     -28.7174      1.00000
      8     -28.5643      1.00000
      9     -28.1389      1.00000
     10     -27.6579      1.00000
     11     -27.5944      1.00000
     12     -27.4571      1.00000
     13     -27.3803      1.00000
     14     -26.5264      1.00000
     15     -25.9662      1.00000
     16     -25.5833      1.00000
     17     -25.4777      1.00000
     18     -24.6987      1.00000
[...]
   -.264E+02 0.833E+02 0.287E+03   0.258E+02 -.846E+02 -.291E+03   -.296E+00 0.457E+01 0.308E+01   -.123E-02 -.675E-02 -.262E-03
   -.955E+02 -.261E+02 0.138E+03   0.988E+02 0.268E+02 -.141E+03   -.416E+01 -.216E+01 0.181E+01   -.554E-02 -.526E-02 0.309E-02
   0.650E+02 -.364E+02 -.460E+02   -.639E+02 0.412E+02 0.501E+02   0.102E+01 0.293E+01 0.848E+00   0.112E-01 -.352E-02 -.269E-02
   0.327E+02 -.325E+02 -.704E+02   -.369E+02 0.281E+02 0.708E+02   -.330E+01 -.244E+01 0.725E+00   0.122E-01 -.101E-01 0.145E-02
   -.280E+01 -.848E+01 -.856E+02   0.713E+01 0.345E+01 0.873E+02   0.379E+01 -.170E+01 0.414E+00   0.158E-01 -.458E-02 -.202E-02
   -.417E+02 0.241E+02 -.104E+03   0.386E+02 -.242E+02 0.106E+03   0.119E+01 -.206E+01 -.165E+01   -.257E-02 0.111E-01 0.583E-02
   -.519E+01 0.274E+02 0.679E+02   0.535E+01 -.324E+02 -.694E+02   0.112E+00 0.447E+01 -.552E+00   -.776E-02 0.122E-01 0.998E-02
   0.527E+02 0.210E+02 -.943E+02   -.497E+02 -.216E+02 0.983E+02   -.126E+01 -.267E+01 -.103E+01   -.129E-01 -.280E-02 -.689E-02
   -.468E+01 -.180E+02 -.259E+02   0.551E+01 0.214E+02 0.226E+02   -.369E+00 0.446E+01 -.960E+00   0.181E-01 -.984E-02 -.612E-02
   0.522E+02 0.400E+02 0.277E+03   -.571E+02 -.424E+02 -.278E+03   -.396E+01 -.148E+01 -.134E+01   0.279E-01 -.115E-01 0.341E-02
   -.129E+02 0.279E+02 0.124E+03   0.181E+02 -.331E+02 -.125E+03   0.393E+01 -.125E+01 -.526E+00   0.189E-01 -.178E-01 -.457E-02
   0.985E+02 -.245E+02 0.947E+02   -.102E+03 0.247E+02 -.964E+02   0.421E+01 -.227E+01 0.947E+00   -.280E-02 0.509E-02 0.131E-02
   0.115E+02 0.117E+03 0.305E+03   -.896E+01 -.118E+03 -.310E+03   -.423E+00 0.428E+01 0.269E+01   0.114E-02 0.557E-03 0.737E-02
   -.968E+02 -.899E+02 -.142E+03   0.101E+03 0.912E+02 0.145E+03   -.412E+01 -.204E+01 -.789E+00   -.138E-01 -.104E-01 -.399E-02
   -.570E+02 -.333E+02 -.201E+03   0.537E+02 0.397E+02 0.205E+03   -.438E+00 0.296E+01 0.767E+00   -.119E-01 0.214E-01 0.450E-02
   0.683E+01 -.984E+01 -.155E+03   -.123E+02 0.494E+01 0.159E+03   -.384E+01 -.160E+01 0.600E+00   -.145E-01 0.106E-01 -.101E-02
   -.359E+02 -.259E+02 -.126E+03   0.414E+02 0.211E+02 0.128E+03   0.305E+01 -.255E+01 0.151E+01   -.121E-01 0.742E-02 0.422E-02
   0.116E+03 -.102E+03 0.198E+03   -.116E+03 0.108E+03 -.199E+03   0.387E+01 -.345E+01 0.604E+00   0.251E-01 -.140E-01 0.363E-02
   -.155E+02 0.658E+02 -.273E+03   0.157E+02 -.699E+02 0.278E+03   -.111E+00 0.475E+01 -.210E+01   0.348E-02 0.131E-01 -.863E-02
   -.131E+03 -.377E+02 -.879E+02   0.132E+03 0.396E+02 0.906E+02   -.455E+01 -.171E+01 -.173E+01   -.597E-02 0.335E-02 0.139E-02
   -.214E+02 0.624E+02 0.238E+03   0.227E+02 -.622E+02 -.244E+03   -.315E+00 0.194E+01 0.386E+01   -.395E-01 -.114E-01 -.830E-03
   -.284E+03 -.391E+02 0.320E+03   0.343E+03 0.711E+02 -.347E+03   -.336E+02 -.169E+02 0.140E+02   -.794E-02 -.559E-04 0.280E-02
   0.228E+03 -.227E+03 -.342E+03   -.286E+03 0.259E+03 0.368E+03   0.324E+02 -.177E+02 -.107E+02   0.188E-01 -.230E-01 -.720E-03
   0.444E+01 0.251E+03 0.568E+03   0.465E+00 -.305E+03 -.615E+03   -.106E+01 0.303E+02 0.227E+02   0.117E-01 -.258E-01 -.127E-01
   -.587E+02 0.208E+03 0.595E+03   0.564E+02 -.257E+03 -.648E+03   0.105E+01 0.294E+02 0.269E+02   -.119E-01 -.246E-01 -.110E-01
   0.282E+03 -.141E+03 -.163E+03   -.338E+03 0.182E+03 0.167E+03   0.313E+02 -.195E+02 -.703E-01   0.216E-01 -.230E-01 -.183E-02
   -.210E+03 -.117E+03 0.363E+03   0.267E+03 0.136E+03 -.405E+03   -.318E+02 -.114E+02 0.203E+02   0.137E-01 -.981E-02 0.127E-02
   -.644E+01 -.979E+00 -.356E+02   0.714E+01 0.418E+00 0.380E+02   -.226E+00 0.326E+00 -.108E+01   -.209E-02 0.860E-02 -.509E-02
   0.272E+02 -.360E+02 -.140E+03   -.272E+02 0.376E+02 0.149E+03   0.367E+00 -.822E+00 -.434E+01   0.238E-01 -.788E-02 0.322E-03
   0.559E+01 -.881E+02 -.433E+03   0.339E+02 0.115E+03 0.484E+03   -.237E+02 -.151E+02 -.252E+02   0.736E-02 0.925E-02 -.473E-02
   0.305E+01 0.101E+03 -.109E+03   -.416E+02 -.955E+02 0.129E+03   0.199E+02 -.398E+01 -.110E+02   -.325E-01 0.120E-01 0.125E-01
   -.254E+02 0.158E+03 0.178E+03   0.311E+02 -.221E+03 -.200E+03   -.185E+01 0.348E+02 0.963E+01   -.210E-01 0.172E-01 0.151E-01
   -.204E+00 0.152E+03 0.198E+03   -.399E+01 -.216E+03 -.220E+03   0.120E+01 0.347E+02 0.974E+01   -.700E-03 0.750E-03 0.141E-01
   0.505E+02 -.858E+02 -.474E+03   -.988E+02 0.114E+03 0.515E+03   0.286E+02 -.154E+02 -.189E+02   -.165E-01 0.303E-01 0.906E-02
   0.479E+01 0.115E+03 -.154E+03   0.304E+02 -.111E+03 0.183E+03   -.183E+02 -.331E+01 -.149E+02   -.172E-01 0.253E-02 -.658E-03
   0.762E+02 0.259E+02 0.104E+03   -.861E+02 -.326E+02 -.105E+03   0.392E+01 0.287E+01 -.141E+00   -.590E-02 -.186E-01 -.467E-02
   0.207E+02 0.584E+02 0.215E+03   -.254E+02 -.613E+02 -.224E+03   0.229E+01 0.180E+01 0.420E+01   0.419E-01 -.209E-01 -.472E-02
   -.277E+03 -.150E+03 -.179E+03   0.334E+03 0.188E+03 0.183E+03   -.313E+02 -.183E+02 -.127E+01   0.531E-02 -.423E-02 -.948E-02
   0.215E+03 -.990E+02 0.281E+03   -.275E+03 0.117E+03 -.317E+03   0.329E+02 -.110E+02 0.169E+02   -.149E-01 0.118E-01 -.261E-03
   0.200E+02 0.241E+03 0.613E+03   -.131E+02 -.293E+03 -.663E+03   -.374E+01 0.306E+02 0.237E+02   -.210E-01 -.115E-02 0.943E-02
   0.809E+01 0.345E+03 0.516E+03   -.122E+02 -.411E+03 -.541E+03   0.794E-01 0.350E+02 0.111E+02   0.129E-01 0.254E-02 0.142E-01
   0.285E+03 -.400E+02 0.193E+03   -.346E+03 0.748E+02 -.207E+03   0.339E+02 -.180E+02 0.728E+01   -.184E-01 0.210E-01 0.135E-02
   -.208E+03 -.232E+03 -.420E+03   0.262E+03 0.264E+03 0.452E+03   -.310E+02 -.174E+02 -.136E+02   -.173E-01 -.108E-02 -.319E-02
   0.114E+01 -.515E+02 -.195E+02   -.986E+00 0.544E+02 0.145E+02   -.192E+00 -.140E+01 0.198E+01   0.124E-02 -.928E-02 0.282E-02
   -.269E+02 -.392E+02 -.273E+03   0.259E+02 0.434E+02 0.285E+03   0.150E+00 -.228E+01 -.587E+01   -.207E-01 0.188E-01 0.566E-02
   -.330E+03 -.941E+02 -.134E+03   0.390E+03 0.129E+03 0.137E+03   -.323E+02 -.189E+02 -.209E+01   -.455E-02 0.202E-01 0.175E-02
   0.260E+03 -.218E+03 0.436E+03   -.321E+03 0.247E+03 -.457E+03   0.316E+02 -.178E+02 0.663E+01   0.355E-01 -.197E-01 0.233E-02
   0.305E+01 0.215E+03 -.556E+03   0.553E+01 -.268E+03 0.602E+03   -.369E+01 0.298E+02 -.233E+02   0.244E-01 -.228E-02 -.531E-02
   -.534E+02 0.166E+03 -.623E+03   0.511E+02 -.214E+03 0.678E+03   0.603E+00 0.289E+02 -.272E+02   -.127E-01 0.114E-01 -.100E-04
   0.278E+03 -.187E+03 0.338E+03   -.326E+03 0.230E+03 -.365E+03   0.257E+02 -.227E+02 0.119E+02   0.230E-01 -.838E-02 0.121E-02
   -.243E+03 -.108E+03 -.268E+03   0.306E+03 0.124E+03 0.298E+03   -.329E+02 -.112E+02 -.145E+02   0.260E-01 -.782E-02 0.719E-02
   -.719E+02 0.302E+02 0.610E+02   0.790E+02 -.359E+02 -.674E+02   -.239E+01 0.224E+01 0.197E+01   0.294E-02 0.235E-03 0.392E-02
   0.663E+02 -.172E+03 -.143E+04   -.689E+02 0.200E+03 0.147E+04   0.175E+01 -.189E+02 -.316E+02   -.809E-01 0.673E-01 -.837E-01
   -.871E+02 -.199E+03 0.184E+03   0.110E+03 0.251E+03 -.245E+03   -.773E+01 -.175E+02 0.203E+02   -.388E-02 -.103E-02 0.287E-03
   0.709E+02 0.160E+03 -.871E+02   -.108E+03 -.243E+03 0.184E+03   0.214E+02 0.486E+02 -.564E+02   -.815E-02 -.463E-02 0.149E-02
 -----------------------------------------------------------------------------------------------
   -.109E+02 -.380E+02 0.465E+02   0.142E-13 0.455E-12 -.853E-13   0.110E+02 0.381E+02 -.465E+02   -.840E-01 -.462E-01 -.426E-01


 POSITION                                       TOTAL-FORCE (eV/Angst)
 -----------------------------------------------------------------------------------
     -0.01196      1.98159      5.23661         0.016966      9.720886     -3.286641
      0.97649      3.68608      5.31694       -11.611086      1.317283     -0.117858
     -1.01991      3.64965      5.24649        11.293293      1.416817      1.190318
      4.60054      0.52903      6.18737         0.660892     -1.545653      2.002829
      2.79044      3.68508      5.06935        -0.932580      3.243631     -0.979334
      0.94872      0.47634      5.50322        -0.840725     -1.501054     -0.445164
     -2.87473      6.64604      5.92586         2.189504      7.709715      4.873061
     -1.77963      8.28418      6.13346        -7.477415     -6.935917      1.191669
     -3.74628      8.36056      6.09655         8.136150     -6.738792      2.108449
      1.92468      5.06136      6.14189        -1.947909     -2.213620      0.453126
      0.03153      8.21411      5.98668         0.262243     -0.465680     -1.950974
     -2.03934      5.05875      5.88710         1.742261     -3.247314      2.935899
      5.58925      1.99172      5.79150         0.478127      7.821053     -4.263036
      6.48311      3.52687      4.91764        -8.820098     -3.832335     -2.118509
      4.57626      3.59621      5.34458         9.198810     -6.473260     -1.599785
     10.11531      0.34594      5.64745         0.526850     -2.014416     -0.687059
      8.27786      3.47288      4.84560         2.151365      2.559146     -2.173191
      6.53402      0.51855      6.26342         0.003948     -0.798755      1.678722
      2.85326      6.56038      6.49403        -3.784565      9.376238      4.723478
      3.77884      8.27450      6.39361        -9.376554     -6.503484      4.925861
      1.80742      8.25721      6.37497         8.499536     -7.354148      3.486393
      7.27503      5.12278      5.16516         3.874931      2.479453     -0.480268
      5.57614      8.29099      6.53502         0.026096      0.666326      2.394439
      3.80947      5.09463      5.99737        -3.087067      0.248380      1.020944
     -0.01148      3.11311      5.21938         0.893192      2.163973     -2.537128
      0.93310      1.48092      5.17047        25.681935     15.113464    -12.279345
      3.71405     -0.03441      6.38494       -25.308336     14.235746     15.535195
      3.71583      3.21966      4.82768         3.849367    -24.146743    -23.898232
      1.82007      3.32259      4.79608        -1.209026    -19.896335    -25.852051
      4.62138      1.57640      6.03686       -25.487863     20.583435      3.795191
     -3.71422      9.22171      5.47892        25.322825      7.478654    -21.257066
      0.01346      0.01711      5.91315         0.466633     -0.227264      1.340083
     -2.77742      7.74826      6.12216         0.432677      0.764631      4.695639
     -2.08899      6.01678      6.33250        15.857803     12.034050     25.557232
      0.97604      4.54447      6.01765       -18.728332      1.387940      9.331110
      0.96896      7.69618      5.99573         3.900180    -29.071452    -12.434895
     -0.90360      7.70849      5.87153        -2.994740    -28.993918    -12.453547
      1.93814      5.98694      6.65705       -19.704520     12.594677     22.235642
     -1.10843      4.50344      5.94044        16.884704      0.532097     14.297953
      8.19993      4.48942      5.35090        -6.005748     -3.916282     -0.914312
      5.56270      2.98713      5.27086        -2.335588     -1.113561     -5.194369
      6.54175      1.56187      6.06190        26.172848     19.805838      2.574022
      3.69995      9.10105      5.73323       -26.418607      6.685542    -19.728562
     -1.80604      3.25520      4.66467         3.130372    -20.954950    -25.919890
      7.36910      2.96235      4.67339        -3.989366    -31.182335    -14.147727
     10.10517      1.35500      5.34061       -26.665957     16.765683     -6.223169
      7.37849     -0.05300      6.59282        23.220237     14.500992     18.216817
      5.56957     -0.04070      6.09875        -0.032238      1.447117     -3.026793
      2.79267      7.68493      6.52943        -0.932190      1.992760      6.424237
      3.79429      6.12360      6.26862        27.814757     15.611458      0.490221
      6.40983      4.61350      4.86800       -29.252590     11.424617    -14.041655
     -4.54788      7.97833      6.70317         4.913342    -23.472346     23.308633
      4.64542      7.91263      6.91164        -1.670928    -19.043196     27.523242
     -3.70328      6.33594      5.33370       -22.176934     19.645174    -14.724068
      4.67235      4.49461      5.92489        29.536009      4.695022     15.970694
      2.82137      4.61772      5.72498         4.627704     -3.454009     -4.425459
     -0.10715      5.50334      6.81258        -0.984030      9.053275     12.864164
     -0.10715      5.50334     11.59658        15.447532     34.915577    -40.560845
     -0.36396      4.92266      0.27285       -15.438099    -34.893832     40.575671
 -----------------------------------------------------------------------------------
    total drift:                                0.005347      0.002049     -0.041871


--------------------------------------------------------------------------------------------------------



  FREE ENERGIE OF THE ION-ELECTRON SYSTEM (eV)
  ---------------------------------------------------
  free  energy   TOTEN  =      -222.96144848 eV

  energy  without entropy=     -222.96144848  energy(sigma->0) =     -222.96144848



--------------------------------------------------------------------------------------------------------


    POTLOK:  cpu time    0.1556: real time    0.1556


--------------------------------------------------------------------------------------------------------


     LOOP+:  cpu time  110.9646: real time  111.0874
    4ORBIT:  cpu time    0.0000: real time    0.0000



 total charge     

# of ion       s       p       d       tot
------------------------------------------
    1        1.173   2.661   0.000   3.834
    2        1.150   2.630   0.000   3.781
    3        1.155   2.647   0.000   3.802
    4        1.186   2.689   0.000   3.875
    5        1.170   2.676   0.000   3.846
    6        1.194   2.701   0.000   3.895
    7        1.172   2.660   0.000   3.832
    8        1.167   2.654   0.000   3.821
    9        1.178   2.654   0.000   3.831
   10        1.200   2.744   0.000   3.944
   11        1.191   2.694   0.000   3.886
   12        1.208   2.758   0.000   3.966
   13        1.166   2.653   0.000   3.819
   14        1.164   2.650   0.000   3.813
   15        1.160   2.647   0.000   3.808
   16        1.197   2.709   0.000   3.906
   17        1.174   2.691   0.000   3.866
   18        1.181   2.689   0.000   3.869
   19        1.169   2.653   0.000   3.823
   20        1.171   2.648   0.000   3.819
   21        1.162   2.641   0.000   3.803
   22        1.180   2.689   0.000   3.870
   23        1.181   2.675   0.000   3.857
   24        1.190   2.710   0.000   3.900
   25        1.437   3.434   0.000   4.871
   26        1.447   3.292   0.000   4.738
   27        1.443   3.278   0.000   4.721
   28        1.439   3.242   0.000   4.681
   29        1.446   3.275   0.000   4.721
   30        1.439   3.273   0.000   4.712
   31        1.453   3.273   0.000   4.727
   32        1.466   3.479   0.000   4.946
   33        1.456   3.452   0.000   4.907
   34        1.444   3.299   0.000   4.743
   35        1.428   3.340   0.000   4.767
   36        1.436   3.268   0.000   4.704
   37        1.435   3.267   0.000   4.702
   38        1.438   3.286   0.000   4.724
   39        1.431   3.346   0.000   4.776
   40        1.469   3.497   0.000   4.966
   41        1.448   3.430   0.000   4.877
   42        1.435   3.258   0.000   4.692
   43        1.453   3.282   0.000   4.735
   44        1.445   3.272   0.000   4.718
   45        1.441   3.240   0.000   4.681
   46        1.448   3.297   0.000   4.745
   47        1.442   3.266   0.000   4.708
   48        1.462   3.483   0.000   4.945
   49        1.440   3.416   0.000   4.856
   50        1.450   3.282   0.000   4.732
   51        1.443   3.265   0.000   4.708
   52        1.434   3.254   0.000   4.688
   53        1.439   3.259   0.000   4.698
   54        1.435   3.265   0.000   4.700
   55        1.451   3.264   0.000   4.715
   56        1.465   3.485   0.000   4.951
   57        1.281   1.446  10.417  13.144
   58        1.139   1.982   0.000   3.121
   59        1.714   3.903   0.000   5.617
--------------------------------------------------
tot         78.612 177.872  10.417 266.901



 magnetization (x)

# of ion       s       p       d       tot
------------------------------------------
    1       -0.000   0.000   0.000   0.000
    2        0.000   0.000   0.000   0.000
    3        0.000   0.000   0.000   0.000
    4        0.000   0.000   0.000   0.000
    5        0.000  -0.000   0.000  -0.000
    6        0.000   0.000   0.000   0.000
    7        0.000   0.000   0.000   0.000
    8        0.000   0.000   0.000   0.000
    9        0.000   0.000   0.000   0.000
   10        0.000   0.000   0.000   0.000
   11       -0.000   0.000   0.000   0.000
   12        0.000   0.000   0.000   0.000
   13        0.000   0.000   0.000   0.000
   14        0.000   0.000   0.000   0.000
   15        0.000   0.000   0.000   0.000
   16       -0.000   0.000   0.000   0.000
   17        0.000   0.000   0.000   0.000
   18       -0.000   0.000   0.000   0.000
   19       -0.000  -0.000   0.000  -0.000
   20        0.000   0.000   0.000   0.000
   21       -0.000  -0.000   0.000  -0.000
   22        0.000   0.000   0.000   0.000
   23       -0.000   0.000   0.000   0.000
   24       -0.000  -0.000   0.000  -0.000
   25        0.000  -0.000   0.000  -0.000
   26       -0.000  -0.000   0.000  -0.000
   27       -0.000  -0.000   0.000  -0.000
   28       -0.000  -0.000   0.000  -0.000
   29        0.000  -0.000   0.000  -0.000
   30       -0.000  -0.000   0.000  -0.000
   31       -0.000  -0.000   0.000  -0.000
   32        0.000   0.000   0.000   0.000
   33       -0.000   0.000   0.000   0.000
   34       -0.000  -0.000   0.000  -0.000
   35        0.000  -0.000   0.000  -0.000
   36       -0.000   0.000   0.000   0.000
   37        0.000   0.000   0.000   0.000
   38       -0.000  -0.000   0.000  -0.000
   39       -0.000  -0.000   0.000  -0.000
   40        0.000   0.000   0.000   0.000
   41       -0.000   0.000   0.000   0.000
   42       -0.000   0.000   0.000   0.000
   43       -0.000   0.000   0.000   0.000
   44       -0.000   0.000   0.000   0.000
   45       -0.000   0.000   0.000   0.000
   46       -0.000   0.000   0.000   0.000
   47       -0.000  -0.000   0.000  -0.000
   48        0.000   0.000   0.000   0.000
   49        0.000   0.000   0.000   0.000
   50        0.000  -0.000   0.000  -0.000
   51       -0.000  -0.000   0.000  -0.000
   52       -0.000  -0.000   0.000  -0.000
   53        0.000  -0.000   0.000  -0.000
   54       -0.000  -0.000   0.000  -0.000
   55       -0.000  -0.000   0.000  -0.000
   56       -0.000  -0.000   0.000  -0.000
   57       -0.000  -0.000   0.000  -0.000
   58       -0.000   0.000   0.000  -0.000
   59       -0.000  -0.000   0.000  -0.000
--------------------------------------------------
tot         -0.000   0.000   0.000  -0.000

 BZINTS: Fermi energy:  1.265066;280.000000 electrons
         Band energy:***********;  BLOECHL correction:  0.000000

 total amount of memory used by VASP MPI-rank0    63181. kBytes
=======================================================================

   base      :      30000. kBytes
   nonl-proj :       9833. kBytes
   fftplans  :       1973. kBytes
   grid      :       5974. kBytes
   one-center:        155. kBytes
   wavefun   :      15246. kBytes

  
  
 General timing and accounting informations for this job:
 ========================================================
  
                  Total CPU time used (sec):      121.850
                            User time (sec):      120.903
                          System time (sec):        0.948
                         Elapsed time (sec):      122.278
  
                   Maximum memory used (kb):      184036.
                   Average memory used (kb):           0.
  
                          Minor page faults:        37549
                          Major page faults:            0
                 Voluntary context switches:          806
