 vasp.5.4.4.18Apr17-6-g9f103f2a35 (build Nov  8 2022 18:58:45) complex           
 executed on             LinuxGNU date 2023.04.13  15:54:02
 running on   48 total cores
 distrk:  each k-point on   48 cores,    1 groups
 distr:  one band on NCORES_PER_BAND=  12 cores,    4 groups


--------------------------------------------------------------------------------------------------------


 INCAR:
 POTCAR:    PAW_PBE C 08Apr2002                   
 POTCAR:    PAW_PBE N 08Apr2002                   
 POTCAR:    PAW_PBE Ge_d 03Jul2007                
 POTCAR:    PAW_PBE C 08Apr2002                   
 POTCAR:    PAW_PBE O 08Apr2002                   
 POTCAR:    PAW_PBE C 08Apr2002                   
   SHA256 =  253f7b50bb8d59471dbedb8285d89021f4a42ed1a2c5d38a03a736e69125dd95 C/
   COPYR  = (c) Copyright 08Apr2002 Georg Kresse                                
   COPYR  = This file is part of the software VASP. Any use, copying, and all ot
   COPYR  = If you do not have a valid VASP license, you may not use, copy or di
   VRHFIN =C: s2p2                                                              
   LEXCH  = PE                                                                  
   EATOM  =   147.1560 eV,   10.8157 Ry                                         
                                                                                
   TITEL  = PAW_PBE C 08Apr2002                                                 
   LULTRA =        F    use ultrasoft PP ?                                      
   IUNSCR =        1    unscreen: 0-lin 1-nonlin 2-no                           
   RPACOR =    1.200    partial core radius                                     
   POMASS =   12.011; ZVAL   =    4.000    mass and valenz                      
   RCORE  =    1.500    outmost cutoff radius                                   
   RWIGS  =    1.630; RWIGS  =    0.863    wigner-seitz radius (au A)           
   ENMAX  =  400.000; ENMIN  =  300.000 eV                                      
   ICORE  =        2    local potential                                         
   LCOR   =        T    correct aug charges                                     
   LPAW   =        T    paw PP                                                  
   EAUG   =  644.873                                                            
   DEXC   =    0.000                                                            
   RMAX   =    1.529    core radius for proj-oper                               
   RAUG   =    1.300    factor for augmentation sphere                          
   RDEP   =    1.501    radius for radial grids                                 
   RDEPT  =    1.300    core radius for aug-charge                              
                                                                                
   Atomic configuration                                                         
    4 entries                                                                   
     n  l   j            E        occ.                                          
     1  0  0.50      -273.3789   2.0000                                         
     2  0  0.50       -13.7508   2.0000                                         
     2  1  0.50        -5.2854   2.0000                                         
     3  2  1.50        -5.4423   0.0000                                         
   Description                                                                  
     l       E           TYP  RCUT    TYP  RCUT                                 
     0    -13.7508458     23  1.200                                             
     0     -8.2022199     23  1.200                                             
     1     -5.2854383     23  1.500                                             
     1     34.0145650     23  1.500                                             
     2     -5.4423304      7  1.500                                             
  local pseudopotential read in
  partial core-charges read in
  partial kinetic energy density read in
  atomic valenz-charges read in
  non local Contribution for L=           0  read in
    real space projection operators read in
  non local Contribution for L=           0  read in
    real space projection operators read in
  non local Contribution for L=           1  read in
    real space projection operators read in
  non local Contribution for L=           1  read in
    real space projection operators read in
    PAW grid and wavefunctions read in

   number of l-projection  operators is LMAX  =           4
   number of lm-projection operators is LMMAX =           8

 POTCAR:    PAW_PBE N 08Apr2002                   
   SHA256 =  e053789ff3a61a86a1b75d8a110fcc91f86041011e7b0817c7c99e4e8a6349d7 N/
   COPYR  = (c) Copyright 08Apr2002 Georg Kresse                                
   COPYR  = This file is part of the software VASP. Any use, copying, and all ot
   COPYR  = If you do not have a valid VASP license, you may not use, copy or di
   VRHFIN =N: s2p3                                                              
   LEXCH  = PE                                                                  
   EATOM  =   264.5486 eV,   19.4438 Ry                                         
                                                                                
   TITEL  = PAW_PBE N 08Apr2002                                                 
   LULTRA =        F    use ultrasoft PP ?                                      
   IUNSCR =        1    unscreen: 0-lin 1-nonlin 2-no                           
   RPACOR =    1.200    partial core radius                                     
   POMASS =   14.001; ZVAL   =    5.000    mass and valenz                      
   RCORE  =    1.500    outmost cutoff radius                                   
   RWIGS  =    1.400; RWIGS  =    0.741    wigner-seitz radius (au A)           
   ENMAX  =  400.000; ENMIN  =  300.000 eV                                      
   ICORE  =        2    local potential                                         
   LCOR   =        T    correct aug charges                                     
   LPAW   =        T    paw PP                                                  
   EAUG   =  627.112                                                            
   DEXC   =    0.000                                                            
   RMAX   =    1.529    core radius for proj-oper                               
   RAUG   =    1.300    factor for augmentation sphere                          
   RDEP   =    1.514    radius for radial grids                                 
   RDEPT  =    1.338    core radius for aug-charge                              
                                                                                
   Atomic configuration                                                         
    4 entries                                                                   
     n  l   j            E        occ.                                          
     1  0  0.50      -384.7179   2.0000                                         
     2  0  0.50       -18.5828   2.0000                                         
     2  1  0.50        -7.0898   3.0000                                         
     3  2  1.50        -6.8029   0.0000                                         
   Description                                                                  
     l       E           TYP  RCUT    TYP  RCUT                                 
     0    -18.5828119     23  1.200                                             
     0    -13.5018863     23  1.200                                             
     1     -7.0897853     23  1.500                                             
     1      9.5240782     23  1.500                                             
     2     -6.8029130      7  1.500                                             
  local pseudopotential read in
  partial core-charges read in
  partial kinetic energy density read in
  atomic valenz-charges read in
  non local Contribution for L=           0  read in
    real space projection operators read in
  non local Contribution for L=           0  read in
    real space projection operators read in
  non local Contribution for L=           1  read in
    real space projection operators read in
  non local Contribution for L=           1  read in
    real space projection operators read in
    PAW grid and wavefunctions read in

   number of l-projection  operators is LMAX  =           4
   number of lm-projection operators is LMMAX =           8

 POTCAR:    PAW_PBE Ge_d 03Jul2007                
   SHA256 =  944b26c40d2d7c4f4eb1ff3a2e8dbfdd7129146276cd341854bfd5c0e57780ed Ge
   COPYR  = (c) Copyright 03Jul2007 Georg Kresse                                
   COPYR  = This file is part of the software VASP. Any use, copying, and all ot
   COPYR  = If you do not have a valid VASP license, you may not use, copy or di
   VRHFIN =Ge: 3d4s4p                                                           
   LEXCH  = PE                                                                  
   EATOM  =  2596.2402 eV,  190.8183 Ry                                         
                                                                                
   TITEL  = PAW_PBE Ge_d 03Jul2007                                              
   LULTRA =        F    use ultrasoft PP ?                                      
   IUNSCR =        1    unscreen: 0-lin 1-nonlin 2-no                           
   RPACOR =    2.000    partial core radius                                     
   POMASS =   72.610; ZVAL   =   14.000    mass and valenz                      
   RCORE  =    2.300    outmost cutoff radius                                   
   RWIGS  =    2.300; RWIGS  =    1.217    wigner-seitz radius (au A)           
   ENMAX  =  310.294; ENMIN  =  232.720 eV                                      
   ICORE  =        3    local potential                                         
   LCOR   =        T    correct aug charges                                     
   LPAW   =        T    paw PP                                                  
   EAUG   =  531.356                                                            
   DEXC   =    0.000                                                            
   RMAX   =    2.342    core radius for proj-oper                               
   RAUG   =    1.300    factor for augmentation sphere                          
   RDEP   =    2.318    radius for radial grids                                 
   RDEPT  =    1.783    core radius for aug-charge                              
                                                                                
   Atomic configuration                                                         
    9 entries                                                                   
     n  l   j            E        occ.                                          
     1  0  0.50    -10959.8463   2.0000                                         
     2  0  0.50     -1371.6056   2.0000                                         
     2  1  1.50     -1198.4791   6.0000                                         
     3  0  0.50      -168.4733   2.0000                                         
     3  1  1.50      -115.6019   6.0000                                         
     3  2  2.50       -29.3106  10.0000                                         
     4  0  0.50       -11.7309   2.0000                                         
     4  1  0.50        -3.8952   2.0000                                         
     4  3  2.50        -4.0817   0.0000                                         
   Description                                                                  
     l       E           TYP  RCUT    TYP  RCUT                                 
     2    -29.3105938     23  2.200                                             
     2    -13.6058260     23  2.200                                             
     0    -11.7309493     23  2.300                                             
     0     -7.4578696     23  2.300                                             
     1     -3.8952261     23  2.300                                             
     1      6.1178114     23  2.300                                             
     3     -1.3605826     23  2.300                                             
  local pseudopotential read in
  partial core-charges read in
  partial kinetic energy density read in
  atomic valenz-charges read in
  non local Contribution for L=           2  read in
    real space projection operators read in
  non local Contribution for L=           2  read in
    real space projection operators read in
  non local Contribution for L=           0  read in
    real space projection operators read in
  non local Contribution for L=           0  read in
    real space projection operators read in
  non local Contribution for L=           1  read in
    real space projection operators read in
  non local Contribution for L=           1  read in
    real space projection operators read in
    PAW grid and wavefunctions read in

   number of l-projection  operators is LMAX  =           6
   number of lm-projection operators is LMMAX =          18

 POTCAR:    PAW_PBE C 08Apr2002                   
   SHA256 =  253f7b50bb8d59471dbedb8285d89021f4a42ed1a2c5d38a03a736e69125dd95 C/
   COPYR  = (c) Copyright 08Apr2002 Georg Kresse                                
   COPYR  = This file is part of the software VASP. Any use, copying, and all ot
   COPYR  = If you do not have a valid VASP license, you may not use, copy or di
   VRHFIN =C: s2p2                                                              
   LEXCH  = PE                                                                  
   EATOM  =   147.1560 eV,   10.8157 Ry                                         
                                                                                
   TITEL  = PAW_PBE C 08Apr2002                                                 
   LULTRA =        F    use ultrasoft PP ?                                      
   IUNSCR =        1    unscreen: 0-lin 1-nonlin 2-no                           
   RPACOR =    1.200    partial core radius                                     
   POMASS =   12.011; ZVAL   =    4.000    mass and valenz                      
   RCORE  =    1.500    outmost cutoff radius                                   
   RWIGS  =    1.630; RWIGS  =    0.863    wigner-seitz radius (au A)           
   ENMAX  =  400.000; ENMIN  =  300.000 eV                                      
   ICORE  =        2    local potential                                         
   LCOR   =        T    correct aug charges                                     
   LPAW   =        T    paw PP                                                  
   EAUG   =  644.873                                                            
   DEXC   =    0.000                                                            
   RMAX   =    1.529    core radius for proj-oper                               
   RAUG   =    1.300    factor for augmentation sphere                          
   RDEP   =    1.501    radius for radial grids                                 
   RDEPT  =    1.300    core radius for aug-charge                              
                                                                                
   Atomic configuration                                                         
    4 entries                                                                   
     n  l   j            E        occ.                                          
     1  0  0.50      -273.3789   2.0000                                         
     2  0  0.50       -13.7508   2.0000                                         
     2  1  0.50        -5.2854   2.0000                                         
     3  2  1.50        -5.4423   0.0000                                         
   Description                                                                  
     l       E           TYP  RCUT    TYP  RCUT                                 
     0    -13.7508458     23  1.200                                             
     0     -8.2022199     23  1.200                                             
     1     -5.2854383     23  1.500                                             
     1     34.0145650     23  1.500                                             
     2     -5.4423304      7  1.500                                             
  local pseudopotential read in
  partial core-charges read in
  partial kinetic energy density read in
  atomic valenz-charges read in
  non local Contribution for L=           0  read in
    real space projection operators read in
  non local Contribution for L=           0  read in
    real space projection operators read in
  non local Contribution for L=           1  read in
    real space projection operators read in
  non local Contribution for L=           1  read in
    real space projection operators read in
    PAW grid and wavefunctions read in

   number of l-projection  operators is LMAX  =           4
   number of lm-projection operators is LMMAX =           8

 POTCAR:    PAW_PBE O 08Apr2002                   
   SHA256 =  818f92134a0a090dccd8ba1447fa70422a3b330e708bb4f08108d8ae51209ddf O/
   COPYR  = (c) Copyright 08Apr2002 Georg Kresse                                
   COPYR  = This file is part of the software VASP. Any use, copying, and all ot
   COPYR  = If you do not have a valid VASP license, you may not use, copy or di
   VRHFIN =O: s2p4                                                              
   LEXCH  = PE                                                                  
   EATOM  =   432.3788 eV,   31.7789 Ry                                         
                                                                                
   TITEL  = PAW_PBE O 08Apr2002                                                 
   LULTRA =        F    use ultrasoft PP ?                                      
   IUNSCR =        1    unscreen: 0-lin 1-nonlin 2-no                           
   RPACOR =    1.200    partial core radius                                     
   POMASS =   16.000; ZVAL   =    6.000    mass and valenz                      
   RCORE  =    1.520    outmost cutoff radius                                   
   RWIGS  =    1.550; RWIGS  =    0.820    wigner-seitz radius (au A)           
   ENMAX  =  400.000; ENMIN  =  300.000 eV                                      
   ICORE  =        2    local potential                                         
   LCOR   =        T    correct aug charges                                     
   LPAW   =        T    paw PP                                                  
   EAUG   =  605.392                                                            
   DEXC   =    0.000                                                            
   RMAX   =    1.553    core radius for proj-oper                               
   RAUG   =    1.300    factor for augmentation sphere                          
   RDEP   =    1.550    radius for radial grids                                 
   RDEPT  =    1.329    core radius for aug-charge                              
                                                                                
   Atomic configuration                                                         
    4 entries                                                                   
     n  l   j            E        occ.                                          
     1  0  0.50      -514.6923   2.0000                                         
     2  0  0.50       -23.9615   2.0000                                         
     2  1  0.50        -9.0305   4.0000                                         
     3  2  1.50        -9.5241   0.0000                                         
   Description                                                                  
     l       E           TYP  RCUT    TYP  RCUT                                 
     0    -23.9615318     23  1.200                                             
     0     -9.5240782     23  1.200                                             
     1     -9.0304911     23  1.520                                             
     1      8.1634956     23  1.520                                             
     2     -9.5240782      7  1.500                                             
  local pseudopotential read in
  partial core-charges read in
  partial kinetic energy density read in
  kinetic energy density of atom read in
  atomic valenz-charges read in
  non local Contribution for L=           0  read in
    real space projection operators read in
  non local Contribution for L=           0  read in
    real space projection operators read in
  non local Contribution for L=           1  read in
    real space projection operators read in
  non local Contribution for L=           1  read in
    real space projection operators read in
    PAW grid and wavefunctions read in

   number of l-projection  operators is LMAX  =           4
   number of lm-projection operators is LMMAX =           8


 ----------------------------------------------------------------------------- 
|                                                                             |
|  ADVICE TO THIS USER RUNNING 'VASP/VAMP'   (HEAR YOUR MASTER'S VOICE ...):  |
|                                                                             |
|      You have a (more or less) 'large supercell' and for larger cells       |
|      it might be more efficient to use real space projection opertators     |
|      So try LREAL= Auto  in the INCAR   file.                               |
|      Mind:          For very  accurate calculation you might also keep the  |
|      reciprocal projection scheme          (i.e. LREAL=.FALSE.)             |
|                                                                             |
 ----------------------------------------------------------------------------- 

  PAW_PBE C 08Apr2002                   :
 energy of atom  1       EATOM= -147.1560
 kinetic energy error for atom=    0.0132 (will be added to EATOM!!)
  PAW_PBE N 08Apr2002                   :
 energy of atom  2       EATOM= -264.5486
 kinetic energy error for atom=    0.0298 (will be added to EATOM!!)
  PAW_PBE Ge_d 03Jul2007                :
 energy of atom  3       EATOM=-2596.2402
 kinetic energy error for atom=    0.0090 (will be added to EATOM!!)
  PAW_PBE C 08Apr2002                   :
 energy of atom  4       EATOM= -147.1560
 kinetic energy error for atom=    0.0132 (will be added to EATOM!!)
  PAW_PBE O 08Apr2002                   :
 energy of atom  5       EATOM= -432.3788
 kinetic energy error for atom=    0.0458 (will be added to EATOM!!)


 POSCAR: POSCAR-c3n4                             
  positions in cartesian coordinates
  No initial velocities read in
 exchange correlation table for  LEXCH =        8
   RHO(1)=    0.500       N(1)  =     2000
   RHO(2)=  100.500       N(2)  =     4000



--------------------------------------------------------------------------------------------------------


 ion  position               nearest neighbor table
   1  0.106  0.214  0.436-  26 1.37  46 1.37  25 1.44
   2  0.288  0.399  0.443-  29 1.35  35 1.41  25 1.46
   3  0.104  0.392  0.437-  44 1.34  39 1.41  25 1.46
   4  0.447  0.064  0.516-  30 1.35  27 1.36  48 1.44
   5  0.453  0.401  0.422-  28 1.36  29 1.37  56 1.45
   6  0.112  0.053  0.459-  26 1.35  31 1.36  32 1.43
   7  0.096  0.712  0.494-  54 1.36  34 1.38  33 1.43
   8  0.284  0.890  0.511-  27 1.36  37 1.38  33 1.44
   9  0.109  0.895  0.508-  31 1.35  52 1.37  33 1.46
  10  0.448  0.548  0.512-  38 1.35  56 1.38  35 1.39
  11  0.445  0.885  0.499-  37 1.36  36 1.37  48 1.41
  12  0.087  0.542  0.491-  34 1.35  40 1.37  39 1.38
  13  0.616  0.223  0.483-  42 1.38  30 1.38  41 1.43
  14  0.780  0.390  0.410-  45 1.38  51 1.39  41 1.43
  15  0.610  0.394  0.445-  28 1.37  55 1.37  41 1.48
  16  0.940  0.052  0.471-  46 1.34  43 1.36  32 1.42
  17  0.941  0.387  0.404-  45 1.35  44 1.37  40 1.45
  18  0.623  0.066  0.522-  42 1.35  47 1.37  48 1.44
  19  0.613  0.711  0.541-  50 1.35  38 1.39  49 1.44
  20  0.790  0.897  0.533-  43 1.35  53 1.37  49 1.48
  21  0.609  0.892  0.531-  47 1.36  36 1.37  49 1.47
  22  0.938  0.563  0.430-  51 1.33  54 1.37  40 1.45
  23  0.954  0.902  0.545-  52 1.37  53 1.37  32 1.43
  24  0.621  0.555  0.500-  55 1.34  50 1.36  56 1.44
  25  0.167  0.335  0.435-   1 1.44   3 1.46   2 1.46
  26  0.165  0.161  0.431-   6 1.35   1 1.37
  27  0.336  0.002  0.532-   8 1.36   4 1.36
  28  0.512  0.352  0.402-   5 1.36  15 1.37
  29  0.345  0.361  0.400-   2 1.35   5 1.37
  30  0.506  0.177  0.503-   4 1.35  13 1.38
  31  0.159  0.988  0.457-   9 1.35   6 1.36
  32  0.002  0.002  0.493-  16 1.42  23 1.43   6 1.43
  33  0.165  0.831  0.510-   7 1.43   8 1.44   9 1.46
  34  0.134  0.645  0.528-  12 1.35   7 1.38
  35  0.334  0.491  0.501-  10 1.39   2 1.41  57 2.10
  36  0.503  0.831  0.500-  11 1.37  21 1.37
  37  0.333  0.829  0.489-  11 1.36   8 1.38
  38  0.499  0.648  0.555-  10 1.35  19 1.39
  39  0.142  0.484  0.495-  12 1.38   3 1.41  57 2.12
  40  0.988  0.496  0.446-  12 1.37  22 1.45  17 1.45
  41  0.667  0.330  0.439-  13 1.43  14 1.43  15 1.48
  42  0.680  0.178  0.505-  18 1.35  13 1.38
  43  0.827  0.986  0.478-  20 1.35  16 1.36
  44  0.011  0.348  0.389-   3 1.34  17 1.37
  45  0.830  0.330  0.389-  17 1.35  14 1.38
  46  0.993  0.161  0.445-  16 1.34   1 1.37
  47  0.669  0.005  0.549-  21 1.36  18 1.37
  48  0.505  0.004  0.508-  11 1.41  18 1.44   4 1.44
  49  0.668  0.832  0.544-  19 1.44  21 1.47  20 1.48
  50  0.675  0.666  0.522-  19 1.35  24 1.36
  51  0.832  0.507  0.406-  22 1.33  14 1.39
  52  0.016  0.853  0.559-  23 1.37   9 1.37
  53  0.849  0.860  0.576-  20 1.37  23 1.37
  54  0.004  0.677  0.444-   7 1.36  22 1.37
  55  0.668  0.491  0.494-  24 1.34  15 1.37
  56  0.506  0.502  0.477-  10 1.38  24 1.44   5 1.45
  57  0.287  0.593  0.568-  35 2.10  39 2.12
  58  0.287  0.593  0.966-  59 1.18
  59  0.232  0.530  0.023-  58 1.18


IMPORTANT INFORMATION: All symmetrisations will be switched off!
NOSYMM: (Re-)initialisation of all symmetry stuff for point group C_1.



 KPOINTS: K-Points                                

Automatic generation of k-mesh.
Space group operators:
 irot       det(A)        alpha          n_x          n_y          n_z        tau_x        tau_y        tau_z
    1     1.000000     0.000000     1.000000     0.000000     0.000000     0.000000     0.000000     0.000000
 
 Subroutine IBZKPT returns following result:
 ===========================================
 
 Found      5 irreducible k-points:
 
 Following reciprocal coordinates:
            Coordinates               Weight
  0.000000  0.000000  0.000000      1.000000
  0.333333  0.000000  0.000000      2.000000
  0.000000  0.333333  0.000000      2.000000
  0.333333  0.333333  0.000000      2.000000
 -0.333333  0.333333  0.000000      2.000000
 
 Following cartesian coordinates:
            Coordinates               Weight
  0.000000  0.000000  0.000000      1.000000
  0.024277  0.014368  0.000000      2.000000
  0.000396  0.028736  0.000000      2.000000
  0.024673  0.043104  0.000000      2.000000
 -0.023881  0.014368  0.000000      2.000000
 
 TETIRR: Found     24 inequivalent tetrahedra from       54


--------------------------------------------------------------------------------------------------------




 Dimension of arrays:
   k-points           NKPTS =      5   k-points in BZ     NKDIM =      5   number of bands    NBANDS=    172
   number of dos      NEDOS =   4000   number of ions     NIONS =     59
   non local maximal  LDIM  =      6   non local SUM 2l+1 LMDIM =     18
   total plane-waves  NPLWV = 414720
   max r-space proj   IRMAX =      1   max aug-charges    IRDMAX=   5655
   dimension x,y,z NGX =    72 NGY =   72 NGZ =   80
   dimension x,y,z NGXF=   144 NGYF=  144 NGZF=  160
   support grid    NGXF=   144 NGYF=  144 NGZF=  160
   ions per type =              24  32   1   1   1
   NGX,Y,Z   is equivalent  to a cutoff of   8.48,  8.64,  8.69 a.u.
   NGXF,Y,Z  is equivalent  to a cutoff of  16.95, 17.27, 17.39 a.u.

 SYSTEM =  unknown system                          
 POSCAR =  POSCAR-c3n4                             

 Startparameter for this run:
   NWRITE =      2    write-flag & timer
   PREC   = normal    normal or accurate (medium, high low for compatibility)
   ISTART =      0    job   : 0-new  1-cont  2-samecut
   ICHARG =      2    charge: 1-file 2-atom 10-const
   ISPIN  =      2    spin polarized calculation?
   LNONCOLLINEAR =      F non collinear calculations
   LSORBIT =      F    spin-orbit coupling
   INIWAV =      1    electr: 0-lowe 1-rand  2-diag
   LASPH  =      F    aspherical Exc in radial PAW
   METAGGA=      F    non-selfconsistent MetaGGA calc.

 Electronic Relaxation 1
   ENCUT  =  440.0 eV  32.34 Ry    5.69 a.u.  24.15 23.71 26.17*2*pi/ulx,y,z
   ENINI  =  440.0     initial cutoff
   ENAUG  =  644.9 eV  augmentation charge cutoff
   NELM   =    100;   NELMIN=  2; NELMDL= -5     # of ELM steps 
   EDIFF  = 0.1E-03   stopping-criterion for ELM
   LREAL  =      F    real-space projection
   NLSPLINE    = F    spline interpolate recip. space projectors
   LCOMPAT=      F    compatible to vasp.4.4
   GGA_COMPAT  = T    GGA compatible to vasp.4.4-vasp.4.6
   LMAXPAW     = -100 max onsite density
   LMAXMIX     =    2 max onsite mixed and CHGCAR
   VOSKOWN=      0    Vosko Wilk Nusair interpolation
   ROPT   =    0.00000   0.00000   0.00000   0.00000
   ROPT   =    0.00000
 Ionic relaxation
   EDIFFG = -.1E-01   stopping-criterion for IOM
   NSW    =      0    number of steps for IOM
   NBLOCK =      1;   KBLOCK =      1    inner block; outer block 
   IBRION =     -1    ionic relax: 0-MD 1-quasi-New 2-CG
   NFREE  =      0    steps in history (QN), initial steepest desc. (CG)
   ISIF   =      2    stress and relaxation
   IWAVPR =     10    prediction:  0-non 1-charg 2-wave 3-comb
   ISYM   =      0    0-nonsym 1-usesym 2-fastsym
   LCORR  =      T    Harris-Foulkes like correction to forces

   POTIM  = 0.5000    time-step for ionic-motion
   TEIN   =    0.0    initial temperature
   TEBEG  =    0.0;   TEEND  =   0.0 temperature during run
   SMASS  =  -3.00    Nose mass-parameter (am)
   estimated Nose-frequenzy (Omega)   =  0.10E-29 period in steps =****** mass=  -0.456E-26a.u.
   SCALEE = 1.0000    scale energy and forces
   NPACO  =    256;   APACO  = 16.0  distance and # of slots for P.C.
   PSTRESS=    0.0 pullay stress

  Mass of Ions in am
   POMASS =  12.01 14.00 72.61 12.01 16.00
  Ionic Valenz
   ZVAL   =   4.00  5.00 14.00  4.00  6.00
  Atomic Wigner-Seitz radii
   RWIGS  =  -1.00 -1.00 -1.00 -1.00 -1.00
  virtual crystal weights 
   VCA    =   1.00  1.00  1.00  1.00  1.00
   NELECT =     280.0000    total number of electrons
   NUPDOWN=      -1.0000    fix difference up-down

 DOS related values:
   EMIN   = -14.00;   EMAX   =  6.00  energy-range for DOS
   EFERMI =   0.00
   ISMEAR =    -5;   SIGMA  =   0.20  broadening in eV -4-tet -1-fermi 0-gaus

 Electronic relaxation 2 (details)
   IALGO  =     38    algorithm
   LDIAG  =      T    sub-space diagonalisation (order eigenvalues)
   LSUBROT=      F    optimize rotation matrix (better conditioning)
   TURBO    =      0    0=normal 1=particle mesh
   IRESTART =      0    0=no restart 2=restart with 2 vectors
   NREBOOT  =      0    no. of reboots
   NMIN     =      0    reboot dimension
   EREF     =   0.00    reference energy to select bands
   IMIX   =      4    mixing-type and parameters
     AMIX     =   0.25;   BMIX     =  0.00
     AMIX_MAG =   1.00;   BMIX_MAG =  0.00
     AMIN     =   0.10
     WC   =   100.;   INIMIX=   1;  MIXPRE=   1;  MAXMIX= -45

 Intra band minimization:
   WEIMIN = 0.0000     energy-eigenvalue tresh-hold
   EBREAK =  0.15E-06  absolut break condition
   DEPER  =   0.30     relativ break condition  

   TIME   =   0.40     timestep for ELM

  volume/ion in A,a.u.               =      43.32       292.37
  Fermi-wavevector in a.u.,A,eV,Ry     =   0.783307  1.480236  8.348124  0.613570
  Thomas-Fermi vector in A             =   1.887209

 Write flags
   LWAVE        =      F    write WAVECAR
   LDOWNSAMPLE  =      F    k-point downsampling of WAVECAR
   LCHARG       =      F    write CHGCAR
   LVTOT        =      F    write LOCPOT, total local potential
   LVHAR        =      F    write LOCPOT, Hartree potential only
   LELF         =      F    write electronic localiz. function (ELF)
   LORBIT       =     11    0 simple, 1 ext, 2 COOP (PROOUT), +10 PAW based schemes


 Dipole corrections
   LMONO  =      F    monopole corrections only (constant potential shift)
   LDIPOL =      F    correct potential (dipole corrections)
   IDIPOL =      0    1-x, 2-y, 3-z, 4-all directions 
   EPSILON=  1.0000000 bulk dielectric constant

 Exchange correlation treatment:
   GGA     =    --    GGA type
   LEXCH   =     8    internal setting for exchange type
   VOSKOWN=      0    Vosko Wilk Nusair interpolation
   LHFCALC =     F    Hartree Fock is set to
   LHFONE  =     F    Hartree Fock one center treatment
   AEXX    =    0.0000 exact exchange contribution

 Linear response parameters
   LEPSILON=     F    determine dielectric tensor
   LRPA    =     F    only Hartree local field effects (RPA)
   LNABLA  =     F    use nabla operator in PAW spheres
   LVEL    =     F    velocity operator in full k-point grid
   LINTERFAST=   F  fast interpolation
   KINTER  =     0    interpolate to denser k-point grid
   CSHIFT  =0.1000    complex shift for real part using Kramers Kronig
   OMEGAMAX=  -1.0    maximum frequency
   DEG_THRESHOLD= 0.2000000E-02 threshold for treating states as degnerate
   RTIME   =   -0.100 relaxation time in fs
  (WPLASMAI=    0.000 imaginary part of plasma frequency in eV, 0.658/RTIME)
   DFIELD  = 0.0000000 0.0000000 0.0000000 field for delta impulse in time

 Orbital magnetization related:
   ORBITALMAG=     F  switch on orbital magnetization
   LCHIMAG   =     F  perturbation theory with respect to B field
   DQ        =  0.001000  dq finite difference perturbation B field
   LLRAUG    =     F  two centre corrections for induced B field



--------------------------------------------------------------------------------------------------------


 Static calculation
 charge density and potential will be updated during run
 spin polarized calculation
 Variant of blocked Davidson
 Davidson routine will perform the subspace rotation
 perform sub-space diagonalisation
    after iterative eigenvector-optimisation
 modified Broyden-mixing scheme, WC =      100.0
 initial mixing is a Kerker type mixing with AMIX =  0.2500 and BMIX =      0.0001
 Hartree-type preconditioning will be used
 using additional bands           32
 reciprocal scheme for non local part
 use partial core corrections
 calculate Harris-corrections to forces   (improved forces if not selfconsistent)
 use gradient corrections 
 use of overlap-Matrix (Vanderbilt PP)
 Fermi weights with tetrahedron method with Bloechl corrections


--------------------------------------------------------------------------------------------------------


  energy-cutoff  :      440.00
  volume of cell :     2556.15
      direct lattice vectors                 reciprocal lattice vectors
    14.120292719 -0.194555283  0.000000000     0.071402323  0.042258936 -0.000000000
    -7.060146360 11.929094814  0.000000000     0.001164522  0.084517871 -0.000000000
     0.000000000  0.000000000 15.300000000    -0.000000000 -0.000000000  0.065359477

  length of vectors
    14.121632988 13.861780899 15.300000000     0.082970533  0.084525893  0.065359477



 k-points in units of 2pi/SCALE and weight: K-Points                                
   0.00000000  0.00000000  0.00000000       0.111
   0.02427679  0.01436804  0.00000000       0.222
   0.00039594  0.02873608  0.00000000       0.222
   0.02467273  0.04310411  0.00000000       0.222
  -0.02388085  0.01436804  0.00000000       0.222

 k-points in reciprocal lattice and weights: K-Points                                
   0.00000000  0.00000000  0.00000000       0.111
   0.33333333  0.00000000  0.00000000       0.222
   0.00000000  0.33333333  0.00000000       0.222
   0.33333333  0.33333333  0.00000000       0.222
  -0.33333333  0.33333333  0.00000000       0.222

 position of ions in fractional coordinates (direct lattice) 
   0.10567936  0.21351909  0.43638452
   0.28750403  0.39866334  0.44307848
   0.10379301  0.39177313  0.43720774
   0.44732828  0.06383887  0.51561413
   0.45258916  0.40124889  0.42244582
   0.11203481  0.05273921  0.45860169
   0.09638015  0.71191070  0.49382164
   0.28433946  0.89006364  0.51112159
   0.10941441  0.89537413  0.50804572
   0.44792521  0.54827090  0.51182417
   0.44544784  0.88520183  0.49889037
   0.08690842  0.54210436  0.49059155
   0.61614813  0.22292684  0.48262487
   0.78023735  0.38968276  0.40980308
   0.61037743  0.39432339  0.44538198
   0.93951642  0.05229783  0.47062057
   0.94071854  0.38652888  0.40380040
   0.62278394  0.06558106  0.52195204
   0.61322902  0.71118454  0.54116914
   0.78984871  0.89727295  0.53280047
   0.60944297  0.89248269  0.53124739
   0.93832005  0.56283419  0.43042990
   0.95436023  0.90171878  0.54458488
   0.62130548  0.55465507  0.49978063
   0.16668926  0.33545237  0.43494871
   0.16473950  0.16097029  0.43087242
   0.33626584  0.00180669  0.53207802
   0.51175722  0.35246859  0.40230650
   0.34471728  0.36074551  0.39967324
   0.50565751  0.17673507  0.50307206
   0.15873210  0.98821904  0.45657691
   0.00214731  0.00186372  0.49276218
   0.16462634  0.83083069  0.51017993
   0.13400723  0.64526801  0.52770834
   0.33371346  0.49116238  0.50147098
   0.50288345  0.83078126  0.49964378
   0.33307237  0.82932770  0.48929409
   0.49902190  0.64803204  0.55475412
   0.14173676  0.48364631  0.49503647
   0.98839512  0.49595573  0.44590834
   0.66736443  0.33015381  0.43923807
   0.67970142  0.17802103  0.50515807
   0.82720183  0.98622484  0.47776955
   0.01097216  0.34809993  0.38872280
   0.83047981  0.33016544  0.38944898
   0.99296173  0.16101876  0.44505124
   0.66886761  0.00524437  0.54940128
   0.50484899  0.00388347  0.50822952
   0.66830364  0.83227641  0.54411956
   0.67536455  0.66551462  0.52238502
   0.83211404  0.50666912  0.40566699
   0.01584380  0.85299492  0.55859758
   0.84924332  0.85956436  0.57597004
   0.00424175  0.67726383  0.44447513
   0.66753141  0.49127771  0.49374111
   0.50565566  0.50179634  0.47708161
   0.28676550  0.59288202  0.56771515
   0.28676550  0.59288202  0.96638181
   0.23209909  0.52992702  0.02273763

 position of ions in cartesian coordinates  (Angst):
  -0.01525247  2.52652894  6.67668310
   1.24501949  4.69975734  6.77910071
  -1.30038803  4.65330535  6.68927835
   5.86569451  0.67450982  7.88889619
   3.55781544  4.69848248  6.46342112
   1.20961778  0.60733411  7.01660579
  -3.66527783  8.47369899  7.55547103
  -2.26902319 10.56233379  7.82016028
  -4.77650898 10.65971576  7.77309956
   2.45396233  6.45322935  7.83090983
   0.04019945 10.47299235  7.63302266
  -2.60016387  6.44990587  7.50605073
   7.12629583  2.53944055  7.38416053
   8.26596240  4.49676333  6.26998718
   5.83472707  4.58516899  6.81434425
  12.89701659  0.44107786  7.20049467
  10.55427072  4.42791793  6.17814606
   8.33087965  0.66115672  7.98586624
   3.63790638  8.36448089  8.27988787
   4.81801661 10.54998489  8.15184719
   2.30445469 10.52794023  8.12808502
   9.27566200  6.53154734  6.58557755
   7.10957918 10.57101302  8.33214864
   4.85706931  6.49565469  7.64664365
  -0.01464168  3.96921287  6.65471530
   1.18969621  1.88817887  6.59234807
   4.73541655 -0.04387015  8.14079372
   4.73768198  4.10506612  6.15528944
   2.32059277  4.23630084  6.11500054
   5.89225654  2.00991112  7.69700255
  -4.73562742 11.75767647  6.98562668
   0.01716253  0.02181472  7.53926132
  -3.54121407  9.87902912  7.80575289
  -2.66346527  7.67139143  8.07393762
   1.24445351  5.79419684  7.67250605
   1.23542426  9.81262973  7.64454982
  -1.15209560  9.82832776  7.48619953
   2.47113426  7.63334831  8.48773798
  -1.41324920  5.74188700  7.57405793
  10.45490840  5.72400547  6.82239762
   7.09244689  3.80859686  6.72034241
   8.34072854  1.99139023  7.72891853
   4.71744032 11.60383312  7.30987415
  -2.30270635  4.15038232  5.94745891
   9.39560165  3.77700060  5.95856932
  12.88409422  1.72762209  6.80928397
   9.40758052 -0.06757119  8.40583960
   7.10119768 -0.05189476  7.77591172
   3.56064983  9.79828218  8.32502924
   4.83771447  7.80759128  7.99249085
   8.17253562  5.88221182  6.20670501
  -5.79854994 10.17237480  8.54654293
   5.92291407 10.08860003  8.81234167
  -4.72168707  8.07831922  6.80046956
   5.95724630  5.73062663  7.55423901
   3.59725030  5.88759818  7.29934866
  -0.13662106  7.01675414  8.68604176
  -0.13662106  7.01675414 14.78564176
  -0.46405529  6.27639358  0.34788568



--------------------------------------------------------------------------------------------------------


 k-point  1 :   0.0000 0.0000 0.0000  plane waves:   53561
 k-point  2 :   0.3333 0.0000 0.0000  plane waves:   53587
 k-point  3 :   0.0000 0.3333 0.0000  plane waves:   53527
 k-point  4 :   0.3333 0.3333 0.0000  plane waves:   53548
 k-point  5 :  -0.3333 0.3333 0.0000  plane waves:   53572

 maximum and minimum number of plane-waves per node :      4486     4442

 maximum number of plane-waves:     53587
 maximum index in each direction: 
   IXMAX=   24   IYMAX=   23   IZMAX=   26
   IXMIN=  -24   IYMIN=  -24   IZMIN=  -26


 parallel 3D FFT for wavefunctions:
    minimum data exchange during FFTs selected (reduces bandwidth)
 parallel 3D FFT for charge:
    minimum data exchange during FFTs selected (reduces bandwidth)


 total amount of memory used by VASP MPI-rank0    94985. kBytes
=======================================================================

   base      :      30000. kBytes
   nonl-proj :      20284. kBytes
   fftplans  :       3433. kBytes
   grid      :      10043. kBytes
   one-center:        155. kBytes
   wavefun   :      31070. kBytes

     INWAV:  cpu time    0.0000: real time    0.0000
 Broyden mixing: mesh for mixing (old mesh)
   NGX = 49   NGY = 47   NGZ = 53
  (NGX  =144   NGY  =144   NGZ  =160)
  gives a total of 122059 points

 initial charge density was supplied:
 charge density of overlapping atoms calculated
 number of electron     280.0000000 magnetization       2.0000000
 keeping initial charge density in first step


--------------------------------------------------------------------------------------------------------


 Maximum index for augmentation-charges          229 (set IRDMAX)


--------------------------------------------------------------------------------------------------------


 First call to EWALD:  gamma=   0.130
 Maximum number of real-space cells 3x 3x 3
 Maximum number of reciprocal cells 3x 3x 3

    FEWALD:  cpu time    0.0118: real time    0.0118


--------------------------------------- Iteration      1(   1)  ---------------------------------------


    POTLOK:  cpu time    0.1569: real time    0.1699
    SETDIJ:  cpu time    0.0109: real time    0.0109
     EDDAV:  cpu time   13.1488: real time   13.1544
 BZINTS: Fermi energy:  8.787333;280.000000 electrons
         Band energy:***********;  BLOECHL correction: -0.009254
       DOS:  cpu time    0.1613: real time    0.1613
    --------------------------------------------
      LOOP:  cpu time   13.4779: real time   13.4966

 eigenvalue-minimisations  :  3920
 total energy-change (2. order) : 0.2601083E+04  (-0.1035547E+05)
 number of electron     280.0000000 magnetization       2.0000000
 augmentation part      280.0000000 magnetization       2.0000000

 Free energy of the ion-electron system (eV)
  ---------------------------------------------------
  alpha Z        PSCENC =       145.77389662
  Ewald energy   TEWEN  =     25241.21720509
  -Hartree energ DENC   =    -37227.37427699
  -exchange      EXHF   =         0.00000000
  -V(xc)+E(xc)   XCENC  =      1059.86241968
  PAW double counting   =     11453.83848114   -11942.90478952
  entropy T*S    EENTRO =         0.00000000
  eigenvalues    EBANDS =     -1301.06609071
  atomic energy  EATOM  =     15171.73615219
  Solvation  Ediel_sol  =         0.00000000
  ---------------------------------------------------
  free energy    TOTEN  =      2601.08299749 eV

  energy without entropy =     2601.08299749  energy(sigma->0) =     2601.08299749


--------------------------------------------------------------------------------------------------------




--------------------------------------- Iteration      1(   2)  ---------------------------------------


     EDDAV:  cpu time   15.3117: real time   15.3170
 BZINTS: Fermi energy: -0.220930;280.000000 electrons
         Band energy:***********;  BLOECHL correction:  0.000000
       DOS:  cpu time    0.0153: real time    0.0153
    --------------------------------------------
      LOOP:  cpu time   15.3270: real time   15.3324

 eigenvalue-minimisations  :  4792
 total energy-change (2. order) :-0.2571270E+04  (-0.2473458E+04)
 number of electron     280.0000000 magnetization       2.0000000
 augmentation part      280.0000000 magnetization       2.0000000

 Free energy of the ion-electron system (eV)
  ---------------------------------------------------
  alpha Z        PSCENC =       145.77389662
  Ewald energy   TEWEN  =     25241.21720509
  -Hartree energ DENC   =    -37227.37427699
  -exchange      EXHF   =         0.00000000
  -V(xc)+E(xc)   XCENC  =      1059.86241968
  PAW double counting   =     11453.83848114   -11942.90478952
  entropy T*S    EENTRO =         0.00000000
  eigenvalues    EBANDS =     -3872.33578625
  atomic energy  EATOM  =     15171.73615219
  Solvation  Ediel_sol  =         0.00000000
  ---------------------------------------------------
  free energy    TOTEN  =        29.81330195 eV

  energy without entropy =       29.81330195  energy(sigma->0) =       29.81330195


--------------------------------------------------------------------------------------------------------




--------------------------------------- Iteration      1(   3)  ---------------------------------------


     EDDAV:  cpu time   13.6407: real time   13.6423
 BZINTS: Fermi energy: -3.526132;280.000000 electrons
         Band energy:***********;  BLOECHL correction:  0.000000
       DOS:  cpu time    0.0163: real time    0.0163
    --------------------------------------------
      LOOP:  cpu time   13.6570: real time   13.6586

 eigenvalue-minimisations  :  4120
 total energy-change (2. order) :-0.5284807E+03  (-0.5244634E+03)
 number of electron     280.0000000 magnetization       2.0000000
 augmentation part      280.0000000 magnetization       2.0000000

 Free energy of the ion-electron system (eV)
  ---------------------------------------------------
  alpha Z        PSCENC =       145.77389662
  Ewald energy   TEWEN  =     25241.21720509
  -Hartree energ DENC   =    -37227.37427699
  -exchange      EXHF   =         0.00000000
  -V(xc)+E(xc)   XCENC  =      1059.86241968
  PAW double counting   =     11453.83848114   -11942.90478952
  entropy T*S    EENTRO =         0.00000000
  eigenvalues    EBANDS =     -4400.81643861
  atomic energy  EATOM  =     15171.73615219
  Solvation  Ediel_sol  =         0.00000000
  ---------------------------------------------------
  free energy    TOTEN  =      -498.66735042 eV

  energy without entropy =     -498.66735042  energy(sigma->0) =     -498.66735042


--------------------------------------------------------------------------------------------------------




--------------------------------------- Iteration      1(   4)  ---------------------------------------


     EDDAV:  cpu time   14.1091: real time   14.1104
 BZINTS: Fermi energy: -3.886222;280.000000 electrons
         Band energy:***********;  BLOECHL correction:  0.000000
       DOS:  cpu time    0.0160: real time    0.0160
    --------------------------------------------
      LOOP:  cpu time   14.1251: real time   14.1265

 eigenvalue-minimisations  :  4336
 total energy-change (2. order) :-0.2200920E+02  (-0.2148749E+02)
 number of electron     280.0000000 magnetization       2.0000000
 augmentation part      280.0000000 magnetization       2.0000000

 Free energy of the ion-electron system (eV)
  ---------------------------------------------------
  alpha Z        PSCENC =       145.77389662
  Ewald energy   TEWEN  =     25241.21720509
  -Hartree energ DENC   =    -37227.37427699
  -exchange      EXHF   =         0.00000000
  -V(xc)+E(xc)   XCENC  =      1059.86241968
  PAW double counting   =     11453.83848114   -11942.90478952
  entropy T*S    EENTRO =         0.00000000
  eigenvalues    EBANDS =     -4422.82563829
  atomic energy  EATOM  =     15171.73615219
  Solvation  Ediel_sol  =         0.00000000
  ---------------------------------------------------
  free energy    TOTEN  =      -520.67655009 eV

  energy without entropy =     -520.67655009  energy(sigma->0) =     -520.67655009


--------------------------------------------------------------------------------------------------------




--------------------------------------- Iteration      1(   5)  ---------------------------------------


     EDDAV:  cpu time   15.8111: real time   15.8227
 BZINTS: Fermi energy: -3.926232;280.000000 electrons
         Band energy:***********;  BLOECHL correction:  0.000000
       DOS:  cpu time    0.0161: real time    0.0161
    CHARGE:  cpu time    0.4306: real time    0.4307
    MIXING:  cpu time    0.0034: real time    0.0034
    --------------------------------------------
      LOOP:  cpu time   16.2612: real time   16.2729

 eigenvalue-minimisations  :  5016
 total energy-change (2. order) :-0.9375614E+00  (-0.9285166E+00)
 number of electron     279.9999997 magnetization       0.0000002
 augmentation part       19.8119090 magnetization       0.0318914

 Broyden mixing:
  rms(total) = 0.39624E+01    rms(broyden)= 0.39596E+01
  rms(prec ) = 0.43785E+01
  weight for this iteration     100.00

 Free energy of the ion-electron system (eV)
  ---------------------------------------------------
  alpha Z        PSCENC =       145.77389662
  Ewald energy   TEWEN  =     25241.21720509
  -Hartree energ DENC   =    -37227.37427699
  -exchange      EXHF   =         0.00000000
  -V(xc)+E(xc)   XCENC  =      1059.86241968
  PAW double counting   =     11453.83848114   -11942.90478952
  entropy T*S    EENTRO =         0.00000000
  eigenvalues    EBANDS =     -4423.76319968
  atomic energy  EATOM  =     15171.73615219
  Solvation  Ediel_sol  =         0.00000000
  ---------------------------------------------------
  free energy    TOTEN  =      -521.61411148 eV

  energy without entropy =     -521.61411148  energy(sigma->0) =     -521.61411148


--------------------------------------------------------------------------------------------------------




--------------------------------------- Iteration      1(   6)  ---------------------------------------


    POTLOK:  cpu time    0.1357: real time    0.1362
    SETDIJ:  cpu time    0.0103: real time    0.0103
     EDDAV:  cpu time   14.1563: real time   14.1573
 BZINTS: Fermi energy: -3.681170;280.000000 electrons
         Band energy:***********;  BLOECHL correction:  0.000000
       DOS:  cpu time    0.0158: real time    0.0158
    CHARGE:  cpu time    0.5648: real time    0.5649
    MIXING:  cpu time    0.0045: real time    0.0083
    --------------------------------------------
      LOOP:  cpu time   14.8875: real time   14.8927

 eigenvalue-minimisations  :  4296
 total energy-change (2. order) : 0.2432791E+02  (-0.5558097E+01)
 number of electron     279.9999999 magnetization      -0.0000000
 augmentation part       18.6713127 magnetization       0.0106653

 Broyden mixing:
  rms(total) = 0.24166E+01    rms(broyden)= 0.24162E+01
  rms(prec ) = 0.25861E+01
  weight for this iteration     100.00

 eigenvalues of (default mixing * dielectric matrix)
  average eigenvalue GAMMA=   1.3600
  1.3600

 Free energy of the ion-electron system (eV)
  ---------------------------------------------------
  alpha Z        PSCENC =       145.77389662
  Ewald energy   TEWEN  =     25241.21720509
  -Hartree energ DENC   =    -37499.75592194
  -exchange      EXHF   =         0.00000000
  -V(xc)+E(xc)   XCENC  =      1073.87117846
  PAW double counting   =     14701.17795133   -15192.03007128
  entropy T*S    EENTRO =         0.00000000
  eigenvalues    EBANDS =     -4139.27659633
  atomic energy  EATOM  =     15171.73615219
  Solvation  Ediel_sol  =         0.00000000
  ---------------------------------------------------
  free energy    TOTEN  =      -497.28620586 eV

  energy without entropy =     -497.28620586  energy(sigma->0) =     -497.28620586


--------------------------------------------------------------------------------------------------------




--------------------------------------- Iteration      1(   7)  ---------------------------------------


    POTLOK:  cpu time    0.2153: real time    0.2172
    SETDIJ:  cpu time    0.0140: real time    0.0140
     EDDAV:  cpu time   13.9507: real time   13.9550
 BZINTS: Fermi energy: -3.274819;280.000000 electrons
         Band energy:***********;  BLOECHL correction:  0.000000
       DOS:  cpu time    0.0157: real time    0.0157
    CHARGE:  cpu time    0.4128: real time    0.4129
    MIXING:  cpu time    0.0028: real time    0.0032
    --------------------------------------------
      LOOP:  cpu time   14.6113: real time   14.6179

 eigenvalue-minimisations  :  4264
 total energy-change (2. order) : 0.3806856E+01  (-0.4054609E+01)
 number of electron     279.9999994 magnetization      -0.0000000
 augmentation part       18.3027237 magnetization       0.0006612

 Broyden mixing:
  rms(total) = 0.15939E+01    rms(broyden)= 0.15936E+01
  rms(prec ) = 0.17213E+01
  weight for this iteration     100.00

 eigenvalues of (default mixing * dielectric matrix)
  average eigenvalue GAMMA=   1.4651
  0.9396  1.9906

 Free energy of the ion-electron system (eV)
  ---------------------------------------------------
  alpha Z        PSCENC =       145.77389662
  Ewald energy   TEWEN  =     25241.21720509
  -Hartree energ DENC   =    -37728.46457960
  -exchange      EXHF   =         0.00000000
  -V(xc)+E(xc)   XCENC  =      1083.68563693
  PAW double counting   =     18732.13313086   -19225.46958528
  entropy T*S    EENTRO =         0.00000000
  eigenvalues    EBANDS =     -3914.09120689
  atomic energy  EATOM  =     15171.73615219
  Solvation  Ediel_sol  =         0.00000000
  ---------------------------------------------------
  free energy    TOTEN  =      -493.47935007 eV

  energy without entropy =     -493.47935007  energy(sigma->0) =     -493.47935007


--------------------------------------------------------------------------------------------------------




--------------------------------------- Iteration      1(   8)  ---------------------------------------


    POTLOK:  cpu time    0.1353: real time    0.1357
    SETDIJ:  cpu time    0.0105: real time    0.0105
     EDDAV:  cpu time   13.4472: real time   13.4482
 BZINTS: Fermi energy: -2.805951;280.000000 electrons
         Band energy:***********;  BLOECHL correction:  0.000000
       DOS:  cpu time    0.0157: real time    0.0157
    CHARGE:  cpu time    0.4119: real time    0.4120
    MIXING:  cpu time    0.0029: real time    0.0029
    --------------------------------------------
      LOOP:  cpu time   14.0235: real time   14.0249

 eigenvalue-minimisations  :  4080
 total energy-change (2. order) : 0.1745834E+01  (-0.1526055E+01)
 number of electron     279.9999997 magnetization       0.0000000
 augmentation part       18.0836618 magnetization      -0.0006333

 Broyden mixing:
  rms(total) = 0.11063E+01    rms(broyden)= 0.11061E+01
  rms(prec ) = 0.11812E+01
  weight for this iteration     100.00

 eigenvalues of (default mixing * dielectric matrix)
  average eigenvalue GAMMA=   1.6415
  3.0408  1.2219  0.6618

 Free energy of the ion-electron system (eV)
  ---------------------------------------------------
  alpha Z        PSCENC =       145.77389662
  Ewald energy   TEWEN  =     25241.21720509
  -Hartree energ DENC   =    -37824.62053413
  -exchange      EXHF   =         0.00000000
  -V(xc)+E(xc)   XCENC  =      1087.93257817
  PAW double counting   =     21635.90444210   -22131.33738297
  entropy T*S    EENTRO =         0.00000000
  eigenvalues    EBANDS =     -3818.33987277
  atomic energy  EATOM  =     15171.73615219
  Solvation  Ediel_sol  =         0.00000000
  ---------------------------------------------------
  free energy    TOTEN  =      -491.73351570 eV

  energy without entropy =     -491.73351570  energy(sigma->0) =     -491.73351570


--------------------------------------------------------------------------------------------------------




--------------------------------------- Iteration      1(   9)  ---------------------------------------


    POTLOK:  cpu time    0.1291: real time    0.1361
    SETDIJ:  cpu time    0.0106: real time    0.0106
     EDDAV:  cpu time   15.2553: real time   15.2564
 BZINTS: Fermi energy: -2.629657;280.000000 electrons
         Band energy:***********;  BLOECHL correction:  0.000000
       DOS:  cpu time    0.0151: real time    0.0151
    CHARGE:  cpu time    0.4148: real time    0.4148
    MIXING:  cpu time    0.0030: real time    0.0030
    --------------------------------------------
      LOOP:  cpu time   15.8279: real time   15.8361

 eigenvalue-minimisations  :  4816
 total energy-change (2. order) :-0.1829307E+00  (-0.1555143E+01)
 number of electron     279.9999998 magnetization       0.0000000
 augmentation part       18.1797469 magnetization      -0.0009340

 Broyden mixing:
  rms(total) = 0.62493E+00    rms(broyden)= 0.62463E+00
  rms(prec ) = 0.79713E+00
  weight for this iteration     100.00

 eigenvalues of (default mixing * dielectric matrix)
  average eigenvalue GAMMA=   1.5574
  3.5781  1.2892  0.6811  0.6811

 Free energy of the ion-electron system (eV)
  ---------------------------------------------------
  alpha Z        PSCENC =       145.77389662
  Ewald energy   TEWEN  =     25241.21720509
  -Hartree energ DENC   =    -37893.25632983
  -exchange      EXHF   =         0.00000000
  -V(xc)+E(xc)   XCENC  =      1090.67482975
  PAW double counting   =     25366.93725214   -25866.86125422
  entropy T*S    EENTRO =         0.00000000
  eigenvalues    EBANDS =     -3748.13819811
  atomic energy  EATOM  =     15171.73615219
  Solvation  Ediel_sol  =         0.00000000
  ---------------------------------------------------
  free energy    TOTEN  =      -491.91644637 eV

  energy without entropy =     -491.91644637  energy(sigma->0) =     -491.91644637


--------------------------------------------------------------------------------------------------------




--------------------------------------- Iteration      1(  10)  ---------------------------------------


    POTLOK:  cpu time    0.1354: real time    0.1359
    SETDIJ:  cpu time    0.0105: real time    0.0105
     EDDAV:  cpu time   14.6685: real time   14.6710
 BZINTS: Fermi energy: -2.280820;280.000000 electrons
         Band energy:***********;  BLOECHL correction:  0.000000
       DOS:  cpu time    0.0159: real time    0.0159
    CHARGE:  cpu time    0.4071: real time    0.4071
    MIXING:  cpu time    0.0033: real time    0.0033
    --------------------------------------------
      LOOP:  cpu time   15.2408: real time   15.2438

 eigenvalue-minimisations  :  4568
 total energy-change (2. order) : 0.7127297E+00  (-0.6831547E+00)
 number of electron     279.9999997 magnetization       0.0000000
 augmentation part       18.1618537 magnetization      -0.0009980

 Broyden mixing:
  rms(total) = 0.31743E+00    rms(broyden)= 0.31672E+00
  rms(prec ) = 0.39589E+00
  weight for this iteration     100.00

 eigenvalues of (default mixing * dielectric matrix)
  average eigenvalue GAMMA=   1.4646
  3.8153  1.4236  0.9761  0.5541  0.5541

 Free energy of the ion-electron system (eV)
  ---------------------------------------------------
  alpha Z        PSCENC =       145.77389662
  Ewald energy   TEWEN  =     25241.21720509
  -Hartree energ DENC   =    -37915.24991971
  -exchange      EXHF   =         0.00000000
  -V(xc)+E(xc)   XCENC  =      1091.95893681
  PAW double counting   =     27154.05328071   -27654.06910813
  entropy T*S    EENTRO =         0.00000000
  eigenvalues    EBANDS =     -3726.62416028
  atomic energy  EATOM  =     15171.73615219
  Solvation  Ediel_sol  =         0.00000000
  ---------------------------------------------------
  free energy    TOTEN  =      -491.20371671 eV

  energy without entropy =     -491.20371671  energy(sigma->0) =     -491.20371671


--------------------------------------------------------------------------------------------------------




--------------------------------------- Iteration      1(  11)  ---------------------------------------


    POTLOK:  cpu time    0.1359: real time    0.1369
    SETDIJ:  cpu time    0.0107: real time    0.0107
     EDDAV:  cpu time   14.7408: real time   14.7420
 BZINTS: Fermi energy: -2.364591;280.000000 electrons
         Band energy:***********;  BLOECHL correction:  0.000000
       DOS:  cpu time    0.0156: real time    0.0156
    CHARGE:  cpu time    0.4145: real time    0.4145
    MIXING:  cpu time    0.0038: real time    0.0037
    --------------------------------------------
      LOOP:  cpu time   15.3211: real time   15.3234

 eigenvalue-minimisations  :  4608
 total energy-change (2. order) : 0.5349722E-01  (-0.2895091E+00)
 number of electron     279.9999997 magnetization      -0.0000000
 augmentation part       18.1489539 magnetization      -0.0004701

 Broyden mixing:
  rms(total) = 0.22709E+00    rms(broyden)= 0.22676E+00
  rms(prec ) = 0.30264E+00
  weight for this iteration     100.00

 eigenvalues of (default mixing * dielectric matrix)
  average eigenvalue GAMMA=   1.3941
  3.8230  1.4834  1.0210  1.0210  0.5082  0.5082

 Free energy of the ion-electron system (eV)
  ---------------------------------------------------
  alpha Z        PSCENC =       145.77389662
  Ewald energy   TEWEN  =     25241.21720509
  -Hartree energ DENC   =    -37906.53843282
  -exchange      EXHF   =         0.00000000
  -V(xc)+E(xc)   XCENC  =      1091.80687189
  PAW double counting   =     27876.81257432   -28376.39958422
  entropy T*S    EENTRO =         0.00000000
  eigenvalues    EBANDS =     -3735.55890256
  atomic energy  EATOM  =     15171.73615219
  Solvation  Ediel_sol  =         0.00000000
  ---------------------------------------------------
  free energy    TOTEN  =      -491.15021949 eV

  energy without entropy =     -491.15021949  energy(sigma->0) =     -491.15021949


--------------------------------------------------------------------------------------------------------




--------------------------------------- Iteration      1(  12)  ---------------------------------------


    POTLOK:  cpu time    0.1359: real time    0.1363
    SETDIJ:  cpu time    0.0106: real time    0.0106
     EDDAV:  cpu time   15.7240: real time   15.7251
 BZINTS: Fermi energy: -2.385846;280.000000 electrons
         Band energy:***********;  BLOECHL correction:  0.000000
       DOS:  cpu time    0.0154: real time    0.0154
    CHARGE:  cpu time    0.4185: real time    0.4185
    MIXING:  cpu time    0.0040: real time    0.0040
    --------------------------------------------
      LOOP:  cpu time   16.3085: real time   16.3101

 eigenvalue-minimisations  :  4872
 total energy-change (2. order) : 0.8134780E-01  (-0.1530476E+00)
 number of electron     279.9999996 magnetization      -0.0000000
 augmentation part       18.1203077 magnetization      -0.0001063

 Broyden mixing:
  rms(total) = 0.13804E+00    rms(broyden)= 0.13772E+00
  rms(prec ) = 0.17618E+00
  weight for this iteration     100.00

 eigenvalues of (default mixing * dielectric matrix)
  average eigenvalue GAMMA=   1.3885
  3.7810  2.0119  1.2181  0.8450  0.8450  0.5091  0.5091

 Free energy of the ion-electron system (eV)
  ---------------------------------------------------
  alpha Z        PSCENC =       145.77389662
  Ewald energy   TEWEN  =     25241.21720509
  -Hartree energ DENC   =    -37891.20452335
  -exchange      EXHF   =         0.00000000
  -V(xc)+E(xc)   XCENC  =      1091.31763441
  PAW double counting   =     28084.24861860   -28583.16377548
  entropy T*S    EENTRO =         0.00000000
  eigenvalues    EBANDS =     -3750.99407977
  atomic energy  EATOM  =     15171.73615219
  Solvation  Ediel_sol  =         0.00000000
  ---------------------------------------------------
  free energy    TOTEN  =      -491.06887169 eV

  energy without entropy =     -491.06887169  energy(sigma->0) =     -491.06887169


--------------------------------------------------------------------------------------------------------




--------------------------------------- Iteration      1(  13)  ---------------------------------------


    POTLOK:  cpu time    0.1341: real time    0.1387
    SETDIJ:  cpu time    0.0106: real time    0.0106
     EDDAV:  cpu time   13.4540: real time   13.4551
 BZINTS: Fermi energy: -2.415854;280.000000 electrons
         Band energy:***********;  BLOECHL correction:  0.000000
       DOS:  cpu time    0.0154: real time    0.0154
    CHARGE:  cpu time    0.4186: real time    0.4186
    MIXING:  cpu time    0.0042: real time    0.0042
    --------------------------------------------
      LOOP:  cpu time   14.0368: real time   14.0425

 eigenvalue-minimisations  :  4008
 total energy-change (2. order) : 0.3989015E-01  (-0.2342195E-01)
 number of electron     279.9999997 magnetization      -0.0000000
 augmentation part       18.1407601 magnetization       0.0000736

 Broyden mixing:
  rms(total) = 0.65915E-01    rms(broyden)= 0.65886E-01
  rms(prec ) = 0.77362E-01
  weight for this iteration     100.00

 eigenvalues of (default mixing * dielectric matrix)
  average eigenvalue GAMMA=   1.3732
  3.7792  2.4087  1.2825  0.8496  0.8496  0.7973  0.5092  0.5092

 Free energy of the ion-electron system (eV)
  ---------------------------------------------------
  alpha Z        PSCENC =       145.77389662
  Ewald energy   TEWEN  =     25241.21720509
  -Hartree energ DENC   =    -37874.18797727
  -exchange      EXHF   =         0.00000000
  -V(xc)+E(xc)   XCENC  =      1090.68988199
  PAW double counting   =     28191.28457049   -28690.09732050
  entropy T*S    EENTRO =         0.00000000
  eigenvalues    EBANDS =     -3767.44539015
  atomic energy  EATOM  =     15171.73615219
  Solvation  Ediel_sol  =         0.00000000
  ---------------------------------------------------
  free energy    TOTEN  =      -491.02898153 eV

  energy without entropy =     -491.02898153  energy(sigma->0) =     -491.02898153


--------------------------------------------------------------------------------------------------------




--------------------------------------- Iteration      1(  14)  ---------------------------------------


    POTLOK:  cpu time    0.1355: real time    0.1360
    SETDIJ:  cpu time    0.0105: real time    0.0105
     EDDAV:  cpu time   13.2441: real time   13.2468
 BZINTS: Fermi energy: -2.450863;280.000000 electrons
         Band energy:***********;  BLOECHL correction:  0.000000
       DOS:  cpu time    0.0158: real time    0.0158
    CHARGE:  cpu time    0.4240: real time    0.4240
    MIXING:  cpu time    0.0044: real time    0.0044
    --------------------------------------------
      LOOP:  cpu time   13.8343: real time   13.8375

 eigenvalue-minimisations  :  4000
 total energy-change (2. order) : 0.2888700E-02  (-0.7472858E-02)
 number of electron     279.9999997 magnetization       0.0000000
 augmentation part       18.1469618 magnetization       0.0000888

 Broyden mixing:
  rms(total) = 0.34916E-01    rms(broyden)= 0.34823E-01
  rms(prec ) = 0.42133E-01
  weight for this iteration     100.00

 eigenvalues of (default mixing * dielectric matrix)
  average eigenvalue GAMMA=   1.3533
  3.7785  2.4991  1.3028  0.9284  0.9284  0.8612  0.8612  0.5099  0.5099

 Free energy of the ion-electron system (eV)
  ---------------------------------------------------
  alpha Z        PSCENC =       145.77389662
  Ewald energy   TEWEN  =     25241.21720509
  -Hartree energ DENC   =    -37867.33024063
  -exchange      EXHF   =         0.00000000
  -V(xc)+E(xc)   XCENC  =      1090.44343481
  PAW double counting   =     28269.07615057   -28767.80864256
  entropy T*S    EENTRO =         0.00000000
  eigenvalues    EBANDS =     -3774.13404892
  atomic energy  EATOM  =     15171.73615219
  Solvation  Ediel_sol  =         0.00000000
  ---------------------------------------------------
  free energy    TOTEN  =      -491.02609283 eV

  energy without entropy =     -491.02609283  energy(sigma->0) =     -491.02609283


--------------------------------------------------------------------------------------------------------




--------------------------------------- Iteration      1(  15)  ---------------------------------------


    POTLOK:  cpu time    0.1346: real time    0.1350
    SETDIJ:  cpu time    0.0106: real time    0.0106
     EDDAV:  cpu time   13.2872: real time   13.2883
 BZINTS: Fermi energy: -2.445861;280.000000 electrons
         Band energy:***********;  BLOECHL correction:  0.000000
       DOS:  cpu time    0.0158: real time    0.0158
    CHARGE:  cpu time    0.4176: real time    0.4177
    MIXING:  cpu time    0.0058: real time    0.0058
    --------------------------------------------
      LOOP:  cpu time   13.8717: real time   13.8732

 eigenvalue-minimisations  :  4032
 total energy-change (2. order) :-0.4056472E-03  (-0.4020951E-02)
 number of electron     279.9999997 magnetization      -0.0000000
 augmentation part       18.1450131 magnetization       0.0000697

 Broyden mixing:
  rms(total) = 0.32186E-01    rms(broyden)= 0.32144E-01
  rms(prec ) = 0.42243E-01
  weight for this iteration     100.00

 eigenvalues of (default mixing * dielectric matrix)
  average eigenvalue GAMMA=   1.3606
  3.7222  2.6781  1.3292  1.2620  1.2620  0.8211  0.8211  0.6969  0.5065  0.5065

 Free energy of the ion-electron system (eV)
  ---------------------------------------------------
  alpha Z        PSCENC =       145.77389662
  Ewald energy   TEWEN  =     25241.21720509
  -Hartree energ DENC   =    -37867.87997969
  -exchange      EXHF   =         0.00000000
  -V(xc)+E(xc)   XCENC  =      1090.45110195
  PAW double counting   =     28294.08203800   -28792.84126380
  entropy T*S    EENTRO =         0.00000000
  eigenvalues    EBANDS =     -3773.56564884
  atomic energy  EATOM  =     15171.73615219
  Solvation  Ediel_sol  =         0.00000000
  ---------------------------------------------------
  free energy    TOTEN  =      -491.02649848 eV

  energy without entropy =     -491.02649848  energy(sigma->0) =     -491.02649848


--------------------------------------------------------------------------------------------------------




--------------------------------------- Iteration      1(  16)  ---------------------------------------


    POTLOK:  cpu time    0.1385: real time    0.1389
    SETDIJ:  cpu time    0.0106: real time    0.0106
     EDDAV:  cpu time   14.6000: real time   14.6037
 BZINTS: Fermi energy: -2.450863;280.000000 electrons
         Band energy:***********;  BLOECHL correction:  0.000000
       DOS:  cpu time    0.0154: real time    0.0154
    CHARGE:  cpu time    0.4190: real time    0.4191
    MIXING:  cpu time    0.0050: real time    0.0049
    --------------------------------------------
      LOOP:  cpu time   15.1885: real time   15.1926

 eigenvalue-minimisations  :  4456
 total energy-change (2. order) : 0.8073282E-03  (-0.3207898E-02)
 number of electron     279.9999997 magnetization      -0.0000000
 augmentation part       18.1458219 magnetization       0.0000212

 Broyden mixing:
  rms(total) = 0.21455E-01    rms(broyden)= 0.21383E-01
  rms(prec ) = 0.28697E-01
  weight for this iteration     100.00

 eigenvalues of (default mixing * dielectric matrix)
  average eigenvalue GAMMA=   1.3610
  3.6881  2.9487  1.7431  1.1372  1.1372  0.9976  0.7983  0.7983  0.7147  0.5037
  0.5037

 Free energy of the ion-electron system (eV)
  ---------------------------------------------------
  alpha Z        PSCENC =       145.77389662
  Ewald energy   TEWEN  =     25241.21720509
  -Hartree energ DENC   =    -37867.55509955
  -exchange      EXHF   =         0.00000000
  -V(xc)+E(xc)   XCENC  =      1090.43176009
  PAW double counting   =     28299.33576929   -28798.13154317
  entropy T*S    EENTRO =         0.00000000
  eigenvalues    EBANDS =     -3773.83383171
  atomic energy  EATOM  =     15171.73615219
  Solvation  Ediel_sol  =         0.00000000
  ---------------------------------------------------
  free energy    TOTEN  =      -491.02569115 eV

  energy without entropy =     -491.02569115  energy(sigma->0) =     -491.02569115


--------------------------------------------------------------------------------------------------------




--------------------------------------- Iteration      1(  17)  ---------------------------------------


    POTLOK:  cpu time    0.1278: real time    0.1388
    SETDIJ:  cpu time    0.0105: real time    0.0105
     EDDAV:  cpu time   13.8469: real time   13.8478
 BZINTS: Fermi energy: -2.445861;280.000000 electrons
         Band energy:***********;  BLOECHL correction:  0.000000
       DOS:  cpu time    0.0154: real time    0.0155
    CHARGE:  cpu time    0.4185: real time    0.4186
    MIXING:  cpu time    0.0052: real time    0.0052
    --------------------------------------------
      LOOP:  cpu time   14.4244: real time   14.4364

 eigenvalue-minimisations  :  4200
 total energy-change (2. order) : 0.1988560E-03  (-0.1403562E-02)
 number of electron     279.9999997 magnetization      -0.0000000
 augmentation part       18.1456210 magnetization       0.0000150

 Broyden mixing:
  rms(total) = 0.13672E-01    rms(broyden)= 0.13634E-01
  rms(prec ) = 0.17700E-01
  weight for this iteration     100.00

 eigenvalues of (default mixing * dielectric matrix)
  average eigenvalue GAMMA=   1.3976
  3.7346  3.0501  1.6309  1.5545  1.5545  0.8354  0.8354  1.0255  0.9118  0.5014
  0.5014  0.6354

 Free energy of the ion-electron system (eV)
  ---------------------------------------------------
  alpha Z        PSCENC =       145.77389662
  Ewald energy   TEWEN  =     25241.21720509
  -Hartree energ DENC   =    -37867.56941493
  -exchange      EXHF   =         0.00000000
  -V(xc)+E(xc)   XCENC  =      1090.43091677
  PAW double counting   =     28306.24552081   -28805.04416906
  entropy T*S    EENTRO =         0.00000000
  eigenvalues    EBANDS =     -3773.81559977
  atomic energy  EATOM  =     15171.73615219
  Solvation  Ediel_sol  =         0.00000000
  ---------------------------------------------------
  free energy    TOTEN  =      -491.02549230 eV

  energy without entropy =     -491.02549230  energy(sigma->0) =     -491.02549230


--------------------------------------------------------------------------------------------------------




--------------------------------------- Iteration      1(  18)  ---------------------------------------


    POTLOK:  cpu time    0.1363: real time    0.1383
    SETDIJ:  cpu time    0.0104: real time    0.0104
     EDDAV:  cpu time   12.0471: real time   12.0479
 BZINTS: Fermi energy: -2.449612;280.000000 electrons
         Band energy:***********;  BLOECHL correction:  0.000000
       DOS:  cpu time    0.0156: real time    0.0156
    CHARGE:  cpu time    0.4214: real time    0.4214
    MIXING:  cpu time    0.0056: real time    0.0056
    --------------------------------------------
      LOOP:  cpu time   12.6363: real time   12.6391

 eigenvalue-minimisations  :  3520
 total energy-change (2. order) : 0.1377696E-03  (-0.4142204E-03)
 number of electron     279.9999997 magnetization      -0.0000000
 augmentation part       18.1452381 magnetization       0.0000187

 Broyden mixing:
  rms(total) = 0.68986E-02    rms(broyden)= 0.68758E-02
  rms(prec ) = 0.87564E-02
  weight for this iteration     100.00

 eigenvalues of (default mixing * dielectric matrix)
  average eigenvalue GAMMA=   1.4692
  3.5377  3.2434  3.2434  1.6784  1.1997  1.1997  0.8323  0.8323  0.9411  0.7718
  0.5009  0.5009  0.6183

 Free energy of the ion-electron system (eV)
  ---------------------------------------------------
  alpha Z        PSCENC =       145.77389662
  Ewald energy   TEWEN  =     25241.21720509
  -Hartree energ DENC   =    -37867.69599347
  -exchange      EXHF   =         0.00000000
  -V(xc)+E(xc)   XCENC  =      1090.43962979
  PAW double counting   =     28313.46602239   -28812.26499234
  entropy T*S    EENTRO =         0.00000000
  eigenvalues    EBANDS =     -3773.69727479
  atomic energy  EATOM  =     15171.73615219
  Solvation  Ediel_sol  =         0.00000000
  ---------------------------------------------------
  free energy    TOTEN  =      -491.02535453 eV

  energy without entropy =     -491.02535453  energy(sigma->0) =     -491.02535453


--------------------------------------------------------------------------------------------------------




--------------------------------------- Iteration      1(  19)  ---------------------------------------


    POTLOK:  cpu time    0.1342: real time    0.1365
    SETDIJ:  cpu time    0.0106: real time    0.0106
     EDDAV:  cpu time    9.1088: real time    9.1096
 BZINTS: Fermi energy: -2.445861;280.000000 electrons
         Band energy:***********;  BLOECHL correction:  0.000000
       DOS:  cpu time    0.0154: real time    0.0154
    --------------------------------------------
      LOOP:  cpu time    9.2689: real time    9.2720

 eigenvalue-minimisations  :  2256
 total energy-change (2. order) : 0.1774088E-04  (-0.5076150E-04)
 number of electron     279.9999997 magnetization      -0.0000000
 augmentation part       18.1452381 magnetization       0.0000187

 Free energy of the ion-electron system (eV)
  ---------------------------------------------------
  alpha Z        PSCENC =       145.77389662
  Ewald energy   TEWEN  =     25241.21720509
  -Hartree energ DENC   =    -37868.10055825
  -exchange      EXHF   =         0.00000000
  -V(xc)+E(xc)   XCENC  =      1090.45438238
  PAW double counting   =     28311.89919935   -28810.70036254
  entropy T*S    EENTRO =         0.00000000
  eigenvalues    EBANDS =     -3773.30525162
  atomic energy  EATOM  =     15171.73615219
  Solvation  Ediel_sol  =         0.00000000
  ---------------------------------------------------
  free energy    TOTEN  =      -491.02533679 eV

  energy without entropy =     -491.02533679  energy(sigma->0) =     -491.02533679


--------------------------------------------------------------------------------------------------------




 average (electrostatic) potential at core
  the test charge radii are     0.6991  0.7089  0.9911  0.6991  0.7215
  (the norm of the test charge is              1.0000)
       1 -60.7192       2 -61.0488       3 -61.0441       4 -60.7044       5 -60.7235
       6 -60.7239       7 -60.9052       8 -60.7564       9 -60.6604      10 -61.3492
      11 -60.8481      12 -61.3230      13 -60.7062      14 -60.6645      15 -60.4651
      16 -60.7208      17 -60.7071      18 -60.6873      19 -60.9953      20 -60.7096
      21 -60.7549      22 -60.7928      23 -60.7811      24 -60.7424      25 -74.6174
[...]
   -.153E+02 0.496E+02 0.178E+03   0.158E+02 -.520E+02 -.179E+03   -.464E+00 0.250E+01 0.145E+01   -.191E-02 -.109E-01 -.680E-02
   -.584E+02 -.153E+02 0.857E+02   0.608E+02 0.165E+02 -.865E+02   -.249E+01 -.119E+01 0.899E+00   0.735E-02 0.357E-02 -.461E-02
   0.388E+02 -.283E+02 -.318E+02   -.393E+02 0.253E+02 0.308E+02   0.437E+00 0.254E+01 0.796E+00   0.179E-02 -.102E-01 -.893E-03
   0.260E+02 -.152E+02 -.440E+02   -.227E+02 0.173E+02 0.436E+02   -.283E+01 -.173E+01 0.363E+00   0.701E-02 0.145E-02 -.729E-03
   -.793E+01 -.212E+00 -.541E+02   0.439E+01 0.212E+01 0.537E+02   0.307E+01 -.154E+01 0.222E+00   -.664E-02 0.340E-02 -.134E-02
   -.245E+02 0.167E+02 -.645E+02   0.237E+02 -.149E+02 0.655E+02   0.984E+00 -.168E+01 -.108E+01   -.119E-01 0.571E-02 0.458E-02
   -.334E+01 0.173E+02 0.434E+02   0.329E+01 -.199E+02 -.427E+02   0.531E-01 0.283E+01 -.622E+00   -.311E-02 -.141E-01 0.293E-03
   0.315E+02 0.154E+02 -.599E+02   -.305E+02 -.133E+02 0.605E+02   -.116E+01 -.201E+01 -.796E+00   0.535E-02 0.530E-02 0.327E-02
   -.329E+01 -.171E+02 -.130E+02   0.339E+01 0.132E+02 0.139E+02   -.888E-01 0.336E+01 -.653E+00   0.353E-02 -.608E-02 0.164E-02
   0.384E+02 0.278E+02 0.172E+03   -.351E+02 -.261E+02 -.171E+03   -.281E+01 -.147E+01 -.520E+00   0.144E-01 0.401E-02 -.242E-02
   -.145E+02 0.221E+02 0.775E+02   0.111E+02 -.203E+02 -.768E+02   0.291E+01 -.135E+01 -.535E+00   0.884E-02 -.393E-02 -.165E-02
   0.605E+02 -.139E+02 0.589E+02   -.629E+02 0.152E+02 -.593E+02   0.252E+01 -.124E+01 0.452E+00   -.946E-02 0.721E-02 -.331E-02
   0.531E+01 0.705E+02 0.189E+03   -.551E+01 -.729E+02 -.191E+03   0.521E-01 0.247E+01 0.148E+01   -.277E-02 -.112E-01 -.188E-02
   -.598E+02 -.549E+02 -.887E+02   0.621E+02 0.561E+02 0.891E+02   -.244E+01 -.131E+01 -.389E+00   0.957E-02 0.979E-02 -.156E-02
   -.327E+02 -.274E+02 -.127E+03   0.330E+02 0.244E+02 0.126E+03   -.164E+00 0.250E+01 0.872E+00   0.145E-02 0.201E-03 0.995E-03
   0.112E+02 -.121E+01 -.985E+02   -.760E+01 0.304E+01 0.978E+02   -.309E+01 -.147E+01 0.466E+00   0.111E-01 0.815E-02 -.202E-02
   -.288E+02 -.108E+02 -.799E+02   0.255E+02 0.130E+02 0.789E+02   0.282E+01 -.182E+01 0.801E+00   -.982E-02 0.643E-02 -.320E-02
   0.688E+02 -.649E+02 0.123E+03   -.712E+02 0.664E+02 -.122E+03   0.246E+01 -.171E+01 0.496E-01   -.108E-01 -.257E-02 -.171E-02
   -.963E+01 0.401E+02 -.170E+03   0.964E+01 -.430E+02 0.171E+03   -.265E-01 0.301E+01 -.128E+01   0.124E-02 -.970E-02 0.457E-02
   -.788E+02 -.236E+02 -.548E+02   0.814E+02 0.244E+02 0.557E+02   -.270E+01 -.708E+00 -.970E+00   0.946E-02 0.751E-02 0.377E-02
   -.136E+02 0.372E+02 0.148E+03   0.140E+02 -.383E+02 -.150E+03   -.332E+00 0.877E+00 0.248E+01   -.228E-01 -.543E-02 0.118E-02
   -.182E+03 -.277E+02 0.202E+03   0.211E+03 0.437E+02 -.213E+03   -.305E+02 -.166E+02 0.121E+02   -.848E-02 -.752E-02 -.443E-03
   0.146E+03 -.144E+03 -.216E+03   -.176E+03 0.159E+03 0.227E+03   0.302E+02 -.159E+02 -.110E+02   0.565E-04 -.635E-03 -.380E-02
   0.216E+01 0.160E+03 0.357E+03   0.286E+00 -.188E+03 -.378E+03   -.267E+01 0.285E+02 0.223E+02   0.110E-01 -.144E-01 -.744E-02
   -.372E+02 0.133E+03 0.374E+03   0.347E+02 -.158E+03 -.398E+03   0.256E+01 0.265E+02 0.248E+02   -.121E-01 -.112E-01 -.625E-02
   0.180E+03 -.925E+02 -.103E+03   -.208E+03 0.112E+03 0.103E+03   0.293E+02 -.199E+02 -.154E+00   0.917E-02 -.460E-02 -.222E-02
   -.136E+03 -.748E+02 0.230E+03   0.164E+03 0.837E+02 -.249E+03   -.296E+02 -.913E+01 0.194E+02   -.284E-02 0.187E-03 0.135E-02
   -.422E+01 -.253E+00 -.224E+02   0.439E+01 0.257E+00 0.234E+02   -.186E+00 -.992E-02 -.103E+01   -.105E-03 0.196E-02 -.245E-02
   0.165E+02 -.225E+02 -.878E+02   -.167E+02 0.231E+02 0.917E+02   0.206E+00 -.694E+00 -.412E+01   0.120E-02 -.504E-02 -.362E-02
   -.130E+00 -.583E+02 -.275E+03   0.209E+02 0.709E+02 0.297E+03   -.212E+02 -.130E+02 -.229E+02   -.238E-02 0.158E-02 -.357E-02
   0.702E+01 0.628E+02 -.694E+02   -.256E+02 -.587E+02 0.795E+02   0.192E+02 -.417E+01 -.105E+02   -.149E-01 -.121E-02 0.190E-02
   -.163E+02 0.104E+03 0.113E+03   0.191E+02 -.136E+03 -.123E+03   -.298E+01 0.334E+02 0.993E+01   -.357E-02 0.289E-02 0.186E-02
   0.444E+00 0.101E+03 0.126E+03   -.246E+01 -.133E+03 -.135E+03   0.211E+01 0.332E+02 0.100E+02   -.490E-02 -.272E-02 0.287E-02
   0.358E+02 -.569E+02 -.300E+03   -.608E+02 0.700E+02 0.317E+03   0.255E+02 -.136E+02 -.175E+02   0.542E-03 0.875E-02 0.606E-05
   -.170E+01 0.716E+02 -.990E+02   0.187E+02 -.681E+02 0.113E+03   -.175E+02 -.356E+01 -.142E+02   -.915E-02 -.101E-01 -.914E-02
   0.490E+02 0.173E+02 0.649E+02   -.530E+02 -.201E+02 -.644E+02   0.426E+01 0.295E+01 -.420E+00   -.349E-02 -.105E-01 -.648E-02
   0.137E+02 0.362E+02 0.134E+03   -.156E+02 -.377E+02 -.138E+03   0.192E+01 0.166E+01 0.428E+01   0.259E-01 -.527E-02 -.193E-03
   -.177E+03 -.970E+02 -.112E+03   0.205E+03 0.115E+03 0.113E+03   -.298E+02 -.192E+02 -.783E+00   -.382E-02 0.268E-02 -.548E-02
   0.139E+03 -.633E+02 0.179E+03   -.169E+03 0.718E+02 -.195E+03   0.307E+02 -.876E+01 0.167E+02   0.442E-02 0.947E-02 -.215E-03
   0.129E+02 0.154E+03 0.386E+03   -.805E+01 -.180E+03 -.408E+03   -.487E+01 0.273E+02 0.230E+02   -.214E-02 0.532E-02 0.132E-01
   0.594E+01 0.220E+03 0.323E+03   -.749E+01 -.253E+03 -.333E+03   0.172E+01 0.338E+02 0.108E+02   0.206E-02 0.143E-01 0.728E-02
   0.182E+03 -.288E+02 0.122E+03   -.213E+03 0.460E+02 -.127E+03   0.311E+02 -.178E+02 0.579E+01   0.131E-02 0.276E-02 -.107E-02
   -.133E+03 -.147E+03 -.264E+03   0.161E+03 0.163E+03 0.278E+03   -.288E+02 -.157E+02 -.143E+02   -.209E-02 0.585E-02 -.623E-02
   0.715E+00 -.323E+02 -.111E+02   -.606E+00 0.335E+02 0.891E+01   -.132E+00 -.123E+01 0.232E+01   0.931E-04 0.595E-02 0.983E-03
   -.160E+02 -.249E+02 -.170E+03   0.159E+02 0.267E+02 0.175E+03   0.130E+00 -.195E+01 -.552E+01   -.138E-03 0.172E-03 -.457E-02
   -.211E+03 -.613E+02 -.836E+02   0.240E+03 0.791E+02 0.843E+02   -.302E+02 -.184E+02 -.751E+00   0.683E-04 0.834E-02 0.491E-02
   0.167E+03 -.137E+03 0.275E+03   -.197E+03 0.152E+03 -.281E+03   0.309E+02 -.157E+02 0.695E+01   0.142E-01 -.122E-01 0.119E-02
   0.106E+01 0.138E+03 -.349E+03   0.340E+01 -.165E+03 0.370E+03   -.463E+01 0.281E+02 -.227E+02   -.201E-02 0.831E-03 -.390E-02
   -.330E+02 0.106E+03 -.392E+03   0.314E+02 -.131E+03 0.417E+03   0.160E+01 0.260E+02 -.260E+02   0.746E-02 0.297E-02 -.321E-02
   0.178E+03 -.119E+03 0.212E+03   -.201E+03 0.141E+03 -.225E+03   0.239E+02 -.227E+02 0.125E+02   0.382E-02 -.599E-02 0.388E-02
   -.157E+03 -.678E+02 -.170E+03   0.188E+03 0.762E+02 0.183E+03   -.318E+02 -.872E+01 -.142E+02   0.167E-01 0.172E-02 0.151E-02
   -.458E+02 0.199E+02 0.394E+02   0.486E+02 -.221E+02 -.414E+02   -.300E+01 0.222E+01 0.220E+01   0.147E-02 0.694E-02 0.409E-02
   0.414E+02 -.108E+03 -.887E+03   -.424E+02 0.123E+03 0.904E+03   0.108E+01 -.151E+02 -.178E+02   -.252E-01 -.654E-02 -.304E-02
   -.612E+02 -.140E+03 0.133E+03   0.679E+02 0.155E+03 -.151E+03   -.775E+01 -.175E+02 0.204E+02   -.112E-02 -.769E-03 0.110E-02
   0.517E+02 0.116E+03 -.747E+02   -.663E+02 -.150E+03 0.113E+03   0.157E+02 0.356E+02 -.414E+02   -.779E-03 0.109E-02 -.122E-02
 -----------------------------------------------------------------------------------------------
   -.535E+01 -.228E+02 0.193E+02   -.227E-12 -.853E-13 0.355E-12   0.538E+01 0.229E+02 -.193E+02   -.362E-01 -.288E-01 -.449E-01


 POSITION                                       TOTAL-FORCE (eV/Angst)
 -----------------------------------------------------------------------------------
     -0.01525      2.52653      6.67668        -0.013794     -0.476720      0.227008
      1.24502      4.69976      6.77910         0.547757      0.138752      0.095605
     -1.30039      4.65331      6.68928        -0.573213      0.101757      0.008399
      5.86569      0.67451      7.88890         0.077052     -0.019896     -0.102589
      3.55782      4.69848      6.46342         0.087080      0.013757      0.178707
      1.20962      0.60733      7.01661        -0.093137      0.047537      0.070025
     -3.66528      8.47370      7.55547        -0.078514     -0.372488     -0.230112
     -2.26902     10.56233      7.82016         0.443385      0.326393     -0.055522
     -4.77651     10.65972      7.77310        -0.438743      0.345403     -0.117074
      2.45396      6.45323      7.83091         0.229526      0.117673     -0.094592
      0.04020     10.47299      7.63302         0.004611      0.143842      0.139786
     -2.60016      6.44991      7.50605        -0.223395      0.117397     -0.250387
      7.12630      2.53944      7.38416         0.010719     -0.498111      0.227478
      8.26596      4.49676      6.26999         0.406237      0.207675      0.116632
      5.83473      4.58517      6.81434        -0.394526      0.398492      0.160152
     12.89702      0.44108      7.20049         0.101117      0.057584      0.064170
     10.55427      4.42792      6.17815        -0.143952      0.065850      0.174284
      8.33088      0.66116      7.98587        -0.079585     -0.074913     -0.064541
      3.63791      8.36448      8.27989         0.143604     -0.380505     -0.250424
      4.81802     10.54998      8.15185         0.472410      0.339891     -0.239764
      2.30445     10.52794      8.12809        -0.430893      0.336251     -0.157212
      9.27566      6.53155      6.58558        -0.043195     -0.210921      0.076143
      7.10958     10.57101      8.33215        -0.016133      0.085070     -0.203383
      4.85707      6.49565      7.64664        -0.061222      0.038868     -0.045673
     -0.01464      3.96921      6.65472        -0.016801     -0.194321      0.104418
      1.18970      1.88818      6.59235        -0.837110     -0.559225      0.424199
      4.73542     -0.04387      8.14079         0.858754     -0.455465     -0.530443
      4.73768      4.10507      6.15529        -0.203186      0.799054      0.791185
      2.32059      4.23630      6.11500         0.004767      0.661232      0.841509
      5.89226      2.00991      7.69700         0.844732     -0.723162     -0.149546
     -4.73563     11.75768      6.98563        -0.845402     -0.280902      0.722836
      0.01716      0.02181      7.53926        -0.011455     -0.005246     -0.028710
     -3.54121      9.87903      7.80575        -0.047295     -0.070497     -0.165200
     -2.66347      7.67139      8.07394        -0.536753     -0.420039     -0.878036
      1.24445      5.79420      7.67251         0.684782     -0.182930     -0.417728
      1.23542      9.81263      7.64455        -0.157037      0.961011      0.390746
     -1.15210      9.82833      7.48620         0.088669      0.975698      0.407795
      2.47113      7.63335      8.48774         0.624645     -0.498392     -0.760605
     -1.41325      5.74189      7.57406        -0.595406     -0.126779     -0.554715
     10.45491      5.72401      6.82240         0.294782      0.129557      0.052708
      7.09245      3.80860      6.72034         0.067258      0.110732      0.150380
      8.34073      1.99139      7.72892        -0.902840     -0.631568     -0.117977
      4.71744     11.60383      7.30987         0.887268     -0.246386      0.677806
     -2.30271      4.15038      5.94746        -0.035577      0.707708      0.850751
      9.39560      3.77700      5.95857         0.165887      1.077934      0.518391
     12.88409      1.72762      6.80928         0.882228     -0.600912      0.228158
      9.40758     -0.06757      8.40584        -0.794688     -0.448591     -0.628853
      7.10120     -0.05189      7.77591        -0.022210     -0.062645      0.085670
      3.56065      9.79828      8.32503         0.046581     -0.109813     -0.229584
      4.83771      7.80759      7.99249        -0.921932     -0.597371     -0.040562
      8.17254      5.88221      6.20671         1.009169     -0.376167      0.509779
     -5.79855     10.17237      8.54654        -0.166228      0.772318     -0.779828
      5.92291     10.08860      8.81234         0.070002      0.618361     -0.921709
     -4.72169      8.07832      6.80047         0.774342     -0.649400      0.493471
      5.95725      5.73063      7.55424        -0.975478     -0.271032     -0.583999
      3.59725      5.88760      7.29935        -0.207467      0.080652      0.149092
     -0.13662      7.01675      8.68604         0.039776     -0.234531     -0.332542
     -0.13662      7.01675     14.78564        -1.079189     -2.441918      2.831982
     -0.46406      6.27639      0.34789         1.079216      2.444397     -2.837955
 -----------------------------------------------------------------------------------
    total drift:                               -0.002161      0.003977      0.019241


--------------------------------------------------------------------------------------------------------



  FREE ENERGIE OF THE ION-ELECTRON SYSTEM (eV)
  ---------------------------------------------------
  free  energy   TOTEN  =      -495.05377956 eV

  energy  without entropy=     -495.05377956  energy(sigma->0) =     -495.05377956



--------------------------------------------------------------------------------------------------------


    POTLOK:  cpu time    0.2536: real time    0.2564


--------------------------------------------------------------------------------------------------------


     LOOP+:  cpu time  289.8549: real time  289.9691
    4ORBIT:  cpu time    0.0000: real time    0.0000



 total charge     

# of ion       s       p       d       tot
------------------------------------------
    1        0.835   1.668   0.000   2.504
    2        0.823   1.657   0.000   2.479
    3        0.826   1.661   0.000   2.487
    4        0.848   1.676   0.000   2.523
    5        0.839   1.674   0.000   2.512
    6        0.851   1.685   0.000   2.536
    7        0.836   1.662   0.000   2.498
    8        0.835   1.657   0.000   2.492
    9        0.840   1.660   0.000   2.499
   10        0.850   1.704   0.000   2.554
   11        0.848   1.679   0.000   2.527
   12        0.854   1.713   0.000   2.567
   13        0.835   1.657   0.000   2.491
   14        0.830   1.661   0.000   2.492
   15        0.828   1.664   0.000   2.492
   16        0.851   1.690   0.000   2.541
   17        0.840   1.682   0.000   2.522
   18        0.845   1.673   0.000   2.518
   19        0.834   1.660   0.000   2.495
   20        0.837   1.656   0.000   2.494
   21        0.832   1.651   0.000   2.483
   22        0.846   1.676   0.000   2.522
   23        0.847   1.664   0.000   2.511
   24        0.848   1.692   0.000   2.540
   25        1.196   2.666   0.000   3.862
   26        1.267   2.601   0.000   3.867
   27        1.263   2.598   0.000   3.861
   28        1.267   2.571   0.000   3.838
   29        1.265   2.591   0.000   3.856
   30        1.263   2.594   0.000   3.857
   31        1.272   2.594   0.000   3.866
   32        1.223   2.695   0.000   3.918
   33        1.205   2.680   0.000   3.885
   34        1.260   2.609   0.000   3.869
   35        1.237   2.613   0.000   3.850
   36        1.261   2.592   0.000   3.853
   37        1.260   2.593   0.000   3.853
   38        1.257   2.600   0.000   3.858
   39        1.238   2.619   0.000   3.856
   40        1.221   2.712   0.000   3.933
   41        1.203   2.665   0.000   3.868
   42        1.262   2.584   0.000   3.847
   43        1.269   2.601   0.000   3.870
   44        1.264   2.592   0.000   3.856
   45        1.266   2.576   0.000   3.841
   46        1.266   2.607   0.000   3.872
   47        1.263   2.590   0.000   3.853
   48        1.220   2.698   0.000   3.919
   49        1.203   2.650   0.000   3.852
   50        1.264   2.604   0.000   3.868
   51        1.263   2.593   0.000   3.856
   52        1.266   2.576   0.000   3.843
   53        1.266   2.580   0.000   3.846
   54        1.262   2.586   0.000   3.848
   55        1.271   2.589   0.000   3.860
   56        1.220   2.707   0.000   3.927
   57        1.346   0.688  10.035  12.070
   58        1.031   1.357   0.000   2.388
   59        1.632   3.482   0.000   5.114
--------------------------------------------------
tot         64.151 129.374  10.035 203.561



 magnetization (x)

# of ion       s       p       d       tot
------------------------------------------
    1       -0.000   0.000   0.000   0.000
    2       -0.000  -0.000   0.000  -0.000
    3        0.000   0.000   0.000   0.000
    4        0.000   0.000   0.000   0.000
    5       -0.000  -0.000   0.000  -0.000
    6       -0.000   0.000   0.000   0.000
    7        0.000   0.000   0.000   0.000
    8        0.000   0.000   0.000   0.000
    9        0.000   0.000   0.000   0.000
   10        0.000   0.000   0.000   0.000
   11       -0.000  -0.000   0.000  -0.000
   12       -0.000  -0.000   0.000  -0.000
   13        0.000   0.000   0.000   0.000
   14        0.000   0.000   0.000   0.000
   15       -0.000  -0.000   0.000  -0.000
   16       -0.000  -0.000   0.000  -0.000
   17        0.000   0.000   0.000   0.000
   18        0.000   0.000   0.000   0.000
   19       -0.000  -0.000   0.000  -0.000
   20       -0.000  -0.000   0.000  -0.000
   21       -0.000  -0.000   0.000  -0.000
   22        0.000   0.000   0.000   0.000
   23       -0.000   0.000   0.000  -0.000
   24       -0.000  -0.000   0.000  -0.000
   25        0.000  -0.000   0.000  -0.000
   26        0.000   0.000   0.000   0.000
   27        0.000   0.000   0.000   0.000
   28        0.000   0.000   0.000   0.000
   29        0.000   0.000   0.000   0.000
   30        0.000   0.000   0.000   0.000
   31        0.000   0.000   0.000   0.000
   32        0.000  -0.000   0.000  -0.000
   33       -0.000   0.000   0.000   0.000
   34        0.000   0.000   0.000   0.000
   35        0.000  -0.000   0.000  -0.000
   36       -0.000   0.000   0.000   0.000
   37        0.000   0.000   0.000   0.000
   38       -0.000  -0.000   0.000  -0.000
   39        0.000   0.000   0.000   0.000
   40        0.000   0.000   0.000   0.000
   41        0.000  -0.000   0.000   0.000
   42       -0.000   0.000   0.000   0.000
   43       -0.000   0.000   0.000  -0.000
   44       -0.000  -0.000   0.000  -0.000
   45        0.000  -0.000   0.000  -0.000
   46       -0.000   0.000   0.000   0.000
   47       -0.000  -0.000   0.000  -0.000
   48        0.000   0.000   0.000   0.000
   49        0.000   0.000   0.000   0.000
   50       -0.000   0.000   0.000   0.000
   51        0.000   0.000   0.000   0.000
   52        0.000   0.000   0.000   0.000
   53       -0.000  -0.000   0.000  -0.000
   54       -0.000  -0.000   0.000  -0.000
   55       -0.000  -0.000   0.000  -0.000
   56       -0.000  -0.000   0.000  -0.000
   57       -0.000  -0.000  -0.000  -0.000
   58        0.000   0.000   0.000   0.000
   59       -0.000  -0.000   0.000  -0.000
--------------------------------------------------
tot          0.000   0.000  -0.000   0.000

 BZINTS: Fermi energy: -2.445861;280.000000 electrons
         Band energy:***********;  BLOECHL correction:  0.000000

 total amount of memory used by VASP MPI-rank0    94985. kBytes
=======================================================================

   base      :      30000. kBytes
   nonl-proj :      20284. kBytes
   fftplans  :       3433. kBytes
   grid      :      10043. kBytes
   one-center:        155. kBytes
   wavefun   :      31070. kBytes

  
  
 General timing and accounting informations for this job:
 ========================================================
  
                  Total CPU time used (sec):      305.236
                            User time (sec):      304.224
                          System time (sec):        1.012
                         Elapsed time (sec):      305.756
  
                   Maximum memory used (kb):      173364.
                   Average memory used (kb):           0.
  
                          Minor page faults:        53655
                          Major page faults:            0
                 Voluntary context switches:          708
