       N       E                     dE             d eps       ncg     rms          rms(c)
DAV:   1     0.229349833095E+04    0.22935E+04   -0.86318E+04  3896   0.104E+03
DAV:   2     0.203596941322E+03   -0.20899E+04   -0.19923E+04  4928   0.239E+02
DAV:   3    -0.390610024398E+03   -0.59421E+03   -0.58791E+03  4272   0.136E+02
DAV:   4    -0.424500096531E+03   -0.33890E+02   -0.32693E+02  4048   0.426E+01
DAV:   5    -0.426527569241E+03   -0.20275E+01   -0.20009E+01  5120   0.947E+00    0.312E+01
DAV:   6    -0.410319177645E+03    0.16208E+02   -0.76492E+01  4704   0.190E+01    0.176E+01
DAV:   7    -0.409630009665E+03    0.68917E+00   -0.15586E+01  4296   0.137E+01    0.130E+01
DAV:   8    -0.409434855847E+03    0.19515E+00   -0.18556E+01  4576   0.104E+01    0.996E+00
DAV:   9    -0.409547822417E+03   -0.11297E+00   -0.24953E+01  4824   0.802E+00    0.737E+00
DAV:  10    -0.408430031016E+03    0.11178E+01   -0.35795E+00  4856   0.694E+00    0.349E+00
DAV:  11    -0.408268500098E+03    0.16153E+00   -0.17212E+00  4552   0.424E+00    0.271E+00
DAV:  12    -0.408133883227E+03    0.13462E+00   -0.11710E+00  4136   0.243E+00    0.124E+00
DAV:  13    -0.408125190301E+03    0.86929E-02   -0.16582E-01  4384   0.120E+00    0.848E-01
DAV:  14    -0.408120844624E+03    0.43457E-02   -0.59752E-02  4192   0.566E-01    0.592E-01
DAV:  15    -0.408123466735E+03   -0.26221E-02   -0.95330E-02  4536   0.476E-01    0.659E-01
DAV:  16    -0.408119498100E+03    0.39686E-02   -0.87629E-02  4392   0.419E-01    0.324E-01
DAV:  17    -0.408120242926E+03   -0.74483E-03   -0.12380E-02  4056   0.182E-01    0.287E-01
DAV:  18    -0.408118550141E+03    0.16928E-02   -0.62403E-03  3920   0.838E-02    0.186E-01
DAV:  19    -0.408118420190E+03    0.12995E-03   -0.33301E-03  3640   0.552E-02    0.112E-01
DAV:  20    -0.408118859934E+03   -0.43974E-03   -0.99352E-04  2936   0.612E-02    0.730E-02
DAV:  21    -0.408118891444E+03   -0.31511E-04   -0.77585E-04  2200   0.456E-02
   1 F= -.41122040E+03 E0= -.41122040E+03  d E =0.000000E+00  mag=    -0.0000
