 vasp.5.4.4.18Apr17-6-g9f103f2a35 (build Jan 14 2022 15:04:31) complex          
  
 executed on             LinuxIFC date 2023.04.05  11:31:17
 running on   48 total cores
 distrk:  each k-point on   48 cores,    1 groups
 distr:  one band on NCORES_PER_BAND=  12 cores,    4 groups


--------------------------------------------------------------------------------------------------------


 INCAR:
 POTCAR:    PAW_PBE C 08Apr2002                   
 POTCAR:    PAW_PBE N 08Apr2002                   
 POTCAR:    PAW_PBE Ge_d 03Jul2007                
 POTCAR:    PAW_PBE C 08Apr2002                   
   SHA256 =  253f7b50bb8d59471dbedb8285d89021f4a42ed1a2c5d38a03a736e69125dd95 C/
   COPYR  = (c) Copyright 08Apr2002 Georg Kresse                                
   COPYR  = This file is part of the software VASP. Any use, copying, and all ot
   COPYR  = If you do not have a valid VASP license, you may not use, copy or di
   VRHFIN =C: s2p2                                                              
   LEXCH  = PE                                                                  
   EATOM  =   147.1560 eV,   10.8157 Ry                                         
                                                                                
   TITEL  = PAW_PBE C 08Apr2002                                                 
   LULTRA =        F    use ultrasoft PP ?                                      
   IUNSCR =        1    unscreen: 0-lin 1-nonlin 2-no                           
   RPACOR =    1.200    partial core radius                                     
   POMASS =   12.011; ZVAL   =    4.000    mass and valenz                      
   RCORE  =    1.500    outmost cutoff radius                                   
   RWIGS  =    1.630; RWIGS  =    0.863    wigner-seitz radius (au A)           
   ENMAX  =  400.000; ENMIN  =  300.000 eV                                      
   ICORE  =        2    local potential                                         
   LCOR   =        T    correct aug charges                                     
   LPAW   =        T    paw PP                                                  
   EAUG   =  644.873                                                            
   DEXC   =    0.000                                                            
   RMAX   =    1.529    core radius for proj-oper                               
   RAUG   =    1.300    factor for augmentation sphere                          
   RDEP   =    1.501    radius for radial grids                                 
   RDEPT  =    1.300    core radius for aug-charge                              
                                                                                
   Atomic configuration                                                         
    4 entries                                                                   
     n  l   j            E        occ.                                          
     1  0  0.50      -273.3789   2.0000                                         
     2  0  0.50       -13.7508   2.0000                                         
     2  1  0.50        -5.2854   2.0000                                         
     3  2  1.50        -5.4423   0.0000                                         
   Description                                                                  
     l       E           TYP  RCUT    TYP  RCUT                                 
     0    -13.7508458     23  1.200                                             
     0     -8.2022199     23  1.200                                             
     1     -5.2854383     23  1.500                                             
     1     34.0145650     23  1.500                                             
     2     -5.4423304      7  1.500                                             
  local pseudopotential read in
  partial core-charges read in
  partial kinetic energy density read in
  atomic valenz-charges read in
  non local Contribution for L=           0  read in
    real space projection operators read in
  non local Contribution for L=           0  read in
    real space projection operators read in
  non local Contribution for L=           1  read in
    real space projection operators read in
  non local Contribution for L=           1  read in
    real space projection operators read in
    PAW grid and wavefunctions read in
 
   number of l-projection  operators is LMAX  =           4
   number of lm-projection operators is LMMAX =           8
 
 POTCAR:    PAW_PBE N 08Apr2002                   
   SHA256 =  e053789ff3a61a86a1b75d8a110fcc91f86041011e7b0817c7c99e4e8a6349d7 N/
   COPYR  = (c) Copyright 08Apr2002 Georg Kresse                                
   COPYR  = This file is part of the software VASP. Any use, copying, and all ot
   COPYR  = If you do not have a valid VASP license, you may not use, copy or di
   VRHFIN =N: s2p3                                                              
   LEXCH  = PE                                                                  
   EATOM  =   264.5486 eV,   19.4438 Ry                                         
                                                                                
   TITEL  = PAW_PBE N 08Apr2002                                                 
   LULTRA =        F    use ultrasoft PP ?                                      
   IUNSCR =        1    unscreen: 0-lin 1-nonlin 2-no                           
   RPACOR =    1.200    partial core radius                                     
   POMASS =   14.001; ZVAL   =    5.000    mass and valenz                      
   RCORE  =    1.500    outmost cutoff radius                                   
   RWIGS  =    1.400; RWIGS  =    0.741    wigner-seitz radius (au A)           
   ENMAX  =  400.000; ENMIN  =  300.000 eV                                      
   ICORE  =        2    local potential                                         
   LCOR   =        T    correct aug charges                                     
   LPAW   =        T    paw PP                                                  
   EAUG   =  627.112                                                            
   DEXC   =    0.000                                                            
   RMAX   =    1.529    core radius for proj-oper                               
   RAUG   =    1.300    factor for augmentation sphere                          
   RDEP   =    1.514    radius for radial grids                                 
   RDEPT  =    1.338    core radius for aug-charge                              
                                                                                
   Atomic configuration                                                         
    4 entries                                                                   
     n  l   j            E        occ.                                          
     1  0  0.50      -384.7179   2.0000                                         
     2  0  0.50       -18.5828   2.0000                                         
     2  1  0.50        -7.0898   3.0000                                         
     3  2  1.50        -6.8029   0.0000                                         
   Description                                                                  
     l       E           TYP  RCUT    TYP  RCUT                                 
     0    -18.5828119     23  1.200                                             
     0    -13.5018863     23  1.200                                             
     1     -7.0897853     23  1.500                                             
     1      9.5240782     23  1.500                                             
     2     -6.8029130      7  1.500                                             
  local pseudopotential read in
  partial core-charges read in
  partial kinetic energy density read in
  atomic valenz-charges read in
  non local Contribution for L=           0  read in
    real space projection operators read in
  non local Contribution for L=           0  read in
    real space projection operators read in
  non local Contribution for L=           1  read in
    real space projection operators read in
  non local Contribution for L=           1  read in
    real space projection operators read in
    PAW grid and wavefunctions read in
 
   number of l-projection  operators is LMAX  =           4
   number of lm-projection operators is LMMAX =           8
 
 POTCAR:    PAW_PBE Ge_d 03Jul2007                
   SHA256 =  944b26c40d2d7c4f4eb1ff3a2e8dbfdd7129146276cd341854bfd5c0e57780ed Ge
   COPYR  = (c) Copyright 03Jul2007 Georg Kresse                                
   COPYR  = This file is part of the software VASP. Any use, copying, and all ot
   COPYR  = If you do not have a valid VASP license, you may not use, copy or di
   VRHFIN =Ge: 3d4s4p                                                           
   LEXCH  = PE                                                                  
   EATOM  =  2596.2402 eV,  190.8183 Ry                                         
                                                                                
   TITEL  = PAW_PBE Ge_d 03Jul2007                                              
   LULTRA =        F    use ultrasoft PP ?                                      
   IUNSCR =        1    unscreen: 0-lin 1-nonlin 2-no                           
   RPACOR =    2.000    partial core radius                                     
   POMASS =   72.610; ZVAL   =   14.000    mass and valenz                      
   RCORE  =    2.300    outmost cutoff radius                                   
   RWIGS  =    2.300; RWIGS  =    1.217    wigner-seitz radius (au A)           
   ENMAX  =  310.294; ENMIN  =  232.720 eV                                      
   ICORE  =        3    local potential                                         
   LCOR   =        T    correct aug charges                                     
   LPAW   =        T    paw PP                                                  
   EAUG   =  531.356                                                            
   DEXC   =    0.000                                                            
   RMAX   =    2.342    core radius for proj-oper                               
   RAUG   =    1.300    factor for augmentation sphere                          
   RDEP   =    2.318    radius for radial grids                                 
   RDEPT  =    1.783    core radius for aug-charge                              
                                                                                
   Atomic configuration                                                         
    9 entries                                                                   
     n  l   j            E        occ.                                          
     1  0  0.50    -10959.8463   2.0000                                         
     2  0  0.50     -1371.6056   2.0000                                         
     2  1  1.50     -1198.4791   6.0000                                         
     3  0  0.50      -168.4733   2.0000                                         
     3  1  1.50      -115.6019   6.0000                                         
     3  2  2.50       -29.3106  10.0000                                         
     4  0  0.50       -11.7309   2.0000                                         
     4  1  0.50        -3.8952   2.0000                                         
     4  3  2.50        -4.0817   0.0000                                         
   Description                                                                  
     l       E           TYP  RCUT    TYP  RCUT                                 
     2    -29.3105938     23  2.200                                             
     2    -13.6058260     23  2.200                                             
     0    -11.7309493     23  2.300                                             
     0     -7.4578696     23  2.300                                             
     1     -3.8952261     23  2.300                                             
     1      6.1178114     23  2.300                                             
     3     -1.3605826     23  2.300                                             
  local pseudopotential read in
  partial core-charges read in
  partial kinetic energy density read in
  atomic valenz-charges read in
  non local Contribution for L=           2  read in
    real space projection operators read in
  non local Contribution for L=           2  read in
    real space projection operators read in
  non local Contribution for L=           0  read in
    real space projection operators read in
  non local Contribution for L=           0  read in
    real space projection operators read in
  non local Contribution for L=           1  read in
    real space projection operators read in
  non local Contribution for L=           1  read in
    real space projection operators read in
    PAW grid and wavefunctions read in
 
   number of l-projection  operators is LMAX  =           6
   number of lm-projection operators is LMMAX =          18
 

 ----------------------------------------------------------------------------- 
|                                                                             |
|  ADVICE TO THIS USER RUNNING 'VASP/VAMP'   (HEAR YOUR MASTER'S VOICE ...):  |
|                                                                             |
|      You have a (more or less) 'large supercell' and for larger cells       |
|      it might be more efficient to use real space projection opertators     |
|      So try LREAL= Auto  in the INCAR   file.                               |
|      Mind:          For very  accurate calculation you might also keep the  |
|      reciprocal projection scheme          (i.e. LREAL=.FALSE.)             |
|                                                                             |
 ----------------------------------------------------------------------------- 

  PAW_PBE C 08Apr2002                   :
 energy of atom  1       EATOM= -147.1560
 kinetic energy error for atom=    0.0132 (will be added to EATOM!!)
  PAW_PBE N 08Apr2002                   :
 energy of atom  2       EATOM= -264.5486
 kinetic energy error for atom=    0.0298 (will be added to EATOM!!)
  PAW_PBE Ge_d 03Jul2007                :
 energy of atom  3       EATOM=-2596.2402
 kinetic energy error for atom=    0.0090 (will be added to EATOM!!)
 
 
 POSCAR: POSCAR-c3n4                             
  positions in cartesian coordinates
  No initial velocities read in
 exchange correlation table for  LEXCH =        8
   RHO(1)=    0.500       N(1)  =     2000
   RHO(2)=  100.500       N(2)  =     4000

 VTST: version 3.2, (02/03/18)

 CHAIN: initializing optimizer
 
 OPT: Using VASP Dynamics algorithm
 CHAIN: Read ICHAIN            0
 
 POSCAR: POSCAR-c3n4                             
  positions in cartesian coordinates
  No initial velocities read in
 


--------------------------------------------------------------------------------------------------------


 ion  position               nearest neighbor table
   1  0.106  0.214  0.426-  26 1.39  46 1.40  25 1.47
   2  0.288  0.399  0.433-  29 1.37  35 1.44  25 1.49
   3  0.104  0.392  0.427-  44 1.37  39 1.43  25 1.49
   4  0.447  0.064  0.506-  30 1.38  27 1.39  48 1.47
   5  0.453  0.401  0.413-  28 1.38  29 1.39  56 1.48
   6  0.112  0.053  0.449-  26 1.38  31 1.39  32 1.46
   7  0.096  0.712  0.484-  54 1.38  34 1.41  33 1.46
   8  0.284  0.890  0.501-  27 1.39  37 1.40  33 1.47
   9  0.109  0.895  0.498-  31 1.38  52 1.40  33 1.49
  10  0.448  0.548  0.502-  38 1.38  56 1.41  35 1.41
  11  0.445  0.885  0.489-  37 1.39  36 1.39  48 1.44
  12  0.087  0.542  0.481-  34 1.37  40 1.40  39 1.41
  13  0.616  0.223  0.473-  42 1.40  30 1.41  41 1.46
  14  0.780  0.390  0.400-  45 1.40  51 1.42  41 1.46
  15  0.610  0.394  0.435-  28 1.39  55 1.40  41 1.51
  16  0.940  0.052  0.461-  46 1.37  43 1.39  32 1.45
  17  0.941  0.387  0.394-  45 1.37  44 1.40  40 1.48
  18  0.623  0.066  0.512-  42 1.38  47 1.39  48 1.47
  19  0.613  0.711  0.531-  50 1.38  38 1.42  49 1.46
  20  0.790  0.897  0.523-  43 1.38  53 1.39  49 1.50
  21  0.609  0.892  0.521-  47 1.39  36 1.40  49 1.49
  22  0.938  0.563  0.421-  51 1.36  54 1.40  40 1.48
  23  0.954  0.902  0.535-  52 1.39  53 1.39  32 1.45
  24  0.621  0.555  0.490-  55 1.37  50 1.38  56 1.47
  25  0.167  0.335  0.425-   1 1.47   3 1.49   2 1.49
  26  0.165  0.161  0.421-   6 1.38   1 1.39
  27  0.336  0.002  0.522-   8 1.39   4 1.39
  28  0.512  0.352  0.392-   5 1.38  15 1.39
  29  0.345  0.361  0.390-   2 1.37   5 1.39
  30  0.506  0.177  0.493-   4 1.38  13 1.41
  31  0.159  0.988  0.447-   9 1.38   6 1.39
  32  0.002  0.002  0.483-  16 1.45  23 1.45   6 1.46
  33  0.165  0.831  0.500-   7 1.46   8 1.47   9 1.49
  34  0.134  0.645  0.518-  12 1.37   7 1.41
  35  0.334  0.491  0.492-  10 1.41   2 1.44  57 2.15
  36  0.503  0.831  0.490-  11 1.39  21 1.40
  37  0.333  0.829  0.479-  11 1.39   8 1.40
  38  0.499  0.648  0.545-  10 1.38  19 1.42
  39  0.142  0.484  0.485-  12 1.41   3 1.43  57 2.16
  40  0.988  0.496  0.436-  12 1.40  22 1.48  17 1.48
  41  0.667  0.330  0.429-  13 1.46  14 1.46  15 1.51
  42  0.680  0.178  0.495-  18 1.38  13 1.40
  43  0.827  0.986  0.468-  20 1.38  16 1.39
  44  0.011  0.348  0.379-   3 1.37  17 1.40
  45  0.830  0.330  0.380-  17 1.37  14 1.40
  46  0.993  0.161  0.435-  16 1.37   1 1.40
  47  0.669  0.005  0.539-  21 1.39  18 1.39
  48  0.505  0.004  0.498-  11 1.44  18 1.47   4 1.47
  49  0.668  0.832  0.534-  19 1.46  21 1.49  20 1.50
  50  0.675  0.666  0.512-  19 1.38  24 1.38
  51  0.832  0.507  0.396-  22 1.36  14 1.42
  52  0.016  0.853  0.549-  23 1.39   9 1.40
  53  0.849  0.860  0.566-  20 1.39  23 1.39
  54  0.004  0.677  0.435-   7 1.38  22 1.40
  55  0.668  0.491  0.484-  24 1.37  15 1.40
  56  0.506  0.502  0.467-  10 1.41  24 1.47   5 1.48
  57  0.287  0.593  0.558-  35 2.15  39 2.16
 

IMPORTANT INFORMATION: All symmetrisations will be switched off!
NOSYMM: (Re-)initialisation of all symmetry stuff for point group C_1.

 
 
 KPOINTS: K-Points                                

Automatic generation of k-mesh.
Space group operators:
 irot       det(A)        alpha          n_x          n_y          n_z        tau_x        tau_y        tau_z
    1     1.000000     0.000000     1.000000     0.000000     0.000000     0.000000     0.000000     0.000000
 
 Subroutine IBZKPT returns following result:
 ===========================================
 
 Found      5 irreducible k-points:
 
 Following reciprocal coordinates:
            Coordinates               Weight
  0.000000  0.000000  0.000000      1.000000
  0.333333 -0.000000  0.000000      2.000000
  0.000000  0.333333  0.000000      2.000000
  0.333333  0.333333  0.000000      2.000000
 -0.333333  0.333333  0.000000      2.000000
 
 Following cartesian coordinates:
            Coordinates               Weight
  0.000000  0.000000  0.000000      1.000000
  0.024277  0.014368  0.000000      2.000000
  0.000396  0.028736  0.000000      2.000000
  0.024673  0.043104  0.000000      2.000000
 -0.023881  0.014368  0.000000      2.000000
 
 TETIRR: Found     24 inequivalent tetrahedra from       54


--------------------------------------------------------------------------------------------------------




 Dimension of arrays:
   k-points           NKPTS =      5   k-points in BZ     NKDIM =      5   number of bands    NBANDS=    168
   number of dos      NEDOS =   4000   number of ions     NIONS =     57
   non local maximal  LDIM  =      6   non local SUM 2l+1 LMDIM =     18
   total plane-waves  NPLWV = 512000
   max r-space proj   IRMAX =      1   max aug-charges    IRDMAX=   6554
   dimension x,y,z NGX =    80 NGY =   80 NGZ =   80
   dimension x,y,z NGXF=   160 NGYF=  160 NGZF=  160
   support grid    NGXF=   160 NGYF=  160 NGZF=  160
   ions per type =              24  32   1
   NGX,Y,Z   is equivalent  to a cutoff of   9.24,  9.41,  8.53 a.u.
   NGXF,Y,Z  is equivalent  to a cutoff of  18.47, 18.82, 17.05 a.u.

 SYSTEM =  unknown system                          
 POSCAR =  POSCAR-c3n4                             

 Startparameter for this run:
   NWRITE =      2    write-flag & timer
   PREC   = normal    normal or accurate (medium, high low for compatibility)
   ISTART =      0    job   : 0-new  1-cont  2-samecut
   ICHARG =      2    charge: 1-file 2-atom 10-const
   ISPIN  =      2    spin polarized calculation?
   LNONCOLLINEAR =      F non collinear calculations
   LSORBIT =      F    spin-orbit coupling
   INIWAV =      1    electr: 0-lowe 1-rand  2-diag
   LASPH  =      F    aspherical Exc in radial PAW
   METAGGA=      F    non-selfconsistent MetaGGA calc.

 Electronic Relaxation 1
   ENCUT  =  440.0 eV  32.34 Ry    5.69 a.u.  24.63 24.17 26.68*2*pi/ulx,y,z
   ENINI  =  440.0     initial cutoff
   ENAUG  =  644.9 eV  augmentation charge cutoff
   NELM   =    100;   NELMIN=  2; NELMDL= -5     # of ELM steps 
   EDIFF  = 0.1E-03   stopping-criterion for ELM
   LREAL  =      F    real-space projection
   NLSPLINE    = F    spline interpolate recip. space projectors
   LCOMPAT=      F    compatible to vasp.4.4
   GGA_COMPAT  = T    GGA compatible to vasp.4.4-vasp.4.6
   LMAXPAW     = -100 max onsite density
   LMAXMIX     =    2 max onsite mixed and CHGCAR
   VOSKOWN=      0    Vosko Wilk Nusair interpolation
   ROPT   =    0.00000   0.00000   0.00000
 Ionic relaxation
   EDIFFG = -.1E-01   stopping-criterion for IOM
   NSW    =      0    number of steps for IOM
   NBLOCK =      1;   KBLOCK =      1    inner block; outer block 
   IBRION =     -1    ionic relax: 0-MD 1-quasi-New 2-CG
   NFREE  =      0    steps in history (QN), initial steepest desc. (CG)
   ISIF   =      2    stress and relaxation
   IWAVPR =     10    prediction:  0-non 1-charg 2-wave 3-comb
   ISYM   =      0    0-nonsym 1-usesym 2-fastsym
   LCORR  =      T    Harris-Foulkes like correction to forces

   POTIM  = 0.5000    time-step for ionic-motion
   TEIN   =    0.0    initial temperature
   TEBEG  =    0.0;   TEEND  =   0.0 temperature during run
   SMASS  =  -3.00    Nose mass-parameter (am)
   estimated Nose-frequenzy (Omega)   =  0.10E-29 period in steps =****** mass=  -0.474E-26a.u.
   SCALEE = 1.0000    scale energy and forces
   NPACO  =    256;   APACO  = 16.0  distance and # of slots for P.C.
   PSTRESS=    0.0 pullay stress

  Mass of Ions in am
   POMASS =  12.01 14.00 72.61
  Ionic Valenz
   ZVAL   =   4.00  5.00 14.00
  Atomic Wigner-Seitz radii
   RWIGS  =  -1.00 -1.00 -1.00
  virtual crystal weights 
   VCA    =   1.00  1.00  1.00
   NELECT =     270.0000    total number of electrons
   NUPDOWN=      -1.0000    fix difference up-down

 DOS related values:
   EMIN   = -14.00;   EMAX   =  6.00  energy-range for DOS
   EFERMI =   0.00
   ISMEAR =    -5;   SIGMA  =   0.20  broadening in eV -4-tet -1-fermi 0-gaus

 Electronic relaxation 2 (details)
   IALGO  =     38    algorithm
   LDIAG  =      T    sub-space diagonalisation (order eigenvalues)
   LSUBROT=      F    optimize rotation matrix (better conditioning)
   TURBO    =      0    0=normal 1=particle mesh
   IRESTART =      0    0=no restart 2=restart with 2 vectors
   NREBOOT  =      0    no. of reboots
   NMIN     =      0    reboot dimension
   EREF     =   0.00    reference energy to select bands
   IMIX   =      4    mixing-type and parameters
     AMIX     =   0.25;   BMIX     =  0.00
     AMIX_MAG =   1.00;   BMIX_MAG =  0.00
     AMIN     =   0.10
     WC   =   100.;   INIMIX=   1;  MIXPRE=   1;  MAXMIX= -45

 Intra band minimization:
   WEIMIN = 0.0000     energy-eigenvalue tresh-hold
   EBREAK =  0.15E-06  absolut break condition
   DEPER  =   0.30     relativ break condition  

   TIME   =   0.40     timestep for ELM

  volume/ion in A,a.u.               =      47.53       320.78
  Fermi-wavevector in a.u.,A,eV,Ry     =   0.758987  1.434277  7.837779  0.576061
  Thomas-Fermi vector in A             =   1.857680
 
 Write flags
   LWAVE        =      F    write WAVECAR
   LDOWNSAMPLE  =      F    k-point downsampling of WAVECAR
   LCHARG       =      F    write CHGCAR
   LVTOT        =      F    write LOCPOT, total local potential
   LVHAR        =      F    write LOCPOT, Hartree potential only
   LELF         =      F    write electronic localiz. function (ELF)
   LORBIT       =     11    0 simple, 1 ext, 2 COOP (PROOUT), +10 PAW based schemes


 Dipole corrections
   LMONO  =      F    monopole corrections only (constant potential shift)
   LDIPOL =      F    correct potential (dipole corrections)
   IDIPOL =      0    1-x, 2-y, 3-z, 4-all directions 
   EPSILON=  1.0000000 bulk dielectric constant

 Exchange correlation treatment:
   GGA     =    --    GGA type
   LEXCH   =     8    internal setting for exchange type
   VOSKOWN=      0    Vosko Wilk Nusair interpolation
   LHFCALC =     F    Hartree Fock is set to
   LHFONE  =     F    Hartree Fock one center treatment
   AEXX    =    0.0000 exact exchange contribution

 Linear response parameters
   LEPSILON=     F    determine dielectric tensor
   LRPA    =     F    only Hartree local field effects (RPA)
   LNABLA  =     F    use nabla operator in PAW spheres
   LVEL    =     F    velocity operator in full k-point grid
   LINTERFAST=   F  fast interpolation
   KINTER  =     0    interpolate to denser k-point grid
   CSHIFT  =0.1000    complex shift for real part using Kramers Kronig
   OMEGAMAX=  -1.0    maximum frequency
   DEG_THRESHOLD= 0.2000000E-02 threshold for treating states as degnerate
   RTIME   =   -0.100 relaxation time in fs
  (WPLASMAI=    0.000 imaginary part of plasma frequency in eV, 0.658/RTIME)
   DFIELD  = 0.0000000 0.0000000 0.0000000 field for delta impulse in time
 
 Orbital magnetization related:
   ORBITALMAG=     F  switch on orbital magnetization
   LCHIMAG   =     F  perturbation theory with respect to B field
   DQ        =  0.001000  dq finite difference perturbation B field
   LLRAUG    =     F  two centre corrections for induced B field



--------------------------------------------------------------------------------------------------------


 Static calculation
 charge density and potential will be updated during run
 spin polarized calculation
 Variant of blocked Davidson
 Davidson routine will perform the subspace rotation
 perform sub-space diagonalisation
    after iterative eigenvector-optimisation
 modified Broyden-mixing scheme, WC =      100.0
 initial mixing is a Kerker type mixing with AMIX =  0.2500 and BMIX =      0.0001
 Hartree-type preconditioning will be used
 using additional bands           33
 reciprocal scheme for non local part
 use partial core corrections
 calculate Harris-corrections to forces 
   (improved forces if not selfconsistent)
 use gradient corrections 
 use of overlap-Matrix (Vanderbilt PP)
 Fermi weights with tetrahedron method with Bloechl corrections


--------------------------------------------------------------------------------------------------------


  energy-cutoff  :      440.00
  volume of cell :     2709.48
      direct lattice vectors                 reciprocal lattice vectors
    14.397161204 -0.198370093  0.000000000     0.070029201  0.041446264  0.000000000
    -7.198580602 12.162998634  0.000000000     0.001142128  0.082892528  0.000000000
     0.000000000  0.000000000 15.600000000     0.000000000  0.000000000  0.064102564

  length of vectors
    14.398527752 14.133580525 15.600000000     0.081374946  0.082900396  0.064102564


 
 k-points in units of 2pi/SCALE and weight: K-Points                                
   0.00000000  0.00000000  0.00000000       0.111
   0.02427679  0.01436804  0.00000000       0.222
   0.00039594  0.02873608  0.00000000       0.222
   0.02467273  0.04310411  0.00000000       0.222
  -0.02388085  0.01436804  0.00000000       0.222
 
 k-points in reciprocal lattice and weights: K-Points                                
   0.00000000  0.00000000  0.00000000       0.111
   0.33333333 -0.00000000  0.00000000       0.222
   0.00000000  0.33333333  0.00000000       0.222
   0.33333333  0.33333333  0.00000000       0.222
  -0.33333333  0.33333333  0.00000000       0.222
 
 position of ions in fractional coordinates (direct lattice) 
   0.10567936  0.21351909  0.42646415
   0.28750403  0.39866334  0.43315811
   0.10379301  0.39177313  0.42728737
   0.44732828  0.06383887  0.50569377
   0.45258916  0.40124889  0.41252546
   0.11203481  0.05273921  0.44868132
   0.09638015  0.71191070  0.48390127
   0.28433946  0.89006364  0.50120122
   0.10941441  0.89537413  0.49812536
   0.44792521  0.54827090  0.50190381
   0.44544784  0.88520183  0.48897001
   0.08690842  0.54210436  0.48067119
   0.61614813  0.22292684  0.47270451
   0.78023735  0.38968276  0.39988272
   0.61037743  0.39432339  0.43546161
   0.93951642  0.05229783  0.46070020
   0.94071854  0.38652888  0.39388003
   0.62278394  0.06558106  0.51203168
   0.61322902  0.71118454  0.53124878
   0.78984871  0.89727295  0.52288011
   0.60944297  0.89248269  0.52132702
   0.93832005  0.56283419  0.42050954
   0.95436023  0.90171878  0.53466451
   0.62130548  0.55465507  0.48986027
   0.16668926  0.33545237  0.42502835
   0.16473950  0.16097029  0.42095206
   0.33626584  0.00180669  0.52215766
   0.51175722  0.35246859  0.39238613
   0.34471728  0.36074551  0.38975287
   0.50565751  0.17673507  0.49315170
   0.15873210  0.98821904  0.44665654
   0.00214731  0.00186372  0.48284181
   0.16462634  0.83083069  0.50025956
   0.13400723  0.64526801  0.51778798
   0.33371346  0.49116238  0.49155062
   0.50288345  0.83078126  0.48972341
   0.33307237  0.82932770  0.47937372
   0.49902190  0.64803204  0.54483375
   0.14173676  0.48364631  0.48511610
   0.98839512  0.49595573  0.43598798
   0.66736443  0.33015381  0.42931770
   0.67970142  0.17802103  0.49523771
   0.82720183  0.98622484  0.46784919
   0.01097216  0.34809993  0.37880244
   0.83047981  0.33016544  0.37952861
   0.99296173  0.16101876  0.43513088
   0.66886761  0.00524437  0.53948092
   0.50484899  0.00388347  0.49830916
   0.66830364  0.83227641  0.53419919
   0.67536455  0.66551462  0.51246466
   0.83211404  0.50666912  0.39574663
   0.01584380  0.85299492  0.54867721
   0.84924332  0.85956436  0.56604968
   0.00424175  0.67726383  0.43455477
   0.66753141  0.49127771  0.48382075
   0.50565566  0.50179634  0.46716125
   0.28676550  0.59288202  0.55779478
 
 position of ions in cartesian coordinates  (Angst):
  -0.01555154  2.57606872  6.65284076
   1.26943164  4.79190944  6.75726657
  -1.32588583  4.74454663  6.66568298
   5.98070813  0.68773550  7.88882275
   3.62757653  4.79060958  6.43539718
   1.23333578  0.61924262  6.99942861
  -3.73714602  8.63984995  7.54885984
  -2.31351384 10.76943837  7.81873907
  -4.87016602 10.86872979  7.77075559
   2.50207924  6.57976325  7.82969940
   0.04098767 10.67834514  7.62793208
  -2.65114748  6.57637461  7.49847051
   7.26602712  2.58923350  7.37419031
   8.42804010  4.58493516  6.23817042
   5.94913348  4.67507427  6.79320116
  13.14989927  0.44972644  7.18692315
  10.76121720  4.51473985  6.14452850
   8.49423023  0.67412058  7.98769416
   3.70923787  8.52849032  8.28748093
   4.91248752 10.75684734  8.15692964
   2.34964007 10.73437043  8.13270155
   9.45753772  6.65961689  6.55994883
   7.24898269 10.77828779  8.34076642
   4.95230596  6.62302047  7.64182016
  -0.01492877  4.04704058  6.63044223
   1.21302359  1.92520198  6.56685212
   4.82826785 -0.04473035  8.14565944
   4.83057770  4.18555762  6.12122370
   2.36609459  4.31936556  6.08014483
   6.00779098  2.04932115  7.69316649
  -4.82848286 11.98821915  6.96784207
   0.01749905  0.02224246  7.53233229
  -3.61064964 10.07273557  7.80404918
  -2.71569008  7.82181087  8.07749244
   1.26885456  5.90780854  7.66818966
   1.25964827 10.00503423  7.63968527
  -1.17468571 10.02104007  7.47823008
   2.51958788  7.78302180  8.49940653
  -1.44095997  5.85447302  7.56781119
  10.65990661  5.83624087  6.80141244
   7.23151447  3.88327523  6.69735615
   8.50427223  2.03043710  7.72570827
   4.80993915 11.83135926  7.29844733
  -2.34785745  4.23176237  5.90931807
   9.57982914  3.85105944  5.92064633
  13.13672352  1.76149704  6.78804166
   9.59204288 -0.06889611  8.41590229
   7.24043685 -0.05291230  7.77362289
   3.63046649  9.99040535  8.33350742
   4.93257162  7.96068130  7.99444867
   8.33278141  5.99754930  6.17364742
  -5.91224700 10.37183313  8.55936452
   6.03904964 10.28641571  8.83037500
  -4.81426917  8.23671764  6.77905442
   6.07405505  5.84299186  7.54760366
   3.66778462  6.00304128  7.28771546
  -0.13929991  7.15433756  8.70159862
 


--------------------------------------------------------------------------------------------------------


 k-point  1 :   0.0000 0.0000 0.0000  plane waves:   56765
 k-point  2 :   0.3333-0.0000 0.0000  plane waves:   56781
 k-point  3 :   0.0000 0.3333 0.0000  plane waves:   56808
 k-point  4 :   0.3333 0.3333 0.0000  plane waves:   56813
 k-point  5 :  -0.3333 0.3333 0.0000  plane waves:   56795

 maximum and minimum number of plane-waves per node :      4761     4701

 maximum number of plane-waves:     56813
 maximum index in each direction: 
   IXMAX=   24   IYMAX=   24   IZMAX=   26
   IXMIN=  -24   IYMIN=  -24   IZMIN=  -26


 parallel 3D FFT for wavefunctions:
    minimum data exchange during FFTs selected (reduces bandwidth)
 parallel 3D FFT for charge:
    minimum data exchange during FFTs selected (reduces bandwidth)


 total amount of memory used by VASP MPI-rank0    94401. kBytes
=======================================================================

   base      :      30000. kBytes
   nonl-proj :      14585. kBytes
   fftplans  :       4700. kBytes
   grid      :      12705. kBytes
   one-center:        155. kBytes
   wavefun   :      32256. kBytes
 
     INWAV:  cpu time    0.0000: real time    0.0001
 Broyden mixing: mesh for mixing (old mesh)
   NGX = 49   NGY = 49   NGZ = 53
  (NGX  =160   NGY  =160   NGZ  =160)
  gives a total of 127253 points

 initial charge density was supplied:
 charge density of overlapping atoms calculated
 number of electron     270.0000000 magnetization       1.0000000
 keeping initial charge density in first step


--------------------------------------------------------------------------------------------------------


 Maximum index for augmentation-charges          352 (set IRDMAX)


--------------------------------------------------------------------------------------------------------


 First call to EWALD:  gamma=   0.127
 Maximum number of real-space cells 3x 3x 3
 Maximum number of reciprocal cells 3x 3x 3

    FEWALD:  cpu time    0.0048: real time    0.0054


--------------------------------------- Iteration      1(   1)  ---------------------------------------


    POTLOK:  cpu time    0.2108: real time    0.2396
    SETDIJ:  cpu time    0.0089: real time    0.0097
     EDDAV:  cpu time    8.5081: real time    8.6130
 BZINTS: Fermi energy:  8.473329;270.000000 electrons
         Band energy:***********;  BLOECHL correction: -0.004634
       DOS:  cpu time    0.1185: real time    0.1189
    --------------------------------------------
      LOOP:  cpu time    8.8462: real time    8.9813

 eigenvalue-minimisations  :  3888
 total energy-change (2. order) : 0.2487334E+04  (-0.9695924E+04)
 number of electron     270.0000000 magnetization       1.0000000
 augmentation part      270.0000000 magnetization       1.0000000

 Free energy of the ion-electron system (eV)
  ---------------------------------------------------
  alpha Z        PSCENC =       128.25868162
  Ewald energy   TEWEN  =     26330.12939784
  -Hartree energ DENC   =    -37861.27628188
  -exchange      EXHF   =         0.00000000
  -V(xc)+E(xc)   XCENC  =      1013.55382227
  PAW double counting   =     10998.91041168   -11485.61342155
  entropy T*S    EENTRO =         0.00000000
  eigenvalues    EBANDS =     -1228.88943631
  atomic energy  EATOM  =     14592.26033195
  Solvation  Ediel_sol  =         0.00000000
  ---------------------------------------------------
  free energy    TOTEN  =      2487.33350563 eV

  energy without entropy =     2487.33350563  energy(sigma->0) =     2487.33350563


--------------------------------------------------------------------------------------------------------




--------------------------------------- Iteration      1(   2)  ---------------------------------------


     EDDAV:  cpu time   11.1651: real time   11.4778
 BZINTS: Fermi energy: -0.396443;270.000000 electrons
         Band energy:***********;  BLOECHL correction:  0.000000
       DOS:  cpu time    0.0044: real time    0.0044
    --------------------------------------------
      LOOP:  cpu time   11.1695: real time   11.4822

 eigenvalue-minimisations  :  4784
 total energy-change (2. order) :-0.2435439E+04  (-0.2329173E+04)
 number of electron     270.0000000 magnetization       1.0000000
 augmentation part      270.0000000 magnetization       1.0000000

 Free energy of the ion-electron system (eV)
  ---------------------------------------------------
  alpha Z        PSCENC =       128.25868162
  Ewald energy   TEWEN  =     26330.12939784
  -Hartree energ DENC   =    -37861.27628188
  -exchange      EXHF   =         0.00000000
  -V(xc)+E(xc)   XCENC  =      1013.55382227
  PAW double counting   =     10998.91041168   -11485.61342155
  entropy T*S    EENTRO =         0.00000000
  eigenvalues    EBANDS =     -3664.32846383
  atomic energy  EATOM  =     14592.26033195
  Solvation  Ediel_sol  =         0.00000000
  ---------------------------------------------------
  free energy    TOTEN  =        51.89447810 eV

  energy without entropy =       51.89447810  energy(sigma->0) =       51.89447810


--------------------------------------------------------------------------------------------------------




--------------------------------------- Iteration      1(   3)  ---------------------------------------


     EDDAV:  cpu time    9.6003: real time    9.8037
 BZINTS: Fermi energy: -3.539287;270.000000 electrons
         Band energy:***********;  BLOECHL correction: -0.007404
       DOS:  cpu time    0.0103: real time    0.0104
    --------------------------------------------
      LOOP:  cpu time    9.6106: real time    9.8140

 eigenvalue-minimisations  :  4080
 total energy-change (2. order) :-0.5278859E+03  (-0.5229223E+03)
 number of electron     270.0000000 magnetization       1.0000000
 augmentation part      270.0000000 magnetization       1.0000000

 Free energy of the ion-electron system (eV)
  ---------------------------------------------------
  alpha Z        PSCENC =       128.25868162
  Ewald energy   TEWEN  =     26330.12939784
  -Hartree energ DENC   =    -37861.27628188
  -exchange      EXHF   =         0.00000000
  -V(xc)+E(xc)   XCENC  =      1013.55382227
  PAW double counting   =     10998.91041168   -11485.61342155
  entropy T*S    EENTRO =         0.00000000
  eigenvalues    EBANDS =     -4192.21434695
  atomic energy  EATOM  =     14592.26033195
  Solvation  Ediel_sol  =         0.00000000
  ---------------------------------------------------
  free energy    TOTEN  =      -475.99140502 eV

  energy without entropy =     -475.99140502  energy(sigma->0) =     -475.99140502


--------------------------------------------------------------------------------------------------------




--------------------------------------- Iteration      1(   4)  ---------------------------------------


     EDDAV:  cpu time    9.8148: real time    9.9925
 BZINTS: Fermi energy: -3.996249;270.000000 electrons
         Band energy:***********;  BLOECHL correction:  0.000000
       DOS:  cpu time    0.0038: real time    0.0038
    --------------------------------------------
      LOOP:  cpu time    9.8186: real time    9.9963

 eigenvalue-minimisations  :  4192
 total energy-change (2. order) :-0.2298571E+02  (-0.2234559E+02)
 number of electron     270.0000000 magnetization       1.0000000
 augmentation part      270.0000000 magnetization       1.0000000

 Free energy of the ion-electron system (eV)
  ---------------------------------------------------
  alpha Z        PSCENC =       128.25868162
  Ewald energy   TEWEN  =     26330.12939784
  -Hartree energ DENC   =    -37861.27628188
  -exchange      EXHF   =         0.00000000
  -V(xc)+E(xc)   XCENC  =      1013.55382227
  PAW double counting   =     10998.91041168   -11485.61342155
  entropy T*S    EENTRO =         0.00000000
  eigenvalues    EBANDS =     -4215.20005537
  atomic energy  EATOM  =     14592.26033195
  Solvation  Ediel_sol  =         0.00000000
  ---------------------------------------------------
  free energy    TOTEN  =      -498.97711343 eV

  energy without entropy =     -498.97711343  energy(sigma->0) =     -498.97711343


--------------------------------------------------------------------------------------------------------




--------------------------------------- Iteration      1(   5)  ---------------------------------------


     EDDAV:  cpu time   11.2371: real time   11.4232
 BZINTS: Fermi energy: -4.021255;270.000000 electrons
         Band energy:***********;  BLOECHL correction:  0.000000
       DOS:  cpu time    0.0038: real time    0.0038
    CHARGE:  cpu time    0.1491: real time    0.1544
    MIXING:  cpu time    0.0034: real time    0.0053
    --------------------------------------------
      LOOP:  cpu time   11.3934: real time   11.5866

 eigenvalue-minimisations  :  5008
 total energy-change (2. order) :-0.1021303E+01  (-0.1010210E+01)
 number of electron     269.9999898 magnetization       0.0000001
 augmentation part       18.6961884 magnetization       0.0023220

 Broyden mixing:
  rms(total) = 0.37145E+01    rms(broyden)= 0.37115E+01
  rms(prec ) = 0.41137E+01
  weight for this iteration     100.00

 Free energy of the ion-electron system (eV)
  ---------------------------------------------------
  alpha Z        PSCENC =       128.25868162
  Ewald energy   TEWEN  =     26330.12939784
  -Hartree energ DENC   =    -37861.27628188
  -exchange      EXHF   =         0.00000000
  -V(xc)+E(xc)   XCENC  =      1013.55382227
  PAW double counting   =     10998.91041168   -11485.61342155
  entropy T*S    EENTRO =         0.00000000
  eigenvalues    EBANDS =     -4216.22135862
  atomic energy  EATOM  =     14592.26033195
  Solvation  Ediel_sol  =         0.00000000
  ---------------------------------------------------
  free energy    TOTEN  =      -499.99841669 eV

  energy without entropy =     -499.99841669  energy(sigma->0) =     -499.99841669


--------------------------------------------------------------------------------------------------------




--------------------------------------- Iteration      1(   6)  ---------------------------------------


    POTLOK:  cpu time    0.1376: real time    0.1409
    SETDIJ:  cpu time    0.0104: real time    0.0104
     EDDAV:  cpu time    9.3930: real time    9.4713
 BZINTS: Fermi energy: -3.896224;270.000000 electrons
         Band energy:***********;  BLOECHL correction:  0.000000
       DOS:  cpu time    0.0038: real time    0.0038
    CHARGE:  cpu time    0.1507: real time    0.1544
    MIXING:  cpu time    0.0036: real time    0.0065
    --------------------------------------------
      LOOP:  cpu time    9.6991: real time    9.7873

 eigenvalue-minimisations  :  4208
 total energy-change (2. order) : 0.2240562E+02  (-0.5415183E+01)
 number of electron     269.9999916 magnetization      -0.0000000
 augmentation part       17.5992745 magnetization      -0.0011090

 Broyden mixing:
  rms(total) = 0.22452E+01    rms(broyden)= 0.22447E+01
  rms(prec ) = 0.24013E+01
  weight for this iteration     100.00

 eigenvalues of (default mixing * dielectric matrix)
  average eigenvalue GAMMA=   1.3288
  1.3288

 Free energy of the ion-electron system (eV)
  ---------------------------------------------------
  alpha Z        PSCENC =       128.25868162
  Ewald energy   TEWEN  =     26330.12939784
  -Hartree energ DENC   =    -38097.06091737
  -exchange      EXHF   =         0.00000000
  -V(xc)+E(xc)   XCENC  =      1026.30366204
  PAW double counting   =     13905.67601767   -14393.65606281
  entropy T*S    EENTRO =         0.00000000
  eigenvalues    EBANDS =     -3969.50391158
  atomic energy  EATOM  =     14592.26033195
  Solvation  Ediel_sol  =         0.00000000
  ---------------------------------------------------
  free energy    TOTEN  =      -477.59280063 eV

  energy without entropy =     -477.59280063  energy(sigma->0) =     -477.59280063


--------------------------------------------------------------------------------------------------------




--------------------------------------- Iteration      1(   7)  ---------------------------------------


    POTLOK:  cpu time    0.1791: real time    0.1817
    SETDIJ:  cpu time    0.0106: real time    0.0106
     EDDAV:  cpu time    9.5360: real time    9.7192
 BZINTS: Fermi energy: -3.556139;270.000000 electrons
         Band energy:***********;  BLOECHL correction:  0.000000
       DOS:  cpu time    0.0037: real time    0.0037
    CHARGE:  cpu time    0.1487: real time    0.1534
    MIXING:  cpu time    0.0034: real time    0.0052
    --------------------------------------------
      LOOP:  cpu time    9.8815: real time   10.0738

 eigenvalue-minimisations  :  4296
 total energy-change (2. order) : 0.2659489E+01  (-0.2796566E+01)
 number of electron     269.9999927 magnetization      -0.0000000
 augmentation part       17.2854358 magnetization      -0.0021433

 Broyden mixing:
  rms(total) = 0.15200E+01    rms(broyden)= 0.15195E+01
  rms(prec ) = 0.16457E+01
  weight for this iteration     100.00

 eigenvalues of (default mixing * dielectric matrix)
  average eigenvalue GAMMA=   1.3995
  0.9116  1.8874

 Free energy of the ion-electron system (eV)
  ---------------------------------------------------
  alpha Z        PSCENC =       128.25868162
  Ewald energy   TEWEN  =     26330.12939784
  -Hartree energ DENC   =    -38287.76088044
  -exchange      EXHF   =         0.00000000
  -V(xc)+E(xc)   XCENC  =      1034.47049603
  PAW double counting   =     17277.57339292   -17767.44298296
  entropy T*S    EENTRO =         0.00000000
  eigenvalues    EBANDS =     -3782.42174828
  atomic energy  EATOM  =     14592.26033195
  Solvation  Ediel_sol  =         0.00000000
  ---------------------------------------------------
  free energy    TOTEN  =      -474.93331131 eV

  energy without entropy =     -474.93331131  energy(sigma->0) =     -474.93331131


--------------------------------------------------------------------------------------------------------




--------------------------------------- Iteration      1(   8)  ---------------------------------------


    POTLOK:  cpu time    0.1367: real time    0.1412
    SETDIJ:  cpu time    0.0100: real time    0.0100
     EDDAV:  cpu time    8.8494: real time    8.9751
 BZINTS: Fermi energy: -3.139785;270.000000 electrons
         Band energy:***********;  BLOECHL correction:  0.000000
       DOS:  cpu time    0.0036: real time    0.0036
    CHARGE:  cpu time    0.1490: real time    0.1509
    MIXING:  cpu time    0.0036: real time    0.0036
    --------------------------------------------
      LOOP:  cpu time    9.1522: real time    9.2843

 eigenvalue-minimisations  :  4008
 total energy-change (2. order) : 0.1576727E+01  (-0.9038691E+00)
 number of electron     269.9999921 magnetization       0.0000000
 augmentation part       17.0720990 magnetization      -0.0010141

 Broyden mixing:
  rms(total) = 0.10729E+01    rms(broyden)= 0.10727E+01
  rms(prec ) = 0.11527E+01
  weight for this iteration     100.00

 eigenvalues of (default mixing * dielectric matrix)
  average eigenvalue GAMMA=   1.5965
  2.9403  1.2116  0.6374

 Free energy of the ion-electron system (eV)
  ---------------------------------------------------
  alpha Z        PSCENC =       128.25868162
  Ewald energy   TEWEN  =     26330.12939784
  -Hartree energ DENC   =    -38370.18189496
  -exchange      EXHF   =         0.00000000
  -V(xc)+E(xc)   XCENC  =      1038.11509948
  PAW double counting   =     19726.97188733   -20218.67826900
  entropy T*S    EENTRO =         0.00000000
  eigenvalues    EBANDS =     -3700.23181818
  atomic energy  EATOM  =     14592.26033195
  Solvation  Ediel_sol  =         0.00000000
  ---------------------------------------------------
  free energy    TOTEN  =      -473.35658391 eV

  energy without entropy =     -473.35658391  energy(sigma->0) =     -473.35658391


--------------------------------------------------------------------------------------------------------




--------------------------------------- Iteration      1(   9)  ---------------------------------------


    POTLOK:  cpu time    0.1404: real time    0.1428
    SETDIJ:  cpu time    0.0089: real time    0.0090
     EDDAV:  cpu time   10.1205: real time   10.2347
 BZINTS: Fermi energy: -2.989747;270.000000 electrons
         Band energy:***********;  BLOECHL correction:  0.000000
       DOS:  cpu time    0.0035: real time    0.0035
    CHARGE:  cpu time    0.1476: real time    0.1493
    MIXING:  cpu time    0.0039: real time    0.0045
    --------------------------------------------
      LOOP:  cpu time   10.4248: real time   10.5438

 eigenvalue-minimisations  :  4664
 total energy-change (2. order) :-0.2440875E+00  (-0.1495720E+01)
 number of electron     269.9999919 magnetization       0.0000000
 augmentation part       17.1867805 magnetization      -0.0002976

 Broyden mixing:
  rms(total) = 0.63751E+00    rms(broyden)= 0.63716E+00
  rms(prec ) = 0.81208E+00
  weight for this iteration     100.00

 eigenvalues of (default mixing * dielectric matrix)
  average eigenvalue GAMMA=   1.5263
  3.5506  1.2652  0.6447  0.6447

 Free energy of the ion-electron system (eV)
  ---------------------------------------------------
  alpha Z        PSCENC =       128.25868162
  Ewald energy   TEWEN  =     26330.12939784
  -Hartree energ DENC   =    -38431.20090907
  -exchange      EXHF   =         0.00000000
  -V(xc)+E(xc)   XCENC  =      1040.53116964
  PAW double counting   =     22892.36349441   -23388.41870645
  entropy T*S    EENTRO =         0.00000000
  eigenvalues    EBANDS =     -3637.52413135
  atomic energy  EATOM  =     14592.26033195
  Solvation  Ediel_sol  =         0.00000000
  ---------------------------------------------------
  free energy    TOTEN  =      -473.60067142 eV

  energy without entropy =     -473.60067142  energy(sigma->0) =     -473.60067142


--------------------------------------------------------------------------------------------------------




--------------------------------------- Iteration      1(  10)  ---------------------------------------


    POTLOK:  cpu time    0.1368: real time    0.1397
    SETDIJ:  cpu time    0.0089: real time    0.0090
     EDDAV:  cpu time    9.3870: real time    9.5395
 BZINTS: Fermi energy: -2.615904;270.000000 electrons
         Band energy:***********;  BLOECHL correction:  0.000000
       DOS:  cpu time    0.0037: real time    0.0037
    CHARGE:  cpu time    0.1732: real time    0.1739
    MIXING:  cpu time    0.0039: real time    0.0039
    --------------------------------------------
      LOOP:  cpu time    9.7136: real time    9.8697

 eigenvalue-minimisations  :  4408
 total energy-change (2. order) : 0.7540594E+00  (-0.6568977E+00)
 number of electron     269.9999922 magnetization       0.0000000
 augmentation part       17.1765556 magnetization      -0.0003951

 Broyden mixing:
  rms(total) = 0.31961E+00    rms(broyden)= 0.31871E+00
  rms(prec ) = 0.41158E+00
  weight for this iteration     100.00

 eigenvalues of (default mixing * dielectric matrix)
  average eigenvalue GAMMA=   1.4307
  3.8014  1.3346  0.9491  0.5342  0.5342

 Free energy of the ion-electron system (eV)
  ---------------------------------------------------
  alpha Z        PSCENC =       128.25868162
  Ewald energy   TEWEN  =     26330.12939784
  -Hartree energ DENC   =    -38458.80633254
  -exchange      EXHF   =         0.00000000
  -V(xc)+E(xc)   XCENC  =      1042.03125376
  PAW double counting   =     24693.73304204   -25190.03953427
  entropy T*S    EENTRO =         0.00000000
  eigenvalues    EBANDS =     -3610.41345244
  atomic energy  EATOM  =     14592.26033195
  Solvation  Ediel_sol  =         0.00000000
  ---------------------------------------------------
  free energy    TOTEN  =      -472.84661203 eV

  energy without entropy =     -472.84661203  energy(sigma->0) =     -472.84661203


--------------------------------------------------------------------------------------------------------




--------------------------------------- Iteration      1(  11)  ---------------------------------------


    POTLOK:  cpu time    0.1437: real time    0.1458
    SETDIJ:  cpu time    0.0104: real time    0.0105
     EDDAV:  cpu time    9.9459: real time   10.1303
 BZINTS: Fermi energy: -2.680920;270.000000 electrons
         Band energy:***********;  BLOECHL correction:  0.000000
       DOS:  cpu time    0.0037: real time    0.0037
    CHARGE:  cpu time    0.1458: real time    0.1514
    MIXING:  cpu time    0.0033: real time    0.0034
    --------------------------------------------
      LOOP:  cpu time   10.2527: real time   10.4451

 eigenvalue-minimisations  :  4464
 total energy-change (2. order) : 0.6280440E-01  (-0.2333986E+00)
 number of electron     269.9999921 magnetization       0.0000000
 augmentation part       17.1621137 magnetization      -0.0001070

 Broyden mixing:
  rms(total) = 0.24309E+00    rms(broyden)= 0.24262E+00
  rms(prec ) = 0.33028E+00
  weight for this iteration     100.00

 eigenvalues of (default mixing * dielectric matrix)
  average eigenvalue GAMMA=   1.3514
  3.8083  1.3191  1.0035  1.0035  0.4871  0.4871

 Free energy of the ion-electron system (eV)
  ---------------------------------------------------
  alpha Z        PSCENC =       128.25868162
  Ewald energy   TEWEN  =     26330.12939784
  -Hartree energ DENC   =    -38455.31074713
  -exchange      EXHF   =         0.00000000
  -V(xc)+E(xc)   XCENC  =      1042.07492671
  PAW double counting   =     25354.25851792   -25850.13472847
  entropy T*S    EENTRO =         0.00000000
  eigenvalues    EBANDS =     -3614.32018806
  atomic energy  EATOM  =     14592.26033195
  Solvation  Ediel_sol  =         0.00000000
  ---------------------------------------------------
  free energy    TOTEN  =      -472.78380763 eV

  energy without entropy =     -472.78380763  energy(sigma->0) =     -472.78380763


--------------------------------------------------------------------------------------------------------




--------------------------------------- Iteration      1(  12)  ---------------------------------------


    POTLOK:  cpu time    0.1362: real time    0.1389
    SETDIJ:  cpu time    0.0089: real time    0.0090
     EDDAV:  cpu time   10.3592: real time   10.4607
 BZINTS: Fermi energy: -2.690923;270.000000 electrons
         Band energy:***********;  BLOECHL correction:  0.000000
       DOS:  cpu time    0.0039: real time    0.0040
    CHARGE:  cpu time    0.1727: real time    0.1747
    MIXING:  cpu time    0.0036: real time    0.0036
    --------------------------------------------
      LOOP:  cpu time   10.6844: real time   10.7909

 eigenvalue-minimisations  :  4832
 total energy-change (2. order) : 0.1013927E+00  (-0.1495886E+00)
 number of electron     269.9999922 magnetization      -0.0000000
 augmentation part       17.1186169 magnetization      -0.0001117

 Broyden mixing:
  rms(total) = 0.14043E+00    rms(broyden)= 0.14003E+00
  rms(prec ) = 0.17589E+00
  weight for this iteration     100.00

 eigenvalues of (default mixing * dielectric matrix)
  average eigenvalue GAMMA=   1.3458
  3.7567  1.8610  1.2077  0.8074  0.8074  0.4902  0.4902

 Free energy of the ion-electron system (eV)
  ---------------------------------------------------
  alpha Z        PSCENC =       128.25868162
  Ewald energy   TEWEN  =     26330.12939784
  -Hartree energ DENC   =    -38443.62075731
  -exchange      EXHF   =         0.00000000
  -V(xc)+E(xc)   XCENC  =      1041.72164452
  PAW double counting   =     25529.58757948   -26024.75842641
  entropy T*S    EENTRO =         0.00000000
  eigenvalues    EBANDS =     -3626.26086662
  atomic energy  EATOM  =     14592.26033195
  Solvation  Ediel_sol  =         0.00000000
  ---------------------------------------------------
  free energy    TOTEN  =      -472.68241493 eV

  energy without entropy =     -472.68241493  energy(sigma->0) =     -472.68241493


--------------------------------------------------------------------------------------------------------




--------------------------------------- Iteration      1(  13)  ---------------------------------------


    POTLOK:  cpu time    0.1438: real time    0.1458
    SETDIJ:  cpu time    0.0100: real time    0.0100
     EDDAV:  cpu time    8.6737: real time    8.8274
 BZINTS: Fermi energy: -2.720930;270.000000 electrons
         Band energy:***********;  BLOECHL correction:  0.000000
       DOS:  cpu time    0.0038: real time    0.0038
    CHARGE:  cpu time    0.1708: real time    0.1723
    MIXING:  cpu time    0.0038: real time    0.0038
    --------------------------------------------
      LOOP:  cpu time    9.0059: real time    9.1631

 eigenvalue-minimisations  :  3832
 total energy-change (2. order) : 0.3717312E-01  (-0.1452212E-01)
 number of electron     269.9999922 magnetization      -0.0000000
 augmentation part       17.1371838 magnetization      -0.0000865

 Broyden mixing:
  rms(total) = 0.76226E-01    rms(broyden)= 0.76193E-01
  rms(prec ) = 0.91211E-01
  weight for this iteration     100.00

 eigenvalues of (default mixing * dielectric matrix)
  average eigenvalue GAMMA=   1.3490
  3.7415  2.4165  1.2280  0.8313  0.8313  0.7579  0.4926  0.4926

 Free energy of the ion-electron system (eV)
  ---------------------------------------------------
  alpha Z        PSCENC =       128.25868162
  Ewald energy   TEWEN  =     26330.12939784
  -Hartree energ DENC   =    -38427.05072344
  -exchange      EXHF   =         0.00000000
  -V(xc)+E(xc)   XCENC  =      1041.11270016
  PAW double counting   =     25619.46921255   -26114.52559913
  entropy T*S    EENTRO =         0.00000000
  eigenvalues    EBANDS =     -3642.29924336
  atomic energy  EATOM  =     14592.26033195
  Solvation  Ediel_sol  =         0.00000000
  ---------------------------------------------------
  free energy    TOTEN  =      -472.64524181 eV

  energy without entropy =     -472.64524181  energy(sigma->0) =     -472.64524181


--------------------------------------------------------------------------------------------------------




--------------------------------------- Iteration      1(  14)  ---------------------------------------


    POTLOK:  cpu time    0.1235: real time    0.1255
    SETDIJ:  cpu time    0.0103: real time    0.0105
     EDDAV:  cpu time    9.2319: real time    9.3086
 BZINTS: Fermi energy: -2.760940;270.000000 electrons
         Band energy:***********;  BLOECHL correction:  0.000000
       DOS:  cpu time    0.0040: real time    0.0042
    CHARGE:  cpu time    0.1479: real time    0.1487
    MIXING:  cpu time    0.0042: real time    0.0042
    --------------------------------------------
      LOOP:  cpu time    9.5218: real time    9.6016

 eigenvalue-minimisations  :  4088
 total energy-change (2. order) : 0.5155990E-02  (-0.9877957E-02)
 number of electron     269.9999922 magnetization       0.0000000
 augmentation part       17.1455359 magnetization      -0.0000427

 Broyden mixing:
  rms(total) = 0.41993E-01    rms(broyden)= 0.41843E-01
  rms(prec ) = 0.53512E-01
  weight for this iteration     100.00

 eigenvalues of (default mixing * dielectric matrix)
  average eigenvalue GAMMA=   1.3385
  3.7691  2.5535  1.2108  0.8955  0.8955  0.8708  0.8708  0.4904  0.4904

 Free energy of the ion-electron system (eV)
  ---------------------------------------------------
  alpha Z        PSCENC =       128.25868162
  Ewald energy   TEWEN  =     26330.12939784
  -Hartree energ DENC   =    -38418.62423502
  -exchange      EXHF   =         0.00000000
  -V(xc)+E(xc)   XCENC  =      1040.80233030
  PAW double counting   =     25701.43129295   -26196.41274045
  entropy T*S    EENTRO =         0.00000000
  eigenvalues    EBANDS =     -3650.48514501
  atomic energy  EATOM  =     14592.26033195
  Solvation  Ediel_sol  =         0.00000000
  ---------------------------------------------------
  free energy    TOTEN  =      -472.64008582 eV

  energy without entropy =     -472.64008582  energy(sigma->0) =     -472.64008582


--------------------------------------------------------------------------------------------------------




--------------------------------------- Iteration      1(  15)  ---------------------------------------


    POTLOK:  cpu time    0.1333: real time    0.1354
    SETDIJ:  cpu time    0.0090: real time    0.0090
     EDDAV:  cpu time    9.1159: real time    9.2631
 BZINTS: Fermi energy: -2.755939;270.000000 electrons
         Band energy:***********;  BLOECHL correction:  0.000000
       DOS:  cpu time    0.0037: real time    0.0037
    CHARGE:  cpu time    0.1476: real time    0.1482
    MIXING:  cpu time    0.0039: real time    0.0040
    --------------------------------------------
      LOOP:  cpu time    9.4135: real time    9.5634

 eigenvalue-minimisations  :  4080
 total energy-change (2. order) :-0.1121823E-02  (-0.7417392E-02)
 number of electron     269.9999922 magnetization      -0.0000000
 augmentation part       17.1444140 magnetization      -0.0000221

 Broyden mixing:
  rms(total) = 0.41850E-01    rms(broyden)= 0.41760E-01
  rms(prec ) = 0.57176E-01
  weight for this iteration     100.00

 eigenvalues of (default mixing * dielectric matrix)
  average eigenvalue GAMMA=   1.3323
  3.7240  2.7160  1.2927  1.1916  1.1916  0.7836  0.7836  0.6647  0.4876  0.4876

 Free energy of the ion-electron system (eV)
  ---------------------------------------------------
  alpha Z        PSCENC =       128.25868162
  Ewald energy   TEWEN  =     26330.12939784
  -Hartree energ DENC   =    -38418.66756538
  -exchange      EXHF   =         0.00000000
  -V(xc)+E(xc)   XCENC  =      1040.79073021
  PAW double counting   =     25737.94903081   -26232.95354981
  entropy T*S    EENTRO =         0.00000000
  eigenvalues    EBANDS =     -3650.40826488
  atomic energy  EATOM  =     14592.26033195
  Solvation  Ediel_sol  =         0.00000000
  ---------------------------------------------------
  free energy    TOTEN  =      -472.64120765 eV

  energy without entropy =     -472.64120765  energy(sigma->0) =     -472.64120765


--------------------------------------------------------------------------------------------------------




--------------------------------------- Iteration      1(  16)  ---------------------------------------


    POTLOK:  cpu time    0.1757: real time    0.1792
    SETDIJ:  cpu time    0.0106: real time    0.0106
     EDDAV:  cpu time    9.2669: real time    9.3685
 BZINTS: Fermi energy: -2.760940;270.000000 electrons
         Band energy:***********;  BLOECHL correction:  0.000000
       DOS:  cpu time    0.0037: real time    0.0037
    CHARGE:  cpu time    0.1483: real time    0.1497
    MIXING:  cpu time    0.0043: real time    0.0049
    --------------------------------------------
      LOOP:  cpu time    9.6095: real time    9.7167

 eigenvalue-minimisations  :  4240
 total energy-change (2. order) : 0.2183195E-02  (-0.4579003E-02)
 number of electron     269.9999922 magnetization       0.0000000
 augmentation part       17.1449183 magnetization      -0.0000174

 Broyden mixing:
  rms(total) = 0.22760E-01    rms(broyden)= 0.22636E-01
  rms(prec ) = 0.30100E-01
  weight for this iteration     100.00

 eigenvalues of (default mixing * dielectric matrix)
  average eigenvalue GAMMA=   1.3226
  3.6732  2.9611  1.5950  1.1502  1.1502  0.8036  0.8036  0.7832  0.6627  0.4828
  0.4828

 Free energy of the ion-electron system (eV)
  ---------------------------------------------------
  alpha Z        PSCENC =       128.25868162
  Ewald energy   TEWEN  =     26330.12939784
  -Hartree energ DENC   =    -38418.17103207
  -exchange      EXHF   =         0.00000000
  -V(xc)+E(xc)   XCENC  =      1040.76717086
  PAW double counting   =     25743.55386861   -26238.59506394
  entropy T*S    EENTRO =         0.00000000
  eigenvalues    EBANDS =     -3650.84237931
  atomic energy  EATOM  =     14592.26033195
  Solvation  Ediel_sol  =         0.00000000
  ---------------------------------------------------
  free energy    TOTEN  =      -472.63902445 eV

  energy without entropy =     -472.63902445  energy(sigma->0) =     -472.63902445


--------------------------------------------------------------------------------------------------------




--------------------------------------- Iteration      1(  17)  ---------------------------------------


    POTLOK:  cpu time    0.1444: real time    0.1466
    SETDIJ:  cpu time    0.0090: real time    0.0090
     EDDAV:  cpu time    8.6930: real time    8.7889
 BZINTS: Fermi energy: -2.759690;270.000000 electrons
         Band energy:***********;  BLOECHL correction:  0.000000
       DOS:  cpu time    0.0035: real time    0.0035
    CHARGE:  cpu time    0.1477: real time    0.1481
    MIXING:  cpu time    0.0045: real time    0.0045
    --------------------------------------------
      LOOP:  cpu time    9.0022: real time    9.1007

 eigenvalue-minimisations  :  3824
 total energy-change (2. order) : 0.1966397E-03  (-0.9329447E-03)
 number of electron     269.9999922 magnetization       0.0000000
 augmentation part       17.1452676 magnetization      -0.0000043

 Broyden mixing:
  rms(total) = 0.11421E-01    rms(broyden)= 0.11399E-01
  rms(prec ) = 0.12407E-01
  weight for this iteration     100.00

 eigenvalues of (default mixing * dielectric matrix)
  average eigenvalue GAMMA=   1.3682
  3.6630  2.9523  1.7030  1.7030  1.2182  1.0004  1.0004  0.8006  0.8006  0.4827
  0.4827  0.6121

 Free energy of the ion-electron system (eV)
  ---------------------------------------------------
  alpha Z        PSCENC =       128.25868162
  Ewald energy   TEWEN  =     26330.12939784
  -Hartree energ DENC   =    -38418.09944230
  -exchange      EXHF   =         0.00000000
  -V(xc)+E(xc)   XCENC  =      1040.76179669
  PAW double counting   =     25747.67446502   -26242.72988242
  entropy T*S    EENTRO =         0.00000000
  eigenvalues    EBANDS =     -3650.89417622
  atomic energy  EATOM  =     14592.26033195
  Solvation  Ediel_sol  =         0.00000000
  ---------------------------------------------------
  free energy    TOTEN  =      -472.63882781 eV

  energy without entropy =     -472.63882781  energy(sigma->0) =     -472.63882781


--------------------------------------------------------------------------------------------------------




--------------------------------------- Iteration      1(  18)  ---------------------------------------


    POTLOK:  cpu time    0.1904: real time    0.1929
    SETDIJ:  cpu time    0.0103: real time    0.0103
     EDDAV:  cpu time    8.8390: real time    8.9185
 BZINTS: Fermi energy: -2.760940;270.000000 electrons
         Band energy:***********;  BLOECHL correction:  0.000000
       DOS:  cpu time    0.0037: real time    0.0037
    CHARGE:  cpu time    0.1467: real time    0.1475
    MIXING:  cpu time    0.0046: real time    0.0047
    --------------------------------------------
      LOOP:  cpu time    9.1948: real time    9.2775

 eigenvalue-minimisations  :  3928
 total energy-change (2. order) :-0.1614506E-03  (-0.2966147E-03)
 number of electron     269.9999922 magnetization       0.0000000
 augmentation part       17.1451780 magnetization       0.0000032

 Broyden mixing:
  rms(total) = 0.11090E-01    rms(broyden)= 0.11075E-01
  rms(prec ) = 0.14915E-01
  weight for this iteration     100.00

 eigenvalues of (default mixing * dielectric matrix)
  average eigenvalue GAMMA=   1.4561
  3.4513  3.4513  3.2356  1.5222  1.1977  1.1977  0.8143  0.8143  0.8412  0.8412
  0.4818  0.4818  0.5995

 Free energy of the ion-electron system (eV)
  ---------------------------------------------------
  alpha Z        PSCENC =       128.25868162
  Ewald energy   TEWEN  =     26330.12939784
  -Hartree energ DENC   =    -38418.34121239
  -exchange      EXHF   =         0.00000000
  -V(xc)+E(xc)   XCENC  =      1040.77484356
  PAW double counting   =     25749.08299874   -26244.14145961
  entropy T*S    EENTRO =         0.00000000
  eigenvalues    EBANDS =     -3650.66257096
  atomic energy  EATOM  =     14592.26033195
  Solvation  Ediel_sol  =         0.00000000
  ---------------------------------------------------
  free energy    TOTEN  =      -472.63898926 eV

  energy without entropy =     -472.63898926  energy(sigma->0) =     -472.63898926


--------------------------------------------------------------------------------------------------------




--------------------------------------- Iteration      1(  19)  ---------------------------------------


    POTLOK:  cpu time    0.1589: real time    0.1627
    SETDIJ:  cpu time    0.0105: real time    0.0105
     EDDAV:  cpu time    6.7712: real time    6.8317
 BZINTS: Fermi energy: -2.755939;270.000000 electrons
         Band energy:***********;  BLOECHL correction:  0.000000
       DOS:  cpu time    0.0038: real time    0.0038
    CHARGE:  cpu time    0.1475: real time    0.1480
    MIXING:  cpu time    0.0048: real time    0.0048
    --------------------------------------------
      LOOP:  cpu time    7.0966: real time    7.1615

 eigenvalue-minimisations  :  2504
 total energy-change (2. order) : 0.1628088E-03  (-0.1620268E-03)
 number of electron     269.9999922 magnetization       0.0000000
 augmentation part       17.1448182 magnetization       0.0000188

 Broyden mixing:
  rms(total) = 0.24924E-02    rms(broyden)= 0.24542E-02
  rms(prec ) = 0.28153E-02
  weight for this iteration     100.00

 eigenvalues of (default mixing * dielectric matrix)
  average eigenvalue GAMMA=   1.4585
  3.8437  3.8437  2.8073  1.4074  1.2805  1.2805  1.0435  0.8197  0.8197  0.8559
  0.8559  0.4818  0.4818  0.5979

 Free energy of the ion-electron system (eV)
  ---------------------------------------------------
  alpha Z        PSCENC =       128.25868162
  Ewald energy   TEWEN  =     26330.12939784
  -Hartree energ DENC   =    -38418.88734884
  -exchange      EXHF   =         0.00000000
  -V(xc)+E(xc)   XCENC  =      1040.79570576
  PAW double counting   =     25748.96754640   -26244.02852353
  entropy T*S    EENTRO =         0.00000000
  eigenvalues    EBANDS =     -3650.13461765
  atomic energy  EATOM  =     14592.26033195
  Solvation  Ediel_sol  =         0.00000000
  ---------------------------------------------------
  free energy    TOTEN  =      -472.63882645 eV

  energy without entropy =     -472.63882645  energy(sigma->0) =     -472.63882645


--------------------------------------------------------------------------------------------------------




--------------------------------------- Iteration      1(  20)  ---------------------------------------


    POTLOK:  cpu time    0.1330: real time    0.1352
    SETDIJ:  cpu time    0.0105: real time    0.0105
     EDDAV:  cpu time    5.9393: real time    6.0002
 BZINTS: Fermi energy: -2.755939;270.000000 electrons
         Band energy:***********;  BLOECHL correction:  0.000000
       DOS:  cpu time    0.0038: real time    0.0038
    --------------------------------------------
      LOOP:  cpu time    6.0866: real time    6.1497

 eigenvalue-minimisations  :  2040
 total energy-change (2. order) :-0.1822081E-04  (-0.1058018E-04)
 number of electron     269.9999922 magnetization       0.0000000
 augmentation part       17.1448182 magnetization       0.0000188

 Free energy of the ion-electron system (eV)
  ---------------------------------------------------
  alpha Z        PSCENC =       128.25868162
  Ewald energy   TEWEN  =     26330.12939784
  -Hartree energ DENC   =    -38418.83520750
  -exchange      EXHF   =         0.00000000
  -V(xc)+E(xc)   XCENC  =      1040.79356005
  PAW double counting   =     25751.69438684   -26246.75542431
  entropy T*S    EENTRO =         0.00000000
  eigenvalues    EBANDS =     -3650.18457116
  atomic energy  EATOM  =     14592.26033195
  Solvation  Ediel_sol  =         0.00000000
  ---------------------------------------------------
  free energy    TOTEN  =      -472.63884467 eV

  energy without entropy =     -472.63884467  energy(sigma->0) =     -472.63884467


--------------------------------------------------------------------------------------------------------




 average (electrostatic) potential at core
  the test charge radii are     0.6991  0.7089  0.9911
  (the norm of the test charge is              1.0000)
       1 -61.0333       2 -61.3458       3 -61.3397       4 -60.9902       5 -61.0152
       6 -61.0115       7 -61.2066       8 -61.0673       9 -60.9723      10 -61.6015
      11 -61.1267      12 -61.5746      13 -61.0133      14 -60.9626      15 -60.7758
      16 -61.0055      17 -60.9920      18 -60.9755      19 -61.2955      20 -61.0172
      21 -61.0655      22 -61.0722      23 -61.0712      24 -61.0227      25 -74.8622
      26 -72.6539      27 -72.6248      28 -72.8653      29 -72.9902      30 -72.6652
      31 -72.6739      32 -74.9675      33 -74.5623      34 -73.0854      35 -73.9636
      36 -72.7412      37 -72.7546      38 -73.1408      39 -73.9164      40 -75.0495
      41 -74.6549      42 -72.7340      43 -72.6637      44 -72.9903      45 -72.9240
      46 -72.6551      47 -72.6671      48 -74.8401      49 -74.7201      50 -72.9027
      51 -72.7706      52 -72.6691      53 -72.6306      54 -72.8788      55 -72.7919
      56 -75.0763      57 -82.9703
 
 
 
 E-fermi :  -2.7559     XC(G=0):  -2.8040     alpha+bet : -2.0009


 spin component 1

 k-point     1 :       0.0000    0.0000    0.0000
  band No.  band energies     occupation 
      1     -28.2856      1.00000
      2     -28.2817      1.00000
      3     -28.2584      1.00000
      4     -28.2200      1.00000
      5     -28.2058      1.00000
      6     -25.5840      1.00000
      7     -25.4679      1.00000
      8     -25.2709      1.00000
      9     -25.1794      1.00000
     10     -24.4667      1.00000
     11     -24.3768      1.00000
     12     -24.3449      1.00000
     13     -23.5773      1.00000
     14     -23.4623      1.00000
     15     -23.3673      1.00000
     16     -23.2998      1.00000
     17     -23.2513      1.00000
     18     -23.1512      1.00000
     19     -22.5677      1.00000
     20     -22.4023      1.00000
     21     -22.3762      1.00000
     22     -21.7140      1.00000
     23     -21.6723      1.00000
     24     -21.5640      1.00000
     25     -21.4842      1.00000
     26     -21.4069      1.00000
     27     -21.4040      1.00000
     28     -21.3079      1.00000
     29     -21.2863      1.00000
     30     -20.9012      1.00000
     31     -20.8097      1.00000
     32     -20.7440      1.00000
     33     -20.5736      1.00000
     34     -20.3501      1.00000
     35     -20.2654      1.00000
     36     -20.0916      1.00000
     37     -19.9439      1.00000
     38     -17.2711      1.00000
     39     -17.1892      1.00000
     40     -17.0629      1.00000
     41     -16.8175      1.00000
     42     -16.7276      1.00000
     43     -16.6828      1.00000
     44     -16.3831      1.00000
     45     -16.1814      1.00000
     46     -15.6515      1.00000
     47     -15.5562      1.00000
     48     -15.4402      1.00000
     49     -15.1881      1.00000
     50     -14.8022      1.00000
     51     -14.7768      1.00000
     52     -14.1472      1.00000
     53     -14.0450      1.00000
     54     -13.8817      1.00000
     55     -13.7821      1.00000
     56     -13.5528      1.00000
     57     -13.4390      1.00000
     58     -13.3016      1.00000
     59     -13.2930      1.00000
     60     -13.2100      1.00000
     61     -13.1398      1.00000
     62     -13.0473      1.00000
     63     -12.4926      1.00000
     64     -12.3210      1.00000
     65     -12.2229      1.00000
     66     -12.0959      1.00000
     67     -12.0553      1.00000
     68     -12.0271      1.00000
     69     -11.9463      1.00000
     70     -11.9283      1.00000
     71     -11.7368      1.00000
     72     -11.5973      1.00000
     73     -11.5107      1.00000
     74     -11.2301      1.00000
     75     -11.1119      1.00000
     76     -10.9685      1.00000
     77     -10.8741      1.00000
     78     -10.7346      1.00000
     79     -10.5723      1.00000
     80     -10.4046      1.00000
     81     -10.3230      1.00000
     82     -10.1346      1.00000
     83      -9.8229      1.00000
     84      -9.6505      1.00000
     85      -9.5064      1.00000
     86      -9.1523      1.00000
     87      -9.0603      1.00000
     88      -9.0291      1.00000
     89      -8.9761      1.00000
     90      -8.9422      1.00000
     91      -8.7044      1.00000
     92      -8.4184      1.00000
     93      -8.3815      1.00000
     94      -8.1412      1.00000
     95      -8.0482      1.00000
     96      -7.9974      1.00000
     97      -7.9248      1.00000
     98      -7.7610      1.00000
     99      -7.6992      1.00000
    100      -7.4938      1.00000
    101      -7.4207      1.00000
    102      -7.3831      1.00000
    103      -7.3572      1.00000
    104      -7.2739      1.00000
    105      -7.2260      1.00000
    106      -7.1905      1.00000
    107      -7.1270      1.00000
    108      -7.1090      1.00000
    109      -6.9692      1.00000
    110      -6.9279      1.00000
    111      -6.8385      1.00000
    112      -6.7850      1.00000
    113      -6.5902      1.00000
    114      -6.5408      1.00000
    115      -6.1995      1.00000
    116      -6.0184      1.00000
    117      -5.9296      1.00000
    118      -5.8663      1.00000
    119      -5.8233      1.00000
    120      -5.7198      1.00000
    121      -5.6829      1.00000
    122      -5.5696      1.00000
    123      -5.4882      1.00000
    124      -5.4124      1.00000
    125      -5.3827      1.00000
    126      -5.2499      1.00000
    127      -5.2038      1.00000
    128      -5.0748      1.00000
    129      -4.9794      1.00000
    130      -4.8528      1.00000
    131      -4.7570      1.00000
    132      -4.7261      1.00000
    133      -4.6405      1.00000
    134      -4.4304      1.00000
    135      -2.8629      1.00000
    136      -2.6512      0.00000
    137      -2.4518      0.00000
    138      -2.2063      0.00000
    139      -2.0137      0.00000
    140      -1.9449      0.00000
    141      -1.8664      0.00000
    142      -1.6633      0.00000
    143      -1.5500      0.00000
    144      -1.4033      0.00000
    145      -1.3337      0.00000
    146      -1.0624      0.00000
    147      -0.9181      0.00000
    148      -0.1186      0.00000
    149      -0.0164      0.00000
    150       0.2133      0.00000
    151       0.3259      0.00000
    152       0.4195      0.00000
    153       0.4506      0.00000
    154       0.5511      0.00000
    155       0.6086      0.00000
    156       0.8582      0.00000
    157       1.0956      0.00000
    158       1.3138      0.00000
    159       1.4462      0.00000
    160       1.4946      0.00000
    161       1.5444      0.00000
    162       1.6239      0.00000
    163       1.7514      0.00000
    164       1.8641      0.00000
    165       1.9339      0.00000
[...]
   -.146E+02 0.278E+02 0.110E+03   0.110E+02 -.274E+02 -.110E+03   0.260E+01 -.186E+00 0.457E+00   -.641E-02 -.919E-03 0.229E-02
   0.604E+02 -.489E+02 -.759E+02   -.625E+02 0.501E+02 0.759E+02   0.228E+01 -.122E+01 -.198E+00   0.278E-03 -.632E-03 -.454E-03
   -.118E+02 0.465E+02 0.174E+03   0.124E+02 -.488E+02 -.175E+03   -.476E+00 0.232E+01 0.136E+01   -.300E-02 -.370E-02 -.295E-02
   -.562E+02 -.159E+02 0.838E+02   0.584E+02 0.171E+02 -.845E+02   -.236E+01 -.110E+01 0.838E+00   0.277E-02 0.438E-03 -.110E-02
   0.348E+02 -.264E+02 -.305E+02   -.354E+02 0.230E+02 0.293E+02   0.411E+00 0.260E+01 0.782E+00   0.291E-02 -.474E-02 -.296E-03
   0.244E+02 -.121E+02 -.429E+02   -.208E+02 0.144E+02 0.424E+02   -.288E+01 -.173E+01 0.349E+00   0.480E-02 -.175E-02 0.146E-02
   -.918E+01 0.785E+00 -.523E+02   0.528E+01 0.141E+01 0.519E+02   0.309E+01 -.155E+01 0.201E+00   -.173E-02 0.715E-04 -.330E-03
   -.206E+02 0.160E+02 -.628E+02   0.200E+02 -.142E+02 0.637E+02   0.960E+00 -.164E+01 -.107E+01   -.122E-01 0.532E-02 0.592E-02
   -.303E+01 0.194E+02 0.419E+02   0.298E+01 -.218E+02 -.410E+02   0.458E-01 0.271E+01 -.607E+00   -.233E-02 -.679E-02 0.401E-02
   0.276E+02 0.148E+02 -.571E+02   -.268E+02 -.127E+02 0.575E+02   -.113E+01 -.195E+01 -.805E+00   0.578E-02 0.310E-02 0.320E-02
   -.348E+01 -.168E+02 -.118E+02   0.355E+01 0.125E+02 0.129E+02   -.871E-01 0.338E+01 -.678E+00   0.468E-02 -.681E-02 0.118E-02
   0.356E+02 0.264E+02 0.168E+03   -.320E+02 -.245E+02 -.167E+03   -.281E+01 -.151E+01 -.416E+00   0.120E-01 0.163E-02 0.210E-02
   -.136E+02 0.212E+02 0.762E+02   0.987E+01 -.191E+02 -.754E+02   0.290E+01 -.137E+01 -.541E+00   0.443E-02 -.339E-02 -.860E-03
   0.583E+02 -.148E+02 0.577E+02   -.605E+02 0.160E+02 -.580E+02   0.238E+01 -.115E+01 0.417E+00   -.494E-02 0.245E-02 0.156E-03
   0.179E+01 0.661E+02 0.187E+03   -.210E+01 -.683E+02 -.188E+03   0.700E-01 0.231E+01 0.140E+01   -.159E-02 -.888E-03 0.277E-02
   -.577E+02 -.517E+02 -.861E+02   0.598E+02 0.529E+02 0.864E+02   -.230E+01 -.124E+01 -.375E+00   0.143E-02 0.151E-02 -.739E-03
   -.289E+02 -.259E+02 -.124E+03   0.293E+02 0.225E+02 0.123E+03   -.129E+00 0.255E+01 0.842E+00   -.207E-02 0.377E-02 0.162E-02
   0.123E+02 -.578E+00 -.959E+02   -.827E+01 0.268E+01 0.951E+02   -.310E+01 -.148E+01 0.444E+00   0.259E-02 0.485E-02 -.310E-03
   -.269E+02 -.822E+01 -.783E+02   0.232E+02 0.107E+02 0.773E+02   0.286E+01 -.181E+01 0.784E+00   -.561E-02 0.280E-02 0.687E-03
   0.633E+02 -.624E+02 0.121E+03   -.657E+02 0.637E+02 -.121E+03   0.231E+01 -.162E+01 0.176E-01   0.121E-02 -.372E-02 0.123E-02
   -.938E+01 0.384E+02 -.165E+03   0.938E+01 -.411E+02 0.165E+03   -.220E-01 0.287E+01 -.123E+01   0.148E-02 -.356E-02 0.165E-02
   -.739E+02 -.229E+02 -.528E+02   0.763E+02 0.235E+02 0.536E+02   -.254E+01 -.629E+00 -.921E+00   0.578E-03 0.377E-02 0.322E-02
   -.126E+02 0.319E+02 0.147E+03   0.129E+02 -.330E+02 -.150E+03   -.325E+00 0.796E+00 0.241E+01   -.172E-01 0.150E-02 0.389E-02
   -.174E+03 -.294E+02 0.197E+03   0.202E+03 0.450E+02 -.208E+03   -.303E+02 -.166E+02 0.120E+02   -.564E-02 -.848E-02 0.161E-02
   0.140E+03 -.136E+03 -.209E+03   -.169E+03 0.151E+03 0.219E+03   0.302E+02 -.158E+02 -.111E+02   0.597E-02 -.635E-02 -.266E-02
   0.456E+01 0.153E+03 0.347E+03   -.216E+01 -.180E+03 -.368E+03   -.273E+01 0.284E+02 0.223E+02   0.673E-02 -.604E-02 -.151E-02
   -.323E+02 0.124E+03 0.367E+03   0.297E+02 -.149E+03 -.390E+03   0.262E+01 0.263E+02 0.247E+02   -.566E-02 -.334E-02 -.122E-02
   0.173E+03 -.883E+02 -.990E+02   -.201E+03 0.107E+03 0.989E+02   0.292E+02 -.200E+02 -.187E+00   0.104E-01 -.112E-01 -.183E-03
   -.131E+03 -.720E+02 0.223E+03   0.159E+03 0.805E+02 -.241E+03   -.295E+02 -.902E+01 0.194E+02   -.223E-02 -.480E-02 0.384E-02
   -.403E+01 -.149E+01 -.212E+02   0.419E+01 0.153E+01 0.222E+02   -.185E+00 -.246E-01 -.103E+01   0.502E-03 -.292E-03 -.129E-03
   0.136E+02 -.197E+02 -.849E+02   -.139E+02 0.202E+02 0.888E+02   0.198E+00 -.669E+00 -.419E+01   0.242E-02 -.471E-02 -.583E-03
   -.312E+01 -.547E+02 -.267E+03   0.232E+02 0.668E+02 0.288E+03   -.211E+02 -.129E+02 -.228E+02   0.713E-02 -.316E-02 -.305E-02
   0.902E+01 0.593E+02 -.667E+02   -.270E+02 -.553E+02 0.766E+02   0.193E+02 -.417E+01 -.105E+02   -.156E-01 0.123E-01 0.109E-01
   -.142E+02 0.103E+03 0.109E+03   0.170E+02 -.134E+03 -.118E+03   -.304E+01 0.333E+02 0.996E+01   -.770E-02 0.663E-03 0.688E-02
   -.524E+00 0.999E+02 0.122E+03   -.146E+01 -.131E+03 -.131E+03   0.217E+01 0.331E+02 0.101E+02   0.529E-03 -.429E-02 0.805E-02
   0.379E+02 -.535E+02 -.293E+03   -.621E+02 0.661E+02 0.309E+03   0.253E+02 -.135E+02 -.175E+02   -.122E-01 0.381E-03 -.142E-02
   -.324E+01 0.677E+02 -.945E+02   0.197E+02 -.643E+02 0.108E+03   -.176E+02 -.355E+01 -.142E+02   -.334E-02 0.370E-02 0.200E-02
   0.432E+02 0.159E+02 0.663E+02   -.471E+02 -.187E+02 -.657E+02   0.433E+01 0.298E+01 -.424E+00   -.877E-03 -.614E-02 -.237E-02
   0.127E+02 0.344E+02 0.131E+03   -.145E+02 -.359E+02 -.135E+03   0.192E+01 0.169E+01 0.437E+01   0.170E-01 -.437E-02 0.915E-03
   -.170E+03 -.929E+02 -.108E+03   0.198E+03 0.111E+03 0.108E+03   -.298E+02 -.192E+02 -.762E+00   -.270E-02 -.372E-02 -.221E-02
   0.134E+03 -.613E+02 0.173E+03   -.163E+03 0.695E+02 -.189E+03   0.306E+02 -.864E+01 0.168E+02   0.162E-02 0.317E-02 0.373E-02
   0.928E+01 0.144E+03 0.379E+03   -.446E+01 -.170E+03 -.401E+03   -.491E+01 0.271E+02 0.231E+02   -.195E-02 0.749E-02 0.115E-01
   0.244E+01 0.210E+03 0.315E+03   -.396E+01 -.242E+03 -.325E+03   0.182E+01 0.338E+02 0.108E+02   0.628E-02 0.128E-01 0.811E-02
   0.175E+03 -.306E+02 0.120E+03   -.204E+03 0.473E+02 -.125E+03   0.310E+02 -.178E+02 0.572E+01   -.526E-03 0.201E-02 0.215E-02
   -.127E+03 -.140E+03 -.256E+03   0.154E+03 0.155E+03 0.270E+03   -.287E+02 -.157E+02 -.143E+02   -.614E-02 0.787E-03 -.449E-02
   0.711E+00 -.286E+02 -.112E+02   -.601E+00 0.298E+02 0.901E+01   -.127E+00 -.126E+01 0.236E+01   0.520E-03 0.170E-02 0.303E-02
   -.131E+02 -.224E+02 -.165E+03   0.131E+02 0.242E+02 0.171E+03   0.130E+00 -.194E+01 -.560E+01   -.294E-02 0.314E-02 -.841E-04
   -.200E+03 -.582E+02 -.815E+02   0.229E+03 0.755E+02 0.821E+02   -.301E+02 -.184E+02 -.696E+00   -.420E-02 0.516E-02 0.369E-02
   0.158E+03 -.131E+03 0.268E+03   -.187E+03 0.146E+03 -.274E+03   0.310E+02 -.155E+02 0.704E+01   0.186E-01 -.724E-02 0.407E-02
   -.105E+00 0.133E+03 -.337E+03   0.447E+01 -.159E+03 0.358E+03   -.466E+01 0.280E+02 -.227E+02   0.218E-02 0.175E-02 -.420E-02
   -.310E+02 0.102E+03 -.379E+03   0.294E+02 -.127E+03 0.403E+03   0.163E+01 0.259E+02 -.260E+02   0.271E-02 0.463E-02 -.370E-02
   0.167E+03 -.113E+03 0.207E+03   -.190E+03 0.135E+03 -.219E+03   0.239E+02 -.227E+02 0.126E+02   0.953E-02 -.536E-02 0.493E-02
   -.150E+03 -.654E+02 -.163E+03   0.180E+03 0.736E+02 0.176E+03   -.318E+02 -.860E+01 -.142E+02   0.717E-02 -.269E-03 0.122E-02
   -.406E+02 0.186E+02 0.392E+02   0.433E+02 -.206E+02 -.412E+02   -.305E+01 0.222E+01 0.222E+01   -.383E-02 0.677E-02 0.571E-02
   0.408E+02 -.102E+03 -.875E+03   -.418E+02 0.116E+03 0.891E+03   0.101E+01 -.143E+02 -.167E+02   -.155E-01 0.399E-02 0.256E-02
 -----------------------------------------------------------------------------------------------
   0.243E+01 -.518E+01 -.256E+01   0.156E-12 -.227E-12 -.227E-12   -.241E+01 0.520E+01 0.248E+01   -.179E-01 -.140E-01 0.894E-01
 
 
 POSITION                                       TOTAL-FORCE (eV/Angst)
 -----------------------------------------------------------------------------------
     -0.01555      2.57607      6.65284        -0.010483     -0.910534      0.391419
      1.26943      4.79191      6.75727         0.990809      0.164619      0.138222
     -1.32589      4.74455      6.66568        -1.014545      0.125026     -0.000660
      5.98071      0.68774      7.88882         0.178746     -0.034021     -0.199033
      3.62758      4.79061      6.43540         0.128983      0.008383      0.322849
      1.23334      0.61924      6.99943        -0.186677      0.039919      0.152093
     -3.73715      8.63985      7.54886        -0.137973     -0.730767     -0.428726
     -2.31351     10.76944      7.81874         0.786064      0.612578     -0.108650
     -4.87017     10.86873      7.77076        -0.795783      0.628449     -0.198631
      2.50208      6.57976      7.82970         0.378375      0.160929     -0.180422
      0.04099     10.67835      7.62793        -0.010871      0.312801      0.266681
     -2.65115      6.57637      7.49847        -0.348910      0.195514     -0.442317
      7.26603      2.58923      7.37419        -0.012486     -0.853668      0.393143
      8.42804      4.58494      6.23817         0.786008      0.384556      0.210783
      5.94913      4.67507      6.79320        -0.765530      0.674392      0.243896
     13.14990      0.44973      7.18692         0.212700      0.067706      0.136049
     10.76122      4.51474      6.14453        -0.243715      0.101067      0.320921
      8.49423      0.67412      7.98769        -0.204636     -0.113520     -0.152958
      3.70924      8.52849      8.28748         0.254061     -0.788686     -0.461549
      4.91249     10.75685      8.15693         0.871170      0.615470     -0.440479
      2.34964     10.73437      8.13270        -0.810685      0.630633     -0.296726
      9.45754      6.65962      6.55995        -0.075708     -0.388767      0.139680
      7.24898     10.77829      8.34077        -0.021373      0.162864     -0.388287
      4.95231      6.62302      7.64182        -0.091600     -0.024338     -0.099558
     -0.01493      4.04704      6.63044        -0.049972     -0.258362      0.162485
      1.21302      1.92520      6.56685        -1.520802     -0.977718      0.770245
      4.82827     -0.04473      8.14566         1.539772     -0.848224     -0.964229
      4.83058      4.18556      6.12122        -0.317176      1.441596      1.434821
      2.36609      4.31937      6.08014         0.008041      1.187369      1.544197
      6.00779      2.04932      7.69317         1.513808     -1.310074     -0.264373
     -4.82848     11.98822      6.96784        -1.537080     -0.497454      1.307732
      0.01750      0.02224      7.53233        -0.025973      0.013167     -0.065902
     -3.61065     10.07274      7.80405        -0.092396     -0.091308     -0.289151
     -2.71569      7.82181      8.07749        -0.947045     -0.774403     -1.596502
      1.26885      5.90781      7.66819         1.251306     -0.205432     -0.664569
      1.25965     10.00503      7.63969        -0.258773      1.737875      0.728072
     -1.17469     10.02104      7.47823         0.179613      1.758016      0.748346
      2.51959      7.78302      8.49941         1.131443     -0.869159     -1.388197
     -1.44096      5.85447      7.56781        -1.102185     -0.119010     -0.944811
     10.65991      5.83624      6.80141         0.504696      0.252069      0.116989
      7.23151      3.88328      6.69736         0.110471      0.155399      0.293453
      8.50427      2.03044      7.72571        -1.594319     -1.189198     -0.190269
      4.80994     11.83136      7.29845         1.608715     -0.436885      1.222016
     -2.34786      4.23176      5.90932        -0.086193      1.275626      1.559056
      9.57983      3.85106      5.92065         0.306026      1.925225      0.921025
     13.13672      1.76150      6.78804         1.593533     -1.069282      0.415639
      9.59204     -0.06890      8.41590        -1.413561     -0.846146     -1.130385
      7.24044     -0.05291      7.77362        -0.016320     -0.125949      0.166233
      3.63047      9.99041      8.33351         0.093028     -0.163001     -0.397458
      4.93257      7.96068      7.99445        -1.682074     -1.023944     -0.069614
      8.33278      5.99755      6.17365         1.831365     -0.629930      0.934764
     -5.91225     10.37183      8.55936        -0.294103      1.404084     -1.412734
      6.03905     10.28642      8.83037         0.109013      1.121964     -1.672499
     -4.81427      8.23672      6.77905         1.391622     -1.160845      0.897019
      6.07406      5.84299      7.54760        -1.784121     -0.392480     -1.011851
      3.66778      6.00304      7.28772        -0.366249      0.199563      0.284738
     -0.13930      7.15434      8.70160         0.059951     -0.523751     -0.762028
 -----------------------------------------------------------------------------------
    total drift:                                0.001630      0.003434      0.003637


--------------------------------------------------------------------------------------------------------



  FREE ENERGIE OF THE ION-ELECTRON SYSTEM (eV)
  ---------------------------------------------------
  free  energy   TOTEN  =      -476.54710566 eV

  energy  without entropy=     -476.54710566  energy(sigma->0) =     -476.54710566
 


--------------------------------------------------------------------------------------------------------


    POTLOK:  cpu time    0.1599: real time    0.1604


--------------------------------------------------------------------------------------------------------


 stress matrix after NEB project (eV)
   -125.67312      2.01978     -3.20890
      2.01978   -114.69259     -5.94430
     -3.20890     -5.94430    -31.97159
  FORCES: max atom, RMS     2.156022    1.385431
  FORCE total and by dimension   10.459771    1.925225
  Stress total and by dimension  173.406251  125.673120
     LOOP+:  cpu time  198.4014: real time  201.2679
    4ORBIT:  cpu time    0.0000: real time    0.0000
 


 total charge     
 
# of ion       s       p       d       tot
------------------------------------------
    1        0.824   1.612   0.000   2.436
    2        0.812   1.601   0.000   2.413
    3        0.815   1.605   0.000   2.420
    4        0.836   1.618   0.000   2.454
    5        0.828   1.616   0.000   2.444
    6        0.839   1.626   0.000   2.466
    7        0.824   1.606   0.000   2.430
    8        0.824   1.601   0.000   2.424
    9        0.828   1.604   0.000   2.432
   10        0.838   1.644   0.000   2.482
   11        0.836   1.621   0.000   2.457
   12        0.841   1.653   0.000   2.494
   13        0.824   1.601   0.000   2.424
   14        0.819   1.606   0.000   2.425
   15        0.817   1.609   0.000   2.426
   16        0.839   1.631   0.000   2.470
   17        0.829   1.625   0.000   2.454
   18        0.834   1.615   0.000   2.449
   19        0.823   1.604   0.000   2.427
   20        0.826   1.601   0.000   2.427
   21        0.821   1.595   0.000   2.416
   22        0.835   1.618   0.000   2.453
   23        0.836   1.606   0.000   2.442
   24        0.836   1.634   0.000   2.470
   25        1.189   2.612   0.000   3.801
   26        1.264   2.547   0.000   3.811
   27        1.261   2.545   0.000   3.806
   28        1.265   2.518   0.000   3.783
   29        1.262   2.538   0.000   3.799
   30        1.261   2.541   0.000   3.802
   31        1.269   2.541   0.000   3.810
   32        1.217   2.639   0.000   3.856
   33        1.197   2.626   0.000   3.822
   34        1.257   2.557   0.000   3.813
   35        1.233   2.561   0.000   3.794
   36        1.259   2.540   0.000   3.799
   37        1.258   2.540   0.000   3.798
   38        1.255   2.548   0.000   3.803
   39        1.234   2.567   0.000   3.801
   40        1.214   2.656   0.000   3.870
   41        1.195   2.611   0.000   3.806
   42        1.260   2.531   0.000   3.792
   43        1.266   2.547   0.000   3.814
   44        1.262   2.539   0.000   3.801
   45        1.263   2.524   0.000   3.787
   46        1.263   2.553   0.000   3.816
   47        1.261   2.538   0.000   3.798
   48        1.214   2.642   0.000   3.856
   49        1.196   2.596   0.000   3.792
   50        1.261   2.551   0.000   3.812
   51        1.261   2.540   0.000   3.801
   52        1.265   2.524   0.000   3.788
   53        1.264   2.527   0.000   3.791
   54        1.260   2.533   0.000   3.793
   55        1.268   2.535   0.000   3.804
   56        1.214   2.650   0.000   3.864
   57        1.350   0.655  10.024  12.029
--------------------------------------------------
tot         61.101 121.423  10.024 192.548
 


 magnetization (x)
 
# of ion       s       p       d       tot
------------------------------------------
    1       -0.000   0.000   0.000   0.000
    2       -0.000  -0.001   0.000  -0.001
    3        0.000   0.000   0.000   0.000
    4        0.000   0.000   0.000   0.000
    5       -0.000  -0.000   0.000  -0.000
    6        0.000   0.000   0.000   0.000
    7        0.000   0.000   0.000   0.000
    8        0.000   0.000   0.000   0.000
    9        0.000   0.000   0.000   0.000
   10        0.000   0.000   0.000   0.000
   11       -0.000  -0.000   0.000  -0.000
   12       -0.000  -0.000   0.000  -0.000
   13        0.000   0.000   0.000   0.000
   14        0.000   0.001   0.000   0.001
   15       -0.000  -0.001   0.000  -0.001
   16        0.000  -0.000   0.000  -0.000
   17        0.000   0.000   0.000   0.000
   18        0.000   0.000   0.000   0.000
   19       -0.000  -0.000   0.000  -0.000
   20       -0.000  -0.000   0.000  -0.000
   21       -0.000  -0.000   0.000  -0.000
   22        0.000   0.000   0.000   0.000
   23        0.000  -0.000   0.000   0.000
   24       -0.000  -0.000   0.000  -0.000
   25       -0.000  -0.000   0.000  -0.000
   26        0.000  -0.000   0.000  -0.000
   27        0.000   0.000   0.000   0.000
   28        0.000   0.000   0.000   0.000
   29        0.000   0.000   0.000   0.000
   30        0.000   0.000   0.000   0.000
   31        0.000   0.000   0.000   0.000
   32       -0.000   0.000   0.000   0.000
   33       -0.000   0.000   0.000   0.000
   34        0.000   0.000   0.000   0.000
   35        0.000  -0.000   0.000  -0.000
   36       -0.000   0.000   0.000   0.000
   37        0.000   0.000   0.000   0.000
   38       -0.000  -0.000   0.000  -0.000
   39        0.000   0.000   0.000   0.000
   40       -0.000   0.000   0.000   0.000
   41       -0.000  -0.000   0.000  -0.000
   42       -0.000   0.000   0.000   0.000
   43       -0.000  -0.000   0.000  -0.000
   44       -0.000  -0.000   0.000  -0.000
   45        0.000  -0.000   0.000  -0.000
   46        0.000  -0.000   0.000  -0.000
   47        0.000  -0.000   0.000  -0.000
   48        0.000   0.000   0.000   0.000
   49        0.000   0.000   0.000   0.000
   50       -0.000   0.000   0.000   0.000
   51        0.000   0.000   0.000   0.000
   52        0.000   0.000   0.000   0.000
   53       -0.000  -0.000   0.000  -0.000
   54       -0.000  -0.000   0.000  -0.000
   55       -0.000  -0.000   0.000  -0.000
   56       -0.000  -0.000   0.000  -0.000
   57       -0.000  -0.000  -0.000  -0.000
--------------------------------------------------
tot          0.000   0.000  -0.000   0.000
 
 BZINTS: Fermi energy: -2.755939;270.000000 electrons
         Band energy:***********;  BLOECHL correction:  0.000000

 total amount of memory used by VASP MPI-rank0    94401. kBytes
=======================================================================

   base      :      30000. kBytes
   nonl-proj :      14585. kBytes
   fftplans  :       4700. kBytes
   grid      :      12705. kBytes
   one-center:        155. kBytes
   wavefun   :      32256. kBytes
 
  
  
 General timing and accounting informations for this job:
 ========================================================
  
                  Total CPU time used (sec):      212.133
                            User time (sec):      204.538
                          System time (sec):        7.595
                         Elapsed time (sec):      222.691
  
                   Maximum memory used (kb):      452188.
                   Average memory used (kb):           0.
  
                          Minor page faults:      1196089
                          Major page faults:            0
                 Voluntary context switches:         8335
