       N       E                     dE             d eps       ncg     rms          rms(c)
DAV:   1     0.235017797647E+04    0.23502E+04   -0.90913E+04  3872   0.107E+03
DAV:   2     0.131442849388E+03   -0.22187E+04   -0.21178E+04  4840   0.254E+02
DAV:   3    -0.432227574925E+03   -0.56367E+03   -0.55839E+03  4240   0.139E+02
DAV:   4    -0.460257191630E+03   -0.28030E+02   -0.27125E+02  4048   0.413E+01
DAV:   5    -0.461829178564E+03   -0.15720E+01   -0.15536E+01  5088   0.866E+00    0.329E+01
DAV:   6    -0.443722590232E+03    0.18107E+02   -0.64897E+01  4600   0.188E+01    0.188E+01
DAV:   7    -0.442944144754E+03    0.77845E+00   -0.17757E+01  4160   0.141E+01    0.136E+01
DAV:   8    -0.442097548993E+03    0.84660E+00   -0.10226E+01  4160   0.104E+01    0.993E+00
DAV:   9    -0.442394642461E+03   -0.29709E+00   -0.20258E+01  4920   0.803E+00    0.671E+00
DAV:  10    -0.441471372435E+03    0.92327E+00   -0.65515E+00  4576   0.677E+00    0.331E+00
DAV:  11    -0.441346013972E+03    0.12536E+00   -0.17137E+00  4248   0.403E+00    0.262E+00
DAV:  12    -0.441213697324E+03    0.13232E+00   -0.13270E+00  4480   0.240E+00    0.129E+00
DAV:  13    -0.441196130670E+03    0.17567E-01   -0.14847E-01  3992   0.114E+00    0.728E-01
DAV:  14    -0.441190900638E+03    0.52300E-02   -0.41426E-02  4088   0.555E-01    0.405E-01
DAV:  15    -0.441190917600E+03   -0.16963E-04   -0.30910E-02  4184   0.333E-01    0.366E-01
DAV:  16    -0.441191360907E+03   -0.44331E-03   -0.53402E-02  4192   0.319E-01    0.369E-01
DAV:  17    -0.441189559889E+03    0.18010E-02   -0.20007E-02  4144   0.216E-01    0.111E-01
DAV:  18    -0.441189906629E+03   -0.34674E-03   -0.10087E-03  3888   0.741E-02    0.779E-02
DAV:  19    -0.441190026277E+03   -0.11965E-03   -0.81769E-04  2392   0.353E-02    0.981E-02
DAV:  20    -0.441189847306E+03    0.17897E-03   -0.57557E-04  2176   0.263E-02    0.851E-02
DAV:  21    -0.441189727135E+03    0.12017E-03   -0.15620E-03  2424   0.398E-02    0.196E-02
DAV:  22    -0.441189842346E+03   -0.11521E-03   -0.69544E-05  2080   0.238E-02    0.124E-02
DAV:  23    -0.441189843329E+03   -0.98303E-06   -0.24811E-05  1976   0.132E-02
   1 F= -.44461062E+03 E0= -.44461062E+03  d E =0.000000E+00  mag=     0.0000
