       N       E                     dE             d eps       ncg     rms          rms(c)
DAV:   1     0.249493043802E+04    0.24949E+04   -0.11219E+05  4400   0.107E+03
DAV:   2    -0.246686181621E+03   -0.27416E+04   -0.26190E+04  5504   0.278E+02
DAV:   3    -0.702447868625E+03   -0.45576E+03   -0.45197E+03  4560   0.119E+02
DAV:   4    -0.718872180273E+03   -0.16424E+02   -0.16280E+02  4624   0.278E+01
DAV:   5    -0.719415382895E+03   -0.54320E+00   -0.54144E+00  5288   0.425E+00    0.477E+01
DAV:   6    -0.718770732907E+03    0.64465E+00   -0.87280E+01  4848   0.271E+01    0.741E+01
DAV:   7    -0.673505295762E+03    0.45265E+02   -0.63193E+01  4984   0.526E+01    0.266E+01
DAV:   8    -0.669824741881E+03    0.36806E+01   -0.35777E+01  4872   0.130E+01    0.262E+01
DAV:   9    -0.664723616899E+03    0.51011E+01   -0.24894E+01  4576   0.141E+01    0.211E+01
DAV:  10    -0.662076054017E+03    0.26476E+01   -0.20978E+01  5192   0.135E+01    0.110E+01
DAV:  11    -0.661540187998E+03    0.53587E+00   -0.13969E+00  5384   0.312E+00    0.686E+00
DAV:  12    -0.661859249543E+03   -0.31906E+00   -0.88600E-01  4560   0.187E+00    0.642E+00
DAV:  13    -0.661969643892E+03   -0.11039E+00   -0.44495E-01  4832   0.134E+00    0.438E+00
DAV:  14    -0.661992283773E+03   -0.22640E-01   -0.81610E-02  4656   0.609E-01    0.378E+00
DAV:  15    -0.662002927397E+03   -0.10644E-01   -0.10432E-01  4928   0.581E-01    0.290E+00
DAV:  16    -0.661985264391E+03    0.17663E-01   -0.20263E-02  4808   0.316E-01    0.218E+00
DAV:  17    -0.661969180741E+03    0.16084E-01   -0.95395E-03  5320   0.270E-01    0.177E+00
DAV:  18    -0.661958645576E+03    0.10535E-01   -0.59186E-03  5080   0.193E-01    0.138E+00
DAV:  19    -0.661948118138E+03    0.10527E-01   -0.11704E-02  5104   0.264E-01    0.758E-01
DAV:  20    -0.661946361332E+03    0.17568E-02   -0.19614E-03  4456   0.124E-01    0.497E-01
DAV:  21    -0.661945796949E+03    0.56438E-03   -0.34821E-03  4640   0.158E-01    0.207E-01
DAV:  22    -0.661945858305E+03   -0.61356E-04   -0.48347E-04  3440   0.501E-02
   1 F= -.66837194E+03 E0= -.66837194E+03  d E =0.000000E+00  mag=    -1.0216
