  71  71   0   0
  0.4011563E+02  0.1487831E-08  0.1477209E-08  0.1500000E-08  0.3000000E-15
  1.000000000000000E-004
  CAR 
 unknown system                          
      5.28940875    -48.64952275  301     -2.08007174      1.00000000
    -48.650  0.0000E+00  0.0000E+00  0.0000E+00  0.0000E+00
    -48.470  0.0000E+00  0.0000E+00  0.0000E+00  0.0000E+00
    -48.290  0.0000E+00  0.0000E+00  0.0000E+00  0.0000E+00
    -48.110  0.0000E+00  0.0000E+00  0.0000E+00  0.0000E+00
    -47.930  0.0000E+00  0.0000E+00  0.0000E+00  0.0000E+00
    -47.751  0.0000E+00  0.0000E+00  0.0000E+00  0.0000E+00
    -47.571  0.0000E+00  0.0000E+00  0.0000E+00  0.0000E+00
    -47.391  0.0000E+00  0.0000E+00  0.0000E+00  0.0000E+00
    -47.211  0.0000E+00  0.0000E+00  0.0000E+00  0.0000E+00
    -47.031  0.0000E+00  0.0000E+00  0.0000E+00  0.0000E+00
    -46.852  0.0000E+00  0.0000E+00  0.0000E+00  0.0000E+00
    -46.672  0.1415E-12  0.0000E+00  0.2544E-13  0.0000E+00
    -46.492  0.2205E-06  0.0000E+00  0.3964E-07  0.0000E+00
    -46.312  0.7343E-03  0.0000E+00  0.1321E-03  0.0000E+00
    -46.132  0.1082E-01  0.0000E+00  0.2077E-02  0.0000E+00
    -45.953  0.1334E-01  0.0000E+00  0.4476E-02  0.0000E+00
    -45.773  0.1632E-01  0.0000E+00  0.7409E-02  0.0000E+00
    -45.593  0.5035E-03  0.0000E+00  0.7500E-02  0.0000E+00
    -45.413  0.8000E-07  0.0000E+00  0.7500E-02  0.0000E+00
    -45.233  0.2868E-13  0.0000E+00  0.7500E-02  0.0000E+00
    -45.054  0.0000E+00  0.0000E+00  0.7500E-02  0.0000E+00
    -44.874  0.0000E+00  0.0000E+00  0.7500E-02  0.0000E+00
    -44.694  0.0000E+00  0.0000E+00  0.7500E-02  0.0000E+00
    -44.514  0.0000E+00  0.1697E-13  0.7500E-02  0.3051E-14
    -44.334  0.0000E+00  0.5594E-07  0.7500E-02  0.1006E-07
    -44.155  0.0000E+00  0.3803E-03  0.7500E-02  0.6838E-04
    -43.975  0.0000E+00  0.9906E-02  0.7500E-02  0.1849E-02
    -43.795  0.0000E+00  0.1165E-01  0.7500E-02  0.3944E-02
    -43.615  0.0000E+00  0.1702E-01  0.7500E-02  0.7004E-02
    -43.435  0.0000E+00  0.2752E-02  0.7500E-02  0.7499E-02
    -43.256  0.0000E+00  0.4580E-05  0.7500E-02  0.7500E-02
    -43.076  0.0000E+00  0.1876E-10  0.7500E-02  0.7500E-02
    -42.896  0.0000E+00  0.0000E+00  0.7500E-02  0.7500E-02
    -42.716  0.0000E+00  0.0000E+00  0.7500E-02  0.7500E-02
    -42.536  0.0000E+00  0.0000E+00  0.7500E-02  0.7500E-02
    -42.357  0.0000E+00  0.0000E+00  0.7500E-02  0.7500E-02
    -42.177  0.0000E+00  0.0000E+00  0.7500E-02  0.7500E-02
    -41.997  0.0000E+00  0.0000E+00  0.7500E-02  0.7500E-02
    -41.817  0.0000E+00  0.0000E+00  0.7500E-02  0.7500E-02
    -41.637  0.0000E+00  0.0000E+00  0.7500E-02  0.7500E-02
    -41.458  0.0000E+00  0.0000E+00  0.7500E-02  0.7500E-02
    -41.278  0.0000E+00  0.0000E+00  0.7500E-02  0.7500E-02
    -41.098  0.0000E+00  0.0000E+00  0.7500E-02  0.7500E-02
    -40.918  0.0000E+00  0.0000E+00  0.7500E-02  0.7500E-02
    -40.738  0.0000E+00  0.0000E+00  0.7500E-02  0.7500E-02
    -40.559  0.0000E+00  0.0000E+00  0.7500E-02  0.7500E-02
    -40.379  0.0000E+00  0.0000E+00  0.7500E-02  0.7500E-02
    -40.199  0.0000E+00  0.0000E+00  0.7500E-02  0.7500E-02
    -40.019  0.0000E+00  0.0000E+00  0.7500E-02  0.7500E-02
    -39.839  0.0000E+00  0.0000E+00  0.7500E-02  0.7500E-02
    -39.660  0.0000E+00  0.0000E+00  0.7500E-02  0.7500E-02
    -39.480  0.0000E+00  0.0000E+00  0.7500E-02  0.7500E-02
    -39.300  0.0000E+00  0.0000E+00  0.7500E-02  0.7500E-02
    -39.120  0.0000E+00  0.0000E+00  0.7500E-02  0.7500E-02
    -38.941  0.0000E+00  0.0000E+00  0.7500E-02  0.7500E-02
    -38.761  0.0000E+00  0.0000E+00  0.7500E-02  0.7500E-02
    -38.581  0.0000E+00  0.0000E+00  0.7500E-02  0.7500E-02
    -38.401  0.0000E+00  0.0000E+00  0.7500E-02  0.7500E-02
    -38.221  0.0000E+00  0.0000E+00  0.7500E-02  0.7500E-02
    -38.042  0.0000E+00  0.0000E+00  0.7500E-02  0.7500E-02
    -37.862  0.0000E+00  0.0000E+00  0.7500E-02  0.7500E-02
    -37.682  0.0000E+00  0.0000E+00  0.7500E-02  0.7500E-02
    -37.502  0.0000E+00  0.0000E+00  0.7500E-02  0.7500E-02
    -37.322  0.0000E+00  0.0000E+00  0.7500E-02  0.7500E-02
    -37.143  0.0000E+00  0.0000E+00  0.7500E-02  0.7500E-02
    -36.963  0.0000E+00  0.0000E+00  0.7500E-02  0.7500E-02
    -36.783  0.0000E+00  0.0000E+00  0.7500E-02  0.7500E-02
    -36.603  0.0000E+00  0.0000E+00  0.7500E-02  0.7500E-02
    -36.423  0.0000E+00  0.0000E+00  0.7500E-02  0.7500E-02
    -36.244  0.0000E+00  0.0000E+00  0.7500E-02  0.7500E-02
    -36.064  0.0000E+00  0.0000E+00  0.7500E-02  0.7500E-02
    -35.884  0.0000E+00  0.0000E+00  0.7500E-02  0.7500E-02
    -35.704  0.0000E+00  0.0000E+00  0.7500E-02  0.7500E-02
    -35.524  0.0000E+00  0.0000E+00  0.7500E-02  0.7500E-02
    -35.345  0.0000E+00  0.0000E+00  0.7500E-02  0.7500E-02
    -35.165  0.0000E+00  0.0000E+00  0.7500E-02  0.7500E-02
    -34.985  0.0000E+00  0.0000E+00  0.7500E-02  0.7500E-02
    -34.805  0.0000E+00  0.0000E+00  0.7500E-02  0.7500E-02
    -34.625  0.0000E+00  0.0000E+00  0.7500E-02  0.7500E-02
    -34.446  0.0000E+00  0.0000E+00  0.7500E-02  0.7500E-02
    -34.266  0.0000E+00  0.0000E+00  0.7500E-02  0.7500E-02
    -34.086  0.0000E+00  0.0000E+00  0.7500E-02  0.7500E-02
    -33.906  0.0000E+00  0.0000E+00  0.7500E-02  0.7500E-02
    -33.726  0.0000E+00  0.0000E+00  0.7500E-02  0.7500E-02
    -33.547  0.0000E+00  0.0000E+00  0.7500E-02  0.7500E-02
    -33.367  0.0000E+00  0.0000E+00  0.7500E-02  0.7500E-02
    -33.187  0.0000E+00  0.0000E+00  0.7500E-02  0.7500E-02
    -33.007  0.0000E+00  0.0000E+00  0.7500E-02  0.7500E-02
    -32.827  0.0000E+00  0.0000E+00  0.7500E-02  0.7500E-02
    -32.648  0.0000E+00  0.0000E+00  0.7500E-02  0.7500E-02
    -32.468  0.0000E+00  0.0000E+00  0.7500E-02  0.7500E-02
    -32.288  0.0000E+00  0.0000E+00  0.7500E-02  0.7500E-02
    -32.108  0.0000E+00  0.0000E+00  0.7500E-02  0.7500E-02
    -31.928  0.0000E+00  0.0000E+00  0.7500E-02  0.7500E-02
    -31.749  0.0000E+00  0.0000E+00  0.7500E-02  0.7500E-02
    -31.569  0.0000E+00  0.0000E+00  0.7500E-02  0.7500E-02
    -31.389  0.0000E+00  0.0000E+00  0.7500E-02  0.7500E-02
    -31.209  0.0000E+00  0.0000E+00  0.7500E-02  0.7500E-02
    -31.029  0.0000E+00  0.0000E+00  0.7500E-02  0.7500E-02
    -30.850  0.0000E+00  0.0000E+00  0.7500E-02  0.7500E-02
    -30.670  0.0000E+00  0.0000E+00  0.7500E-02  0.7500E-02
    -30.490  0.0000E+00  0.0000E+00  0.7500E-02  0.7500E-02
    -30.310  0.0000E+00  0.0000E+00  0.7500E-02  0.7500E-02
    -30.130  0.0000E+00  0.0000E+00  0.7500E-02  0.7500E-02
    -29.951  0.0000E+00  0.0000E+00  0.7500E-02  0.7500E-02
    -29.771  0.0000E+00  0.0000E+00  0.7500E-02  0.7500E-02
    -29.591  0.0000E+00  0.0000E+00  0.7500E-02  0.7500E-02
    -29.411  0.0000E+00  0.0000E+00  0.7500E-02  0.7500E-02
    -29.232  0.0000E+00  0.0000E+00  0.7500E-02  0.7500E-02
    -29.052  0.0000E+00  0.0000E+00  0.7500E-02  0.7500E-02
    -28.872  0.0000E+00  0.0000E+00  0.7500E-02  0.7500E-02
    -28.692  0.0000E+00  0.0000E+00  0.7500E-02  0.7500E-02
    -28.512  0.0000E+00  0.0000E+00  0.7500E-02  0.7500E-02
    -28.333  0.0000E+00  0.0000E+00  0.7500E-02  0.7500E-02
    -28.153  0.0000E+00  0.0000E+00  0.7500E-02  0.7500E-02
    -27.973  0.0000E+00  0.0000E+00  0.7500E-02  0.7500E-02
    -27.793  0.0000E+00  0.0000E+00  0.7500E-02  0.7500E-02
    -27.613  0.0000E+00  0.0000E+00  0.7500E-02  0.7500E-02
    -27.434  0.0000E+00  0.0000E+00  0.7500E-02  0.7500E-02
    -27.254  0.0000E+00  0.0000E+00  0.7500E-02  0.7500E-02
    -27.074  0.0000E+00  0.0000E+00  0.7500E-02  0.7500E-02
    -26.894  0.0000E+00  0.0000E+00  0.7500E-02  0.7500E-02
    -26.714  0.0000E+00  0.0000E+00  0.7500E-02  0.7500E-02
    -26.535  0.0000E+00  0.0000E+00  0.7500E-02  0.7500E-02
    -26.355  0.0000E+00  0.0000E+00  0.7500E-02  0.7500E-02
    -26.175  0.0000E+00  0.0000E+00  0.7500E-02  0.7500E-02
    -25.995  0.0000E+00  0.0000E+00  0.7500E-02  0.7500E-02
    -25.815  0.0000E+00  0.0000E+00  0.7500E-02  0.7500E-02
    -25.636  0.0000E+00  0.0000E+00  0.7500E-02  0.7500E-02
    -25.456  0.0000E+00  0.0000E+00  0.7500E-02  0.7500E-02
    -25.276  0.0000E+00  0.0000E+00  0.7500E-02  0.7500E-02
    -25.096  0.0000E+00  0.0000E+00  0.7500E-02  0.7500E-02
    -24.916  0.0000E+00  0.0000E+00  0.7500E-02  0.7500E-02
    -24.737  0.0000E+00  0.0000E+00  0.7500E-02  0.7500E-02
    -24.557  0.0000E+00  0.0000E+00  0.7500E-02  0.7500E-02
    -24.377  0.4945E-11  0.8167E-11  0.7500E-02  0.7500E-02
    -24.197  0.2041E-05  0.2772E-05  0.7500E-02  0.7500E-02
    -24.017  0.1951E-02  0.2209E-02  0.7851E-02  0.7898E-02
    -23.838  0.1096E-01  0.1084E-01  0.9821E-02  0.9847E-02
    -23.658  0.9941E-03  0.8512E-03  0.1000E-01  0.1000E-01
    -23.478  0.4271E-06  0.3036E-06  0.1000E-01  0.1000E-01
    -23.298  0.4001E-12  0.2336E-12  0.1000E-01  0.1000E-01
    -23.118  0.0000E+00  0.0000E+00  0.1000E-01  0.1000E-01
    -22.939  0.0000E+00  0.0000E+00  0.1000E-01  0.1000E-01
    -22.759  0.0000E+00  0.0000E+00  0.1000E-01  0.1000E-01
    -22.579  0.0000E+00  0.0000E+00  0.1000E-01  0.1000E-01
    -22.399  0.0000E+00  0.0000E+00  0.1000E-01  0.1000E-01
    -22.219  0.0000E+00  0.0000E+00  0.1000E-01  0.1000E-01
    -22.040  0.7890E-15  0.9801E-15  0.1000E-01  0.1000E-01
    -21.860  0.5644E-08  0.6518E-08  0.1000E-01  0.1000E-01
    -21.680  0.8743E-04  0.9435E-04  0.1002E-01  0.1002E-01
    -21.500  0.6104E-02  0.6252E-02  0.1111E-01  0.1114E-01
    -21.320  0.1354E-01  0.1351E-01  0.1355E-01  0.1357E-01
    -21.141  0.1063E-01  0.1073E-01  0.1546E-01  0.1550E-01
    -20.961  0.1448E-01  0.1460E-01  0.1806E-01  0.1812E-01
    -20.781  0.1305E-01  0.1288E-01  0.2041E-01  0.2044E-01
    -20.601  0.9440E-02  0.9672E-02  0.2211E-01  0.2218E-01
    -20.421  0.1661E-01  0.1661E-01  0.2509E-01  0.2517E-01
    -20.242  0.1292E-01  0.1295E-01  0.2742E-01  0.2749E-01
    -20.062  0.1446E-01  0.1459E-01  0.3001E-01  0.3012E-01
    -19.882  0.1100E-01  0.1081E-01  0.3199E-01  0.3206E-01
    -19.702  0.1421E-01  0.1424E-01  0.3455E-01  0.3462E-01
    -19.522  0.1530E-01  0.1549E-01  0.3730E-01  0.3741E-01
    -19.343  0.1454E-01  0.1430E-01  0.3991E-01  0.3998E-01
    -19.163  0.1190E-01  0.1240E-01  0.4205E-01  0.4221E-01
    -18.983  0.1635E-01  0.1610E-01  0.4499E-01  0.4510E-01
    -18.803  0.1264E-01  0.1268E-01  0.4727E-01  0.4738E-01
    -18.624  0.1009E-01  0.9768E-02  0.4908E-01  0.4914E-01
    -18.444  0.1671E-01  0.1679E-01  0.5208E-01  0.5216E-01
    -18.264  0.1764E-01  0.1866E-01  0.5526E-01  0.5551E-01
    -18.084  0.1962E-01  0.1879E-01  0.5878E-01  0.5889E-01
    -17.904  0.1052E-01  0.1028E-01  0.6067E-01  0.6074E-01
    -17.725  0.5705E-02  0.5688E-02  0.6170E-01  0.6176E-01
    -17.545  0.1365E-01  0.1420E-01  0.6415E-01  0.6431E-01
    -17.365  0.1990E-01  0.1964E-01  0.6773E-01  0.6785E-01
    -17.185  0.1816E-01  0.1825E-01  0.7100E-01  0.7113E-01
    -17.005  0.1739E-01  0.1735E-01  0.7412E-01  0.7425E-01
    -16.826  0.1695E-01  0.1692E-01  0.7717E-01  0.7729E-01
    -16.646  0.1700E-01  0.1706E-01  0.8023E-01  0.8036E-01
    -16.466  0.1010E-01  0.9909E-02  0.8204E-01  0.8214E-01
    -16.286  0.1023E-01  0.1021E-01  0.8388E-01  0.8397E-01
    -16.106  0.1395E-01  0.1438E-01  0.8639E-01  0.8656E-01
    -15.927  0.1844E-01  0.1832E-01  0.8971E-01  0.8985E-01
    -15.747  0.1196E-01  0.1152E-01  0.9186E-01  0.9192E-01
    -15.567  0.6443E-02  0.6881E-02  0.9301E-01  0.9316E-01
    -15.387  0.9582E-02  0.9543E-02  0.9474E-01  0.9488E-01
    -15.207  0.1312E-01  0.1321E-01  0.9710E-01  0.9725E-01
    -15.028  0.1516E-01  0.1480E-01  0.9982E-01  0.9991E-01
    -14.848  0.1316E-01  0.1351E-01  0.1022E+00  0.1023E+00
    -14.668  0.2078E-01  0.2061E-01  0.1059E+00  0.1060E+00
    -14.488  0.1408E-01  0.1393E-01  0.1085E+00  0.1086E+00
    -14.308  0.1191E-01  0.1187E-01  0.1106E+00  0.1107E+00
    -14.129  0.1774E-01  0.1807E-01  0.1138E+00  0.1139E+00
    -13.949  0.1827E-01  0.1834E-01  0.1171E+00  0.1172E+00
    -13.769  0.1819E-01  0.1802E-01  0.1203E+00  0.1205E+00
    -13.589  0.1044E-01  0.1030E-01  0.1222E+00  0.1223E+00
    -13.409  0.1718E-01  0.1749E-01  0.1253E+00  0.1255E+00
    -13.230  0.1109E-01  0.1083E-01  0.1273E+00  0.1274E+00
    -13.050  0.1073E-01  0.1070E-01  0.1292E+00  0.1293E+00
    -12.870  0.1387E-01  0.1391E-01  0.1317E+00  0.1318E+00
    -12.690  0.2132E-01  0.2158E-01  0.1356E+00  0.1357E+00
    -12.510  0.1277E-01  0.1250E-01  0.1379E+00  0.1380E+00
    -12.331  0.9792E-02  0.9577E-02  0.1396E+00  0.1397E+00
    -12.151  0.1275E-01  0.1280E-01  0.1419E+00  0.1420E+00
    -11.971  0.1347E-01  0.1343E-01  0.1443E+00  0.1444E+00
    -11.791  0.2077E-01  0.2112E-01  0.1481E+00  0.1482E+00
    -11.611  0.2880E-01  0.2919E-01  0.1532E+00  0.1535E+00
    -11.432  0.1888E-01  0.1800E-01  0.1566E+00  0.1567E+00
    -11.252  0.7511E-02  0.7840E-02  0.1580E+00  0.1581E+00
    -11.072  0.1685E-01  0.1667E-01  0.1610E+00  0.1611E+00
    -10.892  0.1473E-01  0.1455E-01  0.1637E+00  0.1637E+00
    -10.712  0.1405E-01  0.1427E-01  0.1662E+00  0.1663E+00
    -10.533  0.1702E-01  0.1727E-01  0.1693E+00  0.1694E+00
    -10.353  0.2259E-01  0.2244E-01  0.1733E+00  0.1734E+00
    -10.173  0.2893E-01  0.2900E-01  0.1785E+00  0.1786E+00
     -9.993  0.2805E-01  0.2820E-01  0.1836E+00  0.1837E+00
     -9.813  0.2238E-01  0.2191E-01  0.1876E+00  0.1876E+00
     -9.634  0.2093E-01  0.2132E-01  0.1913E+00  0.1915E+00
     -9.454  0.2951E-01  0.2929E-01  0.1967E+00  0.1967E+00
     -9.274  0.2777E-01  0.2785E-01  0.2016E+00  0.2017E+00
     -9.094  0.2949E-01  0.2951E-01  0.2069E+00  0.2071E+00
     -8.915  0.3664E-01  0.3661E-01  0.2135E+00  0.2136E+00
     -8.735  0.4001E-01  0.4012E-01  0.2207E+00  0.2209E+00
     -8.555  0.4530E-01  0.4621E-01  0.2289E+00  0.2292E+00
     -8.375  0.4674E-01  0.4595E-01  0.2373E+00  0.2374E+00
     -8.195  0.3611E-01  0.3590E-01  0.2438E+00  0.2439E+00
     -8.016  0.3215E-01  0.3242E-01  0.2495E+00  0.2497E+00
     -7.836  0.3200E-01  0.3175E-01  0.2553E+00  0.2554E+00
     -7.656  0.1875E-01  0.1849E-01  0.2587E+00  0.2587E+00
     -7.476  0.3516E-01  0.3548E-01  0.2650E+00  0.2651E+00
     -7.296  0.3404E-01  0.3407E-01  0.2711E+00  0.2712E+00
     -7.117  0.3876E-01  0.3813E-01  0.2781E+00  0.2781E+00
     -6.937  0.3297E-01  0.3289E-01  0.2840E+00  0.2840E+00
     -6.757  0.2005E-01  0.2045E-01  0.2876E+00  0.2877E+00
     -6.577  0.1700E-01  0.1696E-01  0.2907E+00  0.2907E+00
     -6.397  0.2044E-01  0.1867E-01  0.2943E+00  0.2941E+00
     -6.218  0.3309E-01  0.3307E-01  0.3003E+00  0.3000E+00
     -6.038  0.3349E-01  0.3484E-01  0.3063E+00  0.3063E+00
     -5.858  0.3064E-01  0.3056E-01  0.3118E+00  0.3118E+00
     -5.678  0.2513E-01  0.2293E-01  0.3163E+00  0.3159E+00
     -5.498  0.1506E-01  0.1681E-01  0.3191E+00  0.3189E+00
     -5.319  0.1924E-01  0.1725E-01  0.3225E+00  0.3220E+00
     -5.139  0.1837E-01  0.1663E-01  0.3258E+00  0.3250E+00
     -4.959  0.2913E-01  0.2297E-01  0.3311E+00  0.3292E+00
     -4.779  0.2737E-01  0.3439E-01  0.3360E+00  0.3353E+00
     -4.599  0.3413E-01  0.3376E-01  0.3421E+00  0.3414E+00
     -4.420  0.1577E-01  0.1891E-01  0.3449E+00  0.3448E+00
     -4.240  0.5986E-02  0.4716E-02  0.3460E+00  0.3457E+00
     -4.060  0.1767E-01  0.9038E-02  0.3492E+00  0.3473E+00
     -3.880  0.2238E-01  0.1667E-01  0.3532E+00  0.3503E+00
     -3.700  0.1113E-01  0.1506E-01  0.3552E+00  0.3530E+00
     -3.521  0.1081E-01  0.2052E-01  0.3572E+00  0.3567E+00
     -3.341  0.1779E-01  0.1301E-01  0.3604E+00  0.3590E+00
     -3.161  0.1450E-01  0.5726E-02  0.3630E+00  0.3601E+00
     -2.981  0.6091E-02  0.6713E-02  0.3641E+00  0.3613E+00
     -2.801  0.1100E-01  0.3004E-02  0.3660E+00  0.3618E+00
     -2.622  0.2066E-02  0.3970E-03  0.3664E+00  0.3619E+00
     -2.442  0.2653E-02  0.2265E-03  0.3669E+00  0.3619E+00
     -2.262  0.3541E-02  0.3192E-02  0.3675E+00  0.3625E+00
     -2.082  0.5225E-02  0.8380E-02  0.3685E+00  0.3640E+00
     -1.902  0.2123E-02  0.7822E-02  0.3689E+00  0.3654E+00
     -1.723  0.1197E-01  0.1274E-02  0.3710E+00  0.3656E+00
     -1.543  0.1599E-01  0.2325E-02  0.3739E+00  0.3660E+00
     -1.363  0.1120E-01  0.8293E-02  0.3759E+00  0.3675E+00
     -1.183  0.1110E-01  0.3258E-02  0.3779E+00  0.3681E+00
     -1.003  0.2272E-02  0.5529E-02  0.3783E+00  0.3691E+00
     -0.824  0.1337E-01  0.3236E-01  0.3807E+00  0.3749E+00
     -0.644  0.2183E-01  0.2840E-01  0.3846E+00  0.3800E+00
     -0.464  0.1154E-01  0.2257E-01  0.3867E+00  0.3841E+00
     -0.284  0.1731E-01  0.2160E-01  0.3898E+00  0.3880E+00
     -0.104  0.1543E-01  0.1987E-01  0.3926E+00  0.3916E+00
      0.075  0.9379E-02  0.1001E-01  0.3943E+00  0.3934E+00
      0.255  0.2161E-01  0.1776E-01  0.3982E+00  0.3966E+00
      0.435  0.1944E-01  0.2785E-01  0.4017E+00  0.4016E+00
      0.615  0.1404E-01  0.1444E-01  0.4042E+00  0.4042E+00
      0.794  0.1688E-01  0.9905E-02  0.4072E+00  0.4059E+00
      0.974  0.1670E-01  0.1493E-01  0.4102E+00  0.4086E+00
      1.154  0.8704E-02  0.1585E-01  0.4118E+00  0.4115E+00
      1.334  0.1837E-01  0.1448E-01  0.4151E+00  0.4141E+00
      1.514  0.1565E-01  0.1717E-01  0.4179E+00  0.4172E+00
      1.693  0.2428E-01  0.2279E-01  0.4223E+00  0.4213E+00
      1.873  0.2871E-01  0.2689E-01  0.4274E+00  0.4261E+00
      2.053  0.3614E-01  0.3375E-01  0.4339E+00  0.4322E+00
      2.233  0.2648E-01  0.2705E-01  0.4387E+00  0.4370E+00
      2.413  0.2006E-01  0.2027E-01  0.4423E+00  0.4407E+00
      2.592  0.3889E-01  0.4480E-01  0.4493E+00  0.4487E+00
      2.772  0.4907E-01  0.4983E-01  0.4581E+00  0.4577E+00
      2.952  0.1040E-01  0.1258E-01  0.4600E+00  0.4599E+00
      3.132  0.1438E-03  0.3096E-03  0.4600E+00  0.4600E+00
      3.312  0.1622E-07  0.6510E-07  0.4600E+00  0.4600E+00
      3.491  0.4755E-14  0.3724E-13  0.4600E+00  0.4600E+00
      3.671  0.0000E+00  0.0000E+00  0.4600E+00  0.4600E+00
      3.851  0.0000E+00  0.0000E+00  0.4600E+00  0.4600E+00
      4.031  0.0000E+00  0.0000E+00  0.4600E+00  0.4600E+00
      4.211  0.0000E+00  0.0000E+00  0.4600E+00  0.4600E+00
      4.390  0.0000E+00  0.0000E+00  0.4600E+00  0.4600E+00
      4.570  0.0000E+00  0.0000E+00  0.4600E+00  0.4600E+00
      4.750  0.0000E+00  0.0000E+00  0.4600E+00  0.4600E+00
      4.930  0.0000E+00  0.0000E+00  0.4600E+00  0.4600E+00
      5.110  0.0000E+00  0.0000E+00  0.4600E+00  0.4600E+00
      5.289  0.0000E+00  0.0000E+00  0.4600E+00  0.4600E+00
