       N       E                     dE             d eps       ncg     rms          rms(c)
DAV:   1     0.273556517339E+04    0.27356E+04   -0.11740E+05  3256   0.127E+03
DAV:   2    -0.173490251469E+03   -0.29091E+04   -0.27806E+04  4312   0.295E+02
DAV:   3    -0.684381020974E+03   -0.51089E+03   -0.50790E+03  3544   0.129E+02
DAV:   4    -0.703793733035E+03   -0.19413E+02   -0.19259E+02  3544   0.312E+01
DAV:   5    -0.704417450099E+03   -0.62372E+00   -0.62185E+00  4040   0.481E+00    0.466E+01
RMM:   6    -0.732581024166E+03   -0.28164E+02   -0.53551E+02  4113   0.397E+01    0.840E+01
RMM:   7    -0.662311052125E+03    0.70270E+02   -0.54533E+01  3042   0.138E+01    0.319E+01
RMM:   8    -0.662287375945E+03    0.23676E-01   -0.21148E+01  3136   0.710E+00    0.283E+01
RMM:   9    -0.647118386573E+03    0.15169E+02   -0.20333E+01  2974   0.850E+00    0.111E+01
RMM:  10    -0.647667143939E+03   -0.54876E+00   -0.28465E+00  3008   0.304E+00    0.143E+01
RMM:  11    -0.646590768270E+03    0.10764E+01   -0.39588E-01  3101   0.102E+00    0.734E+00
RMM:  12    -0.646554565656E+03    0.36203E-01   -0.17090E-01  2944   0.948E-01    0.708E+00
RMM:  13    -0.646591195902E+03   -0.36630E-01   -0.20849E-02  3030   0.336E-01    0.722E+00
RMM:  14    -0.646438812123E+03    0.15238E+00   -0.20784E-02  2968   0.315E-01    0.710E+00
RMM:  15    -0.646452660775E+03   -0.13849E-01   -0.27254E-03  3179   0.764E-02    0.705E+00
RMM:  16    -0.646468870840E+03   -0.16210E-01   -0.69749E-04  2779   0.347E-02    0.711E+00
RMM:  17    -0.646449360446E+03    0.19510E-01   -0.93137E-04  2919   0.444E-02    0.693E+00
RMM:  18    -0.646330590976E+03    0.11877E+00   -0.19872E-01  2964   0.659E-01    0.540E+00
RMM:  19    -0.646433421714E+03   -0.10283E+00   -0.11022E-01  2992   0.449E-01    0.739E+00
RMM:  20    -0.646510799179E+03   -0.77377E-01   -0.19118E-01  2959   0.697E-01    0.783E+00
RMM:  21    -0.646359240970E+03    0.15156E+00   -0.10230E-01  2965   0.473E-01    0.628E+00
RMM:  22    -0.646388290954E+03   -0.29050E-01   -0.12693E-01  2963   0.475E-01    0.529E+00
RMM:  23    -0.646643467454E+03   -0.25518E+00   -0.13847E-01  2962   0.712E-01    0.608E+00
RMM:  24    -0.646684035832E+03   -0.40568E-01   -0.38676E-02  3136   0.301E-01    0.588E+00
RMM:  25    -0.646534629231E+03    0.14941E+00   -0.29594E-02  3015   0.278E-01    0.651E+00
RMM:  26    -0.646456679715E+03    0.77950E-01   -0.14559E-02  3061   0.169E-01    0.616E+00
RMM:  27    -0.646384997551E+03    0.71682E-01   -0.28983E-02  2979   0.247E-01    0.507E+00
RMM:  28    -0.646359430246E+03    0.25567E-01   -0.34945E-02  2984   0.291E-01    0.371E+00
RMM:  29    -0.646484131932E+03   -0.12470E+00   -0.24525E-02  2984   0.284E-01    0.500E+00
RMM:  30    -0.646469987372E+03    0.14145E-01   -0.81628E-02  2967   0.426E-01    0.410E+00
RMM:  31    -0.646429776702E+03    0.40211E-01   -0.45638E-02  3066   0.253E-01    0.384E+00
RMM:  32    -0.646397871197E+03    0.31906E-01   -0.11175E-02  3065   0.135E-01    0.355E+00
RMM:  33    -0.646402852253E+03   -0.49811E-02   -0.25660E-03  3051   0.716E-02    0.349E+00
RMM:  34    -0.646387847144E+03    0.15005E-01   -0.38265E-03  3006   0.905E-02    0.333E+00
RMM:  35    -0.646454767062E+03   -0.66920E-01   -0.29329E-02  3015   0.245E-01    0.481E+00
RMM:  36    -0.646388255939E+03    0.66511E-01   -0.44433E-02  2992   0.323E-01    0.445E+00
RMM:  37    -0.646376738947E+03    0.11517E-01   -0.30647E-02  3014   0.188E-01    0.339E+00
RMM:  38    -0.646400017199E+03   -0.23278E-01   -0.57967E-03  3083   0.132E-01    0.280E+00
RMM:  39    -0.646395928415E+03    0.40888E-02   -0.79454E-03  3017   0.117E-01    0.209E+00
RMM:  40    -0.646392772040E+03    0.31564E-02   -0.85340E-03  2973   0.158E-01    0.233E+00
RMM:  41    -0.646347416784E+03    0.45355E-01   -0.55419E-02  2975   0.253E-01    0.296E+00
RMM:  42    -0.646347670842E+03   -0.25406E-03   -0.48241E-03  2970   0.886E-02    0.332E+00
RMM:  43    -0.646347696937E+03   -0.26096E-04   -0.10695E-03  2664   0.472E-02    0.344E+00
RMM:  44    -0.646363462417E+03   -0.15765E-01   -0.88664E-04  2433   0.420E-02    0.360E+00
RMM:  45    -0.646350219509E+03    0.13243E-01   -0.57364E-03  2947   0.102E-01    0.371E+00
RMM:  46    -0.646316424598E+03    0.33795E-01   -0.44408E-03  2830   0.881E-02    0.371E+00
RMM:  47    -0.646273841190E+03    0.42583E-01   -0.47154E-03  2918   0.972E-02    0.359E+00
RMM:  48    -0.646294463697E+03   -0.20623E-01   -0.42054E-03  2952   0.968E-02    0.306E+00
RMM:  49    -0.646225793925E+03    0.68670E-01   -0.14600E-02  2987   0.176E-01    0.229E+00
RMM:  50    -0.646221481885E+03    0.43120E-02   -0.27691E-03  2952   0.148E-01
   1 F= -.65261667E+03 E0= -.65258793E+03  d E =-.652617E+03  mag=    -0.1190
       N       E                     dE             d eps       ncg     rms          rms(c)
DAV:   1    -0.646277401758E+03   -0.51608E-01   -0.96329E+00  3160   0.873E+00    0.301E+00
RMM:   2    -0.646439759190E+03   -0.16236E+00   -0.54185E-01  2965   0.163E+00    0.292E+00
RMM:   3    -0.646522964541E+03   -0.83205E-01   -0.22054E-01  3172   0.729E-01    0.465E+00
RMM:   4    -0.646390898288E+03    0.13207E+00   -0.48993E-02  3235   0.349E-01    0.307E+00
RMM:   5    -0.646273283056E+03    0.11762E+00   -0.80847E-02  2999   0.426E-01    0.184E+00
RMM:   6    -0.646387077679E+03   -0.11379E+00   -0.10756E-01  3082   0.431E-01    0.104E+00
RMM:   7    -0.646511756014E+03   -0.12468E+00   -0.90631E-02  3085   0.336E-01    0.102E+00
RMM:   8    -0.646478992152E+03    0.32764E-01   -0.10499E-02  3267   0.123E-01    0.102E+00
RMM:   9    -0.646481202553E+03   -0.22104E-02   -0.30830E-03  3296   0.610E-02    0.108E+00
RMM:  10    -0.646478851655E+03    0.23509E-02   -0.52172E-04  2496   0.285E-02    0.108E+00
RMM:  11    -0.646475326175E+03    0.35255E-02   -0.19571E-02  2964   0.184E-01    0.984E-01
RMM:  12    -0.645680938716E+03    0.79439E+00   -0.77131E-01  2977   0.127E+00    0.284E+00
RMM:  13    -0.646494134436E+03   -0.81320E+00   -0.56300E-01  3010   0.909E-01    0.107E+00
RMM:  14    -0.646640836540E+03   -0.14670E+00   -0.40580E-01  2980   0.633E-01    0.136E+00
RMM:  15    -0.646769776801E+03   -0.12894E+00   -0.14074E-01  3121   0.344E-01    0.191E+00
RMM:  16    -0.646802962687E+03   -0.33186E-01   -0.25781E-02  3305   0.181E-01    0.202E+00
RMM:  17    -0.646796457574E+03    0.65051E-02   -0.49907E-03  3233   0.691E-02    0.209E+00
RMM:  18    -0.646768260678E+03    0.28197E-01   -0.16081E-03  2883   0.616E-02    0.214E+00
RMM:  19    -0.646742417846E+03    0.25843E-01   -0.58104E-03  2954   0.110E-01    0.219E+00
RMM:  20    -0.646742966085E+03   -0.54824E-03   -0.17249E-02  3004   0.177E-01    0.213E+00
RMM:  21    -0.646821038176E+03   -0.78072E-01   -0.13123E-02  3036   0.130E-01    0.228E+00
RMM:  22    -0.646896495388E+03   -0.75457E-01   -0.13828E-02  3020   0.164E-01    0.264E+00
RMM:  23    -0.646918183380E+03   -0.21688E-01   -0.46074E-03  3041   0.103E-01    0.262E+00
RMM:  24    -0.646955686372E+03   -0.37503E-01   -0.20765E-02  2998   0.206E-01    0.216E+00
RMM:  25    -0.646967184187E+03   -0.11498E-01   -0.18249E-02  3049   0.174E-01    0.188E+00
RMM:  26    -0.646991956420E+03   -0.24772E-01   -0.97639E-03  3176   0.123E-01    0.175E+00
RMM:  27    -0.646998321842E+03   -0.63654E-02   -0.18503E-03  3037   0.536E-02    0.183E+00
RMM:  28    -0.647010015517E+03   -0.11694E-01   -0.14827E-03  2994   0.473E-02    0.182E+00
RMM:  29    -0.647012337745E+03   -0.23222E-02   -0.54789E-04  2473   0.225E-02    0.182E+00
RMM:  30    -0.647013101740E+03   -0.76400E-03   -0.42507E-04  2716   0.262E-02    0.177E+00
RMM:  31    -0.647012770487E+03    0.33125E-03   -0.66069E-05  1992   0.906E-03    0.179E+00
RMM:  32    -0.647015317797E+03   -0.25473E-02   -0.14080E-03  2951   0.523E-02    0.170E+00
RMM:  33    -0.647029868283E+03   -0.14550E-01   -0.13329E-03  2812   0.504E-02    0.167E+00
RMM:  34    -0.647038185319E+03   -0.83170E-02   -0.33867E-03  2996   0.785E-02    0.160E+00
RMM:  35    -0.647033467137E+03    0.47182E-02   -0.35260E-03  3025   0.817E-02    0.155E+00
RMM:  36    -0.647034345304E+03   -0.87817E-03   -0.31429E-03  3036   0.789E-02    0.148E+00
RMM:  37    -0.647033713613E+03    0.63169E-03   -0.62766E-04  2997   0.344E-02    0.147E+00
RMM:  38    -0.647038874849E+03   -0.51612E-02   -0.24343E-03  3019   0.719E-02    0.139E+00
RMM:  39    -0.647038405593E+03    0.46926E-03   -0.34818E-04  2696   0.229E-02    0.138E+00
RMM:  40    -0.647039121570E+03   -0.71598E-03   -0.27063E-04  2657   0.220E-02    0.134E+00
RMM:  41    -0.647038594936E+03    0.52663E-03   -0.56513E-05  2035   0.108E-02    0.133E+00
RMM:  42    -0.647038341526E+03    0.25341E-03   -0.36565E-05  1932   0.990E-03    0.134E+00
RMM:  43    -0.647037728505E+03    0.61302E-03   -0.43559E-05  1986   0.101E-02    0.134E+00
RMM:  44    -0.647037240060E+03    0.48845E-03   -0.25750E-05  1921   0.792E-03    0.132E+00
RMM:  45    -0.647037311803E+03   -0.71744E-04   -0.27955E-06  1632   0.355E-03    0.131E+00
RMM:  46    -0.647036302301E+03    0.10095E-02   -0.64894E-05  2017   0.127E-02    0.129E+00
RMM:  47    -0.647036775885E+03   -0.47358E-03   -0.11975E-05  1838   0.703E-03    0.126E+00
RMM:  48    -0.647036955475E+03   -0.17959E-03   -0.83981E-06  1784   0.458E-03    0.123E+00
RMM:  49    -0.647038109155E+03   -0.11537E-02   -0.57771E-05  1989   0.121E-02    0.119E+00
RMM:  50    -0.647039733668E+03   -0.16245E-02   -0.21569E-04  2375   0.221E-02
   2 F= -.65343707E+03 E0= -.65342028E+03  d E =-.820398E+00  mag=     1.6504
       N       E                     dE             d eps       ncg     rms          rms(c)
DAV:   1    -0.647043678207E+03   -0.55691E-02   -0.54892E-03  3440   0.200E-01    0.997E-01
RMM:   2    -0.647045220032E+03   -0.15418E-02   -0.52629E-03  3057   0.116E-01    0.667E-01
RMM:   3    -0.647046104833E+03   -0.88480E-03   -0.72750E-03  3066   0.126E-01    0.531E-01
RMM:   4    -0.647044941738E+03    0.11631E-02   -0.61934E-03  3052   0.117E-01    0.399E-01
RMM:   5    -0.647043458654E+03    0.14831E-02   -0.14271E-03  2908   0.625E-02    0.530E-02
RMM:   6    -0.647044025423E+03   -0.56677E-03   -0.83727E-05  2253   0.148E-02    0.184E-02
RMM:   7    -0.647044368727E+03   -0.34330E-03   -0.20720E-05  1857   0.599E-03    0.113E-02
RMM:   8    -0.647044697657E+03   -0.32893E-03   -0.15423E-05  1599   0.446E-03    0.571E-03
RMM:   9    -0.647044898147E+03   -0.20049E-03   -0.10258E-05  1430   0.334E-03    0.345E-03
RMM:  10    -0.647044987072E+03   -0.88925E-04   -0.45157E-06  1202   0.248E-03    0.177E-03
RMM:  11    -0.647045020344E+03   -0.33272E-04   -0.17989E-06  1056   0.202E-03    0.108E-03
RMM:  12    -0.647045031229E+03   -0.10885E-04   -0.17922E-06  1068   0.193E-03    0.591E-04
RMM:  13    -0.647045038257E+03   -0.70274E-05   -0.36961E-07   693   0.155E-03
   3 F= -.65344233E+03 E0= -.65342579E+03  d E =-.825662E+00  mag=     1.6873
       N       E                     dE             d eps       ncg     rms          rms(c)
DAV:   1    -0.647070775851E+03   -0.25745E-01   -0.19581E+00  3112   0.392E+00    0.391E-01
RMM:   2    -0.647074407277E+03   -0.36314E-02   -0.62560E-02  2968   0.636E-01    0.467E-01
RMM:   3    -0.647072519085E+03    0.18882E-02   -0.61008E-03  3536   0.161E-01    0.241E-01
RMM:   4    -0.647070660421E+03    0.18587E-02   -0.20392E-03  3099   0.863E-02    0.144E-01
RMM:   5    -0.647070608494E+03    0.51927E-04   -0.64049E-04  2955   0.508E-02    0.476E-02
RMM:   6    -0.647071625921E+03   -0.10174E-02   -0.86168E-05  2326   0.190E-02    0.213E-02
RMM:   7    -0.647072331142E+03   -0.70522E-03   -0.35398E-05  1973   0.974E-03    0.970E-03
RMM:   8    -0.647072872483E+03   -0.54134E-03   -0.21114E-05  1865   0.655E-03    0.462E-03
RMM:   9    -0.647073175179E+03   -0.30270E-03   -0.13401E-05  1796   0.442E-03    0.245E-03
RMM:  10    -0.647073265420E+03   -0.90241E-04   -0.46115E-06  1291   0.270E-03    0.178E-03
RMM:  11    -0.647073318019E+03   -0.52598E-04   -0.26199E-06  1147   0.226E-03    0.883E-04
RMM:  12    -0.647073332165E+03   -0.14146E-04   -0.12656E-06  1040   0.193E-03    0.377E-04
RMM:  13    -0.647073336917E+03   -0.47517E-05   -0.32320E-07   713   0.161E-03
   4 F= -.65346974E+03 E0= -.65345398E+03  d E =-.853067E+00  mag=     1.7711
       N       E                     dE             d eps       ncg     rms          rms(c)
DAV:   1    -0.647073961890E+03   -0.62972E-03   -0.40971E-02  3272   0.567E-01    0.563E-02
RMM:   2    -0.647073991885E+03   -0.29995E-04   -0.13036E-03  2971   0.918E-02    0.656E-02
RMM:   3    -0.647073948697E+03    0.43188E-04   -0.12159E-04  2475   0.232E-02    0.351E-02
RMM:   4    -0.647073889880E+03    0.58817E-04   -0.42137E-05  2096   0.137E-02    0.208E-02
RMM:   5    -0.647073885684E+03    0.41957E-05   -0.16467E-05  1807   0.963E-03
   5 F= -.65347015E+03 E0= -.65345455E+03  d E =-.853476E+00  mag=     1.7796
       N       E                     dE             d eps       ncg     rms          rms(c)
DAV:   1    -0.647078885734E+03   -0.49959E-02   -0.23708E+00  3200   0.459E+00    0.717E-01
RMM:   2    -0.647102743899E+03   -0.23858E-01   -0.13903E-01  3091   0.804E-01    0.146E+00
RMM:   3    -0.647081857663E+03    0.20886E-01   -0.30311E-02  3210   0.308E-01    0.327E-01
RMM:   4    -0.647080874828E+03    0.98283E-03   -0.26618E-03  3235   0.981E-02    0.184E-01
RMM:   5    -0.647080521139E+03    0.35369E-03   -0.12320E-03  2958   0.725E-02    0.641E-02
RMM:   6    -0.647080484181E+03    0.36958E-04   -0.12006E-04  2849   0.222E-02    0.261E-02
RMM:   7    -0.647080485955E+03   -0.17739E-05   -0.30068E-05  1937   0.994E-03
   6 F= -.65348081E+03 E0= -.65346537E+03  d E =-.106598E-01  mag=     1.7789
       N       E                     dE             d eps       ncg     rms          rms(c)
DAV:   1    -0.647083345633E+03   -0.28615E-02   -0.18172E-01  3264   0.127E+00    0.200E-01
RMM:   2    -0.647085207172E+03   -0.18615E-02   -0.10761E-02  3093   0.222E-01    0.406E-01
RMM:   3    -0.647083560484E+03    0.16467E-02   -0.23272E-03  3204   0.859E-02    0.873E-02
RMM:   4    -0.647083505821E+03    0.54663E-04   -0.21586E-04  2981   0.272E-02    0.530E-02
RMM:   5    -0.647083485475E+03    0.20346E-04   -0.10181E-04  2682   0.211E-02    0.174E-02
RMM:   6    -0.647083487166E+03   -0.16912E-05   -0.84632E-06  1779   0.699E-03
   7 F= -.65348275E+03 E0= -.65346726E+03  d E =-.126010E-01  mag=     1.7797
       N       E                     dE             d eps       ncg     rms          rms(c)
DAV:   1    -0.647085628895E+03   -0.21434E-02   -0.91673E-01  3320   0.302E+00    0.271E-01
RMM:   2    -0.647089002351E+03   -0.33735E-02   -0.42663E-02  3010   0.458E-01    0.157E-01
RMM:   3    -0.647088468383E+03    0.53397E-03   -0.29007E-03  3431   0.115E-01    0.164E-01
RMM:   4    -0.647088280872E+03    0.18751E-03   -0.61181E-04  3197   0.467E-02    0.100E-01
RMM:   5    -0.647088163031E+03    0.11784E-03   -0.24719E-04  2988   0.315E-02    0.431E-02
RMM:   6    -0.647088248351E+03   -0.85320E-04   -0.46218E-05  2016   0.159E-02    0.119E-02
RMM:   7    -0.647088325194E+03   -0.76843E-04   -0.78452E-06  1787   0.716E-03    0.633E-03
RMM:   8    -0.647088381980E+03   -0.56785E-04   -0.34304E-06  1772   0.411E-03    0.362E-03
RMM:   9    -0.647088423668E+03   -0.41688E-04   -0.23047E-06  1607   0.292E-03    0.147E-03
RMM:  10    -0.647088438649E+03   -0.14982E-04   -0.76775E-07  1082   0.196E-03    0.785E-04
RMM:  11    -0.647088445620E+03   -0.69704E-05   -0.47003E-07   828   0.165E-03
   8 F= -.65348731E+03 E0= -.65347219E+03  d E =-.456478E-02  mag=     1.7976
       N       E                     dE             d eps       ncg     rms          rms(c)
DAV:   1    -0.647088555724E+03   -0.11707E-03   -0.37136E-02  3384   0.609E-01    0.548E-02
RMM:   2    -0.647088680682E+03   -0.12496E-03   -0.17045E-03  3001   0.920E-02    0.319E-02
RMM:   3    -0.647088659281E+03    0.21401E-04   -0.10983E-04  2474   0.233E-02    0.338E-02
RMM:   4    -0.647088650554E+03    0.87272E-05   -0.25353E-05  1882   0.117E-02
   9 F= -.65348760E+03 E0= -.65347239E+03  d E =-.485478E-02  mag=     1.7954
       N       E                     dE             d eps       ncg     rms          rms(c)
DAV:   1    -0.647089886188E+03   -0.12269E-02   -0.40908E-01  3408   0.213E+00    0.234E-01
RMM:   2    -0.647092686160E+03   -0.28000E-02   -0.24540E-02  3043   0.319E-01    0.320E-01
RMM:   3    -0.647091696386E+03    0.98977E-03   -0.30221E-03  3231   0.103E-01    0.147E-01
RMM:   4    -0.647091526155E+03    0.17023E-03   -0.30439E-04  3114   0.342E-02    0.716E-02
RMM:   5    -0.647091455130E+03    0.71025E-04   -0.11099E-04  2801   0.220E-02    0.310E-02
RMM:   6    -0.647091462695E+03   -0.75646E-05   -0.27421E-05  1868   0.126E-02
  10 F= -.65348966E+03 E0= -.65347453E+03  d E =-.205322E-02  mag=     1.7976
       N       E                     dE             d eps       ncg     rms          rms(c)
DAV:   1    -0.647091401783E+03    0.53347E-04   -0.55609E-03  3440   0.249E-01    0.272E-02
RMM:   2    -0.647091453118E+03   -0.51335E-04   -0.34437E-04  2971   0.373E-02    0.411E-02
RMM:   3    -0.647091439756E+03    0.13362E-04   -0.41159E-05  1883   0.124E-02    0.166E-02
RMM:   4    -0.647091444707E+03   -0.49512E-05   -0.48214E-06  1729   0.592E-03
  11 F= -.65348973E+03 E0= -.65347459E+03  d E =-.212621E-02  mag=     1.7974
       N       E                     dE             d eps       ncg     rms          rms(c)
DAV:   1    -0.647091696903E+03   -0.25715E-03   -0.20394E-01  3336   0.147E+00    0.130E-01
RMM:   2    -0.647092576090E+03   -0.87919E-03   -0.10281E-02  2990   0.207E-01    0.682E-02
RMM:   3    -0.647092449757E+03    0.12633E-03   -0.66458E-04  3481   0.519E-02    0.630E-02
RMM:   4    -0.647092436284E+03    0.13473E-04   -0.89116E-05  2090   0.180E-02    0.485E-02
RMM:   5    -0.647092421216E+03    0.15068E-04   -0.45659E-05  1978   0.145E-02    0.273E-02
RMM:   6    -0.647092439742E+03   -0.18526E-04   -0.22738E-05  1829   0.116E-02    0.608E-03
RMM:   7    -0.647092450120E+03   -0.10378E-04   -0.34864E-06  1737   0.562E-03    0.361E-03
RMM:   8    -0.647092459604E+03   -0.94839E-05   -0.10261E-06  1575   0.287E-03
  12 F= -.65349099E+03 E0= -.65347582E+03  d E =-.126294E-02  mag=     1.7918
       N       E                     dE             d eps       ncg     rms          rms(c)
DAV:   1    -0.647092413113E+03    0.37007E-04   -0.12286E-02  3352   0.360E-01    0.316E-02
RMM:   2    -0.647092463373E+03   -0.50260E-04   -0.62312E-04  2990   0.510E-02    0.168E-02
RMM:   3    -0.647092455936E+03    0.74377E-05   -0.36680E-05  1948   0.128E-02
  13 F= -.65349105E+03 E0= -.65347587E+03  d E =-.131773E-02  mag=     1.7909
       N       E                     dE             d eps       ncg     rms          rms(c)
DAV:   1    -0.647092416834E+03    0.46540E-04   -0.17297E-01  3232   0.129E+00    0.113E-01
RMM:   2    -0.647092985294E+03   -0.56846E-03   -0.69866E-03  3011   0.177E-01    0.702E-02
RMM:   3    -0.647092890813E+03    0.94481E-04   -0.47020E-04  3427   0.460E-02    0.730E-02
RMM:   4    -0.647092858990E+03    0.31823E-04   -0.11492E-04  2130   0.199E-02    0.419E-02
RMM:   5    -0.647092849751E+03    0.92385E-05   -0.38711E-05  2009   0.136E-02
  14 F= -.65349183E+03 E0= -.65347665E+03  d E =-.779852E-03  mag=     1.7880
       N       E                     dE             d eps       ncg     rms          rms(c)
DAV:   1    -0.647092780232E+03    0.78758E-04   -0.54484E-03  3328   0.231E-01    0.229E-02
RMM:   2    -0.647092807714E+03   -0.27483E-04   -0.24614E-04  2973   0.327E-02    0.147E-02
RMM:   3    -0.647092809512E+03   -0.17977E-05   -0.20974E-05  1871   0.965E-03
  15 F= -.65349186E+03 E0= -.65347668E+03  d E =-.807540E-03  mag=     1.7873
       N       E                     dE             d eps       ncg     rms          rms(c)
DAV:   1    -0.647092846721E+03   -0.39007E-04   -0.19107E-01  3216   0.139E+00    0.122E-01
RMM:   2    -0.647093772236E+03   -0.92552E-03   -0.97773E-03  3011   0.191E-01    0.127E-01
RMM:   3    -0.647093585129E+03    0.18711E-03   -0.81067E-04  3435   0.543E-02    0.859E-02
RMM:   4    -0.647093526934E+03    0.58195E-04   -0.11409E-04  2271   0.204E-02    0.393E-02
RMM:   5    -0.647093517457E+03    0.94769E-05   -0.40364E-05  1991   0.134E-02
  16 F= -.65349252E+03 E0= -.65347737E+03  d E =-.660650E-03  mag=     1.7869
       N       E                     dE             d eps       ncg     rms          rms(c)
DAV:   1    -0.647093485540E+03    0.41394E-04   -0.24402E-02  3312   0.497E-01    0.447E-02
RMM:   2    -0.647093608068E+03   -0.12253E-03   -0.12662E-03  3011   0.687E-02    0.445E-02
RMM:   3    -0.647093588176E+03    0.19892E-04   -0.10183E-04  2196   0.197E-02    0.316E-02
RMM:   4    -0.647093582784E+03    0.53918E-05   -0.16954E-05  1853   0.980E-03
  17 F= -.65349256E+03 E0= -.65347743E+03  d E =-.707217E-03  mag=     1.7867
       N       E                     dE             d eps       ncg     rms          rms(c)
DAV:   1    -0.647093755354E+03   -0.16718E-03   -0.14357E-01  3288   0.125E+00    0.117E-01
RMM:   2    -0.647094723430E+03   -0.96808E-03   -0.95061E-03  3042   0.175E-01    0.148E-01
RMM:   3    -0.647094463341E+03    0.26009E-03   -0.86056E-04  3293   0.532E-02    0.760E-02
RMM:   4    -0.647094420208E+03    0.43133E-04   -0.79507E-05  2111   0.177E-02    0.340E-02
RMM:   5    -0.647094412037E+03    0.81708E-05   -0.25000E-05  1893   0.108E-02
  18 F= -.65349317E+03 E0= -.65347805E+03  d E =-.610078E-03  mag=     1.7847
