 vasp.5.4.4.18Apr17-6-g9f103f2a35 (build Sep 02 2021 13:24:58) complex          
  
 executed on             LinuxIFC date 2023.01.15  13:02:12
 running on   48 total cores
 distrk:  each k-point on   48 cores,    1 groups
 distr:  one band on NCORES_PER_BAND=  12 cores,    4 groups


--------------------------------------------------------------------------------------------------------


 INCAR:
 POTCAR:    PAW_PBE C 08Apr2002                   
 POTCAR:    PAW_PBE N 08Apr2002                   
 POTCAR:    PAW_PBE C 08Apr2002                   
 POTCAR:    PAW_PBE Cr_pv 02Aug2007               
 POTCAR:    PAW_PBE C 08Apr2002                   
   SHA256 =  253f7b50bb8d59471dbedb8285d89021f4a42ed1a2c5d38a03a736e69125dd95 C/
   COPYR  = (c) Copyright 08Apr2002 Georg Kresse                                
   COPYR  = This file is part of the software VASP. Any use, copying, and all ot
   COPYR  = If you do not have a valid VASP license, you may not use, copy or di
   VRHFIN =C: s2p2                                                              
   LEXCH  = PE                                                                  
   EATOM  =   147.1560 eV,   10.8157 Ry                                         
                                                                                
   TITEL  = PAW_PBE C 08Apr2002                                                 
   LULTRA =        F    use ultrasoft PP ?                                      
   IUNSCR =        1    unscreen: 0-lin 1-nonlin 2-no                           
   RPACOR =    1.200    partial core radius                                     
   POMASS =   12.011; ZVAL   =    4.000    mass and valenz                      
   RCORE  =    1.500    outmost cutoff radius                                   
   RWIGS  =    1.630; RWIGS  =    0.863    wigner-seitz radius (au A)           
   ENMAX  =  400.000; ENMIN  =  300.000 eV                                      
   ICORE  =        2    local potential                                         
   LCOR   =        T    correct aug charges                                     
   LPAW   =        T    paw PP                                                  
   EAUG   =  644.873                                                            
   DEXC   =    0.000                                                            
   RMAX   =    1.529    core radius for proj-oper                               
   RAUG   =    1.300    factor for augmentation sphere                          
   RDEP   =    1.501    radius for radial grids                                 
   RDEPT  =    1.300    core radius for aug-charge                              
                                                                                
   Atomic configuration                                                         
    4 entries                                                                   
     n  l   j            E        occ.                                          
     1  0  0.50      -273.3789   2.0000                                         
     2  0  0.50       -13.7508   2.0000                                         
     2  1  0.50        -5.2854   2.0000                                         
     3  2  1.50        -5.4423   0.0000                                         
   Description                                                                  
     l       E           TYP  RCUT    TYP  RCUT                                 
     0    -13.7508458     23  1.200                                             
     0     -8.2022199     23  1.200                                             
     1     -5.2854383     23  1.500                                             
     1     34.0145650     23  1.500                                             
     2     -5.4423304      7  1.500                                             
  local pseudopotential read in
  partial core-charges read in
  partial kinetic energy density read in
  atomic valenz-charges read in
  non local Contribution for L=           0  read in
    real space projection operators read in
  non local Contribution for L=           0  read in
    real space projection operators read in
  non local Contribution for L=           1  read in
    real space projection operators read in
  non local Contribution for L=           1  read in
    real space projection operators read in
    PAW grid and wavefunctions read in
 
   number of l-projection  operators is LMAX  =           4
   number of lm-projection operators is LMMAX =           8
 
 POTCAR:    PAW_PBE N 08Apr2002                   
   SHA256 =  e053789ff3a61a86a1b75d8a110fcc91f86041011e7b0817c7c99e4e8a6349d7 N/
   COPYR  = (c) Copyright 08Apr2002 Georg Kresse                                
   COPYR  = This file is part of the software VASP. Any use, copying, and all ot
   COPYR  = If you do not have a valid VASP license, you may not use, copy or di
   VRHFIN =N: s2p3                                                              
   LEXCH  = PE                                                                  
   EATOM  =   264.5486 eV,   19.4438 Ry                                         
                                                                                
   TITEL  = PAW_PBE N 08Apr2002                                                 
   LULTRA =        F    use ultrasoft PP ?                                      
   IUNSCR =        1    unscreen: 0-lin 1-nonlin 2-no                           
   RPACOR =    1.200    partial core radius                                     
   POMASS =   14.001; ZVAL   =    5.000    mass and valenz                      
   RCORE  =    1.500    outmost cutoff radius                                   
   RWIGS  =    1.400; RWIGS  =    0.741    wigner-seitz radius (au A)           
   ENMAX  =  400.000; ENMIN  =  300.000 eV                                      
   ICORE  =        2    local potential                                         
   LCOR   =        T    correct aug charges                                     
   LPAW   =        T    paw PP                                                  
   EAUG   =  627.112                                                            
   DEXC   =    0.000                                                            
   RMAX   =    1.529    core radius for proj-oper                               
   RAUG   =    1.300    factor for augmentation sphere                          
   RDEP   =    1.514    radius for radial grids                                 
   RDEPT  =    1.338    core radius for aug-charge                              
                                                                                
   Atomic configuration                                                         
    4 entries                                                                   
     n  l   j            E        occ.                                          
     1  0  0.50      -384.7179   2.0000                                         
     2  0  0.50       -18.5828   2.0000                                         
     2  1  0.50        -7.0898   3.0000                                         
     3  2  1.50        -6.8029   0.0000                                         
   Description                                                                  
     l       E           TYP  RCUT    TYP  RCUT                                 
     0    -18.5828119     23  1.200                                             
     0    -13.5018863     23  1.200                                             
     1     -7.0897853     23  1.500                                             
     1      9.5240782     23  1.500                                             
     2     -6.8029130      7  1.500                                             
  local pseudopotential read in
  partial core-charges read in
  partial kinetic energy density read in
  atomic valenz-charges read in
  non local Contribution for L=           0  read in
    real space projection operators read in
  non local Contribution for L=           0  read in
    real space projection operators read in
  non local Contribution for L=           1  read in
    real space projection operators read in
  non local Contribution for L=           1  read in
    real space projection operators read in
    PAW grid and wavefunctions read in
 
   number of l-projection  operators is LMAX  =           4
   number of lm-projection operators is LMMAX =           8
 
 POTCAR:    PAW_PBE C 08Apr2002                   
   SHA256 =  253f7b50bb8d59471dbedb8285d89021f4a42ed1a2c5d38a03a736e69125dd95 C/
   COPYR  = (c) Copyright 08Apr2002 Georg Kresse                                
   COPYR  = This file is part of the software VASP. Any use, copying, and all ot
   COPYR  = If you do not have a valid VASP license, you may not use, copy or di
   VRHFIN =C: s2p2                                                              
   LEXCH  = PE                                                                  
   EATOM  =   147.1560 eV,   10.8157 Ry                                         
                                                                                
   TITEL  = PAW_PBE C 08Apr2002                                                 
   LULTRA =        F    use ultrasoft PP ?                                      
   IUNSCR =        1    unscreen: 0-lin 1-nonlin 2-no                           
   RPACOR =    1.200    partial core radius                                     
   POMASS =   12.011; ZVAL   =    4.000    mass and valenz                      
   RCORE  =    1.500    outmost cutoff radius                                   
   RWIGS  =    1.630; RWIGS  =    0.863    wigner-seitz radius (au A)           
   ENMAX  =  400.000; ENMIN  =  300.000 eV                                      
   ICORE  =        2    local potential                                         
   LCOR   =        T    correct aug charges                                     
   LPAW   =        T    paw PP                                                  
   EAUG   =  644.873                                                            
   DEXC   =    0.000                                                            
   RMAX   =    1.529    core radius for proj-oper                               
   RAUG   =    1.300    factor for augmentation sphere                          
   RDEP   =    1.501    radius for radial grids                                 
   RDEPT  =    1.300    core radius for aug-charge                              
                                                                                
   Atomic configuration                                                         
    4 entries                                                                   
     n  l   j            E        occ.                                          
     1  0  0.50      -273.3789   2.0000                                         
     2  0  0.50       -13.7508   2.0000                                         
     2  1  0.50        -5.2854   2.0000                                         
     3  2  1.50        -5.4423   0.0000                                         
   Description                                                                  
     l       E           TYP  RCUT    TYP  RCUT                                 
     0    -13.7508458     23  1.200                                             
     0     -8.2022199     23  1.200                                             
     1     -5.2854383     23  1.500                                             
     1     34.0145650     23  1.500                                             
     2     -5.4423304      7  1.500                                             
  local pseudopotential read in
  partial core-charges read in
  partial kinetic energy density read in
  atomic valenz-charges read in
  non local Contribution for L=           0  read in
    real space projection operators read in
  non local Contribution for L=           0  read in
    real space projection operators read in
  non local Contribution for L=           1  read in
    real space projection operators read in
  non local Contribution for L=           1  read in
    real space projection operators read in
    PAW grid and wavefunctions read in
 
   number of l-projection  operators is LMAX  =           4
   number of lm-projection operators is LMMAX =           8
 
 POTCAR:    PAW_PBE Cr_pv 02Aug2007               
   SHA256 =  c9a7df34d3cdbacf1090e328ef39c0b420964e11c23f63548d1ac9dd218cdba0 Cr
   COPYR  = (c) Copyright 02Aug2007 Georg Kresse                                
   COPYR  = This file is part of the software VASP. Any use, copying, and all ot
   COPYR  = If you do not have a valid VASP license, you may not use, copy or di
   VRHFIN =Cr : p6d5s1                                                          
   LEXCH  = PE                                                                  
   EATOM  =  1647.9177 eV,  121.1185 Ry                                         
                                                                                
   TITEL  = PAW_PBE Cr_pv 02Aug2007                                             
   LULTRA =        F    use ultrasoft PP ?                                      
   IUNSCR =        1    unscreen: 0-lin 1-nonlin 2-no                           
   RPACOR =    2.080    partial core radius                                     
   POMASS =   51.996; ZVAL   =   12.000    mass and valenz                      
   RCORE  =    2.300    outmost cutoff radius                                   
   RWIGS  =    2.500; RWIGS  =    1.323    wigner-seitz radius (au A)           
   ENMAX  =  265.681; ENMIN  =  199.261 eV                                      
   ICORE  =        3    local potential                                         
   LCOR   =        T    correct aug charges                                     
   LPAW   =        T    paw PP                                                  
   EAUG   =  519.424                                                            
   DEXC   =    0.000                                                            
   RMAX   =    2.356    core radius for proj-oper                               
   RAUG   =    1.300    factor for augmentation sphere                          
   RDEP   =    2.447    radius for radial grids                                 
   RDEPT  =    1.882    core radius for aug-charge                              
                                                                                
   Atomic configuration                                                         
    8 entries                                                                   
     n  l   j            E        occ.                                          
     1  0  0.50     -5880.4963   2.0000                                         
     2  0  0.50      -667.0865   2.0000                                         
     2  1  1.50      -560.6250   6.0000                                         
     3  0  0.50       -73.9860   2.0000                                         
     3  1  1.50       -45.4378   6.0000                                         
     3  2  2.50        -2.9137   5.0000                                         
     4  0  0.50        -4.0071   1.0000                                         
     4  3  2.50        -1.3606   0.0000                                         
   Description                                                                  
     l       E           TYP  RCUT    TYP  RCUT                                 
     1    -45.4377911     23  2.000                                             
     1      1.3605826     23  2.000                                             
     2     -2.9136672     23  2.300                                             
     2     -4.2742498     23  2.300                                             
     0     -4.0071320     23  2.300                                             
     0      9.4498803     23  2.300                                             
     3      2.7211652     23  2.300                                             
  local pseudopotential read in
  partial core-charges read in
  partial kinetic energy density read in
  atomic valenz-charges read in
  non local Contribution for L=           1  read in
    real space projection operators read in
  non local Contribution for L=           1  read in
    real space projection operators read in
  non local Contribution for L=           2  read in
    real space projection operators read in
  non local Contribution for L=           2  read in
    real space projection operators read in
  non local Contribution for L=           0  read in
    real space projection operators read in
  non local Contribution for L=           0  read in
    real space projection operators read in
    PAW grid and wavefunctions read in
 
   number of l-projection  operators is LMAX  =           6
   number of lm-projection operators is LMMAX =          18
 
 Optimization of the real space projectors (new method)

 maximal supplied QI-value         = 25.13
 optimisation between [QCUT,QGAM] = [ 11.81, 23.88] = [ 39.08,159.64] Ry 
 Optimized for a Real-space Cutoff    1.18 Angstroem

   l    n(q)    QCUT    max X(q) W(low)/X(q) W(high)/X(q)  e(spline) 
   0      8    11.813   115.676    0.10E-03    0.16E-03    0.35E-06
   0      8    11.813    87.132    0.10E-03    0.16E-03    0.35E-06
   1      8    11.813     4.429    0.16E-03    0.13E-04    0.22E-06
   1      8    11.813     2.733    0.13E-03    0.10E-04    0.18E-06
 Optimization of the real space projectors (new method)

 maximal supplied QI-value         = 25.13
 optimisation between [QCUT,QGAM] = [ 11.81, 23.88] = [ 39.08,159.64] Ry 
 Optimized for a Real-space Cutoff    1.41 Angstroem

   l    n(q)    QCUT    max X(q) W(low)/X(q) W(high)/X(q)  e(spline) 
   0     10    11.813    79.467    0.48E-04    0.30E-04    0.67E-06
   0     10    11.813    66.151    0.47E-04    0.30E-04    0.67E-06
   1     10    11.813    20.169    0.11E-03    0.17E-03    0.11E-05
   1     10    11.813    14.454    0.11E-03    0.17E-03    0.11E-05
 Optimization of the real space projectors (new method)

 maximal supplied QI-value         = 25.13
 optimisation between [QCUT,QGAM] = [ 11.81, 23.88] = [ 39.08,159.64] Ry 
 Optimized for a Real-space Cutoff    1.18 Angstroem

   l    n(q)    QCUT    max X(q) W(low)/X(q) W(high)/X(q)  e(spline) 
   0      8    11.813   115.676    0.10E-03    0.16E-03    0.35E-06
   0      8    11.813    87.132    0.10E-03    0.16E-03    0.35E-06
   1      8    11.813     4.429    0.16E-03    0.13E-04    0.22E-06
   1      8    11.813     2.733    0.13E-03    0.10E-04    0.18E-06
 Optimization of the real space projectors (new method)

 maximal supplied QI-value         = 16.25
 optimisation between [QCUT,QGAM] = [ 11.86, 23.89] = [ 39.41,159.82] Ry 
 Optimized for a Real-space Cutoff    1.33 Angstroem

   l    n(q)    QCUT    max X(q) W(low)/X(q) W(high)/X(q)  e(spline) 
   1      9    11.864     3.262    0.48E-04    0.16E-03    0.14E-06
   1      9    11.864     5.741    0.74E-04    0.40E-03    0.35E-06
   2      9    11.864    60.438    0.17E-03    0.21E-03    0.26E-06
   2      9    11.864    55.380    0.17E-03    0.21E-03    0.27E-06
   0      9    11.864    80.273    0.40E-04    0.47E-04    0.12E-06
   0      9    11.864    36.654    0.35E-04    0.41E-04    0.11E-06
  PAW_PBE C 08Apr2002                   :
 energy of atom  1       EATOM= -147.1560
 kinetic energy error for atom=    0.0066 (will be added to EATOM!!)
  PAW_PBE N 08Apr2002                   :
 energy of atom  2       EATOM= -264.5486
 kinetic energy error for atom=    0.0116 (will be added to EATOM!!)
  PAW_PBE C 08Apr2002                   :
 energy of atom  3       EATOM= -147.1560
 kinetic energy error for atom=    0.0066 (will be added to EATOM!!)
  PAW_PBE Cr_pv 02Aug2007               :
 energy of atom  4       EATOM=-1647.9177
 kinetic energy error for atom=    0.0054 (will be added to EATOM!!)
 
 
 POSCAR: POSCAR-clean                            
  positions in cartesian coordinates
  No initial velocities read in
 exchange correlation table for  LEXCH =        8
   RHO(1)=    0.500       N(1)  =     2000
   RHO(2)=  100.500       N(2)  =     4000
 


--------------------------------------------------------------------------------------------------------


 ion  position               nearest neighbor table
   1  0.000  1.000  0.498-   2 1.42  60 1.42  70 1.43
   2  0.056  0.111  0.498-   1 1.42  13 1.42  15 1.43
   3  0.168  0.002  0.498-   4 1.42  62 1.43  60 1.43
   4  0.224  0.113  0.498-   3 1.42  15 1.42  17 1.44
   5  0.334  0.002  0.498-   6 1.42  62 1.43  64 1.43
   6  0.390  0.113  0.498-   5 1.42  19 1.42  17 1.44
   7  0.500  1.000  0.498-   8 1.42  64 1.42  66 1.43
   8  0.556  0.111  0.498-   7 1.42  21 1.42  19 1.43
   9  0.666  0.998  0.498-  10 1.42  66 1.42  68 1.44
  10  0.722  0.109  0.498-   9 1.42  23 1.43  21 1.43
  11  0.832  0.998  0.498-  12 1.42  70 1.42  68 1.44
  12  0.888  0.109  0.498-  11 1.42  23 1.43  13 1.43
  13  0.999  0.165  0.498-  14 1.42   2 1.42  12 1.43
  14  0.054  0.277  0.499-  13 1.42  25 1.42  27 1.43
  15  0.167  0.168  0.498-  16 1.42   4 1.42   2 1.43
  16  0.223  0.280  0.500-  15 1.42  27 1.43  29 1.44
  17  0.335  0.170  0.499-  18 1.42   4 1.44   6 1.44
  18  0.391  0.281  0.503-  17 1.42  31 1.44  29 1.44
  19  0.501  0.168  0.498-  20 1.42   6 1.42   8 1.43
  20  0.557  0.280  0.500-  19 1.42  33 1.43  31 1.44
  21  0.667  0.165  0.498-  22 1.42   8 1.42  10 1.43
  22  0.723  0.277  0.498-  21 1.42  35 1.42  33 1.43
  23  0.833  0.165  0.498-  24 1.42  10 1.43  12 1.43
  24  0.888  0.276  0.498-  23 1.42  25 1.42  35 1.43
  25  0.999  0.332  0.498-  14 1.42  26 1.42  24 1.42
  26  0.054  0.444  0.499-  39 1.42  37 1.42  25 1.42
  27  0.165  0.333  0.500-  28 1.42  16 1.43  14 1.43
  28  0.219  0.444  0.502-  41 1.41  27 1.42  39 1.42
  29  0.335  0.338  0.503-  30 1.41  18 1.44  16 1.44
  30  0.387  0.448  0.510-  41 1.41  29 1.41  71 2.00
  31  0.503  0.338  0.504-  32 1.41  18 1.44  20 1.44
  32  0.562  0.448  0.510-  43 1.41  31 1.41  71 2.00
  33  0.668  0.333  0.500-  34 1.42  20 1.43  22 1.43
  34  0.725  0.444  0.501-  43 1.41  33 1.42  45 1.42
  35  0.833  0.332  0.498-  22 1.42  36 1.42  24 1.43
  36  0.890  0.444  0.498-  45 1.42  37 1.42  35 1.42
  37  0.000  0.500  0.498-  36 1.42  26 1.42  38 1.42
  38  0.056  0.611  0.498-  47 1.42  49 1.42  37 1.42
  39  0.165  0.500  0.500-  26 1.42  28 1.42  40 1.42
  40  0.220  0.611  0.500-  49 1.42  51 1.42  39 1.42
  41  0.329  0.499  0.505-  30 1.41  28 1.41  42 1.44
  42  0.385  0.612  0.505-  53 1.41  51 1.41  41 1.44
  43  0.671  0.499  0.505-  32 1.41  34 1.41  44 1.44
  44  0.727  0.612  0.505-  55 1.41  57 1.41  43 1.44
  45  0.836  0.500  0.499-  36 1.42  34 1.42  46 1.42
  46  0.891  0.611  0.499-  47 1.42  57 1.42  45 1.42
  47  0.001  0.667  0.498-  46 1.42  38 1.42  48 1.42
  48  0.057  0.779  0.498-  59 1.42  47 1.42  61 1.43
  49  0.166  0.667  0.499-  40 1.42  38 1.42  50 1.42
  50  0.222  0.779  0.498-  63 1.42  49 1.42  61 1.42
  51  0.331  0.667  0.502-  42 1.41  52 1.42  40 1.42
  52  0.388  0.778  0.500-  51 1.42  65 1.43  63 1.43
  53  0.494  0.663  0.510-  42 1.41  54 1.41  71 2.00
  54  0.553  0.773  0.503-  53 1.41  67 1.44  65 1.44
  55  0.669  0.663  0.510-  44 1.41  56 1.41  71 2.00
  56  0.721  0.773  0.504-  55 1.41  67 1.44  69 1.44
  57  0.837  0.667  0.501-  44 1.41  58 1.42  46 1.42
  58  0.891  0.778  0.500-  57 1.42  69 1.42  59 1.43
  59  0.002  0.835  0.498-  60 1.42  48 1.42  58 1.43
  60  0.057  0.946  0.498-  59 1.42   1 1.42   3 1.43
  61  0.168  0.835  0.498-  62 1.42  50 1.42  48 1.43
  62  0.223  0.946  0.498-  61 1.42   3 1.43   5 1.43
  63  0.333  0.835  0.499-  64 1.42  50 1.42  52 1.43
  64  0.389  0.946  0.498-  63 1.42   7 1.42   5 1.43
  65  0.499  0.832  0.500-  66 1.42  52 1.43  54 1.44
  66  0.555  0.943  0.498-  65 1.42   9 1.42   7 1.43
  67  0.665  0.830  0.503-  68 1.42  56 1.44  54 1.44
  68  0.721  0.941  0.499-  67 1.42   9 1.44  11 1.44
  69  0.833  0.832  0.500-  70 1.42  58 1.42  56 1.44
  70  0.889  0.943  0.498-  69 1.42  11 1.42   1 1.43
  71  0.528  0.556  0.554-  55 2.00  32 2.00  53 2.00  30 2.00
 

IMPORTANT INFORMATION: All symmetrisations will be switched off!
NOSYMM: (Re-)initialisation of all symmetry stuff for point group C_1.

 
 
 KPOINTS: K-Points                                

Automatic generation of k-mesh.
Space group operators:
 irot       det(A)        alpha          n_x          n_y          n_z        tau_x        tau_y        tau_z
    1     1.000000     0.000000     1.000000     0.000000     0.000000     0.000000     0.000000     0.000000
 
 Subroutine IBZKPT returns following result:
 ===========================================
 
 Found      4 irreducible k-points:
 
 Following reciprocal coordinates:
            Coordinates               Weight
  0.000000  0.000000  0.000000      1.000000
  0.500000  0.000000  0.000000      1.000000
 -0.000000  0.500000  0.000000      1.000000
  0.500000  0.500000  0.000000      1.000000
 
 Following cartesian coordinates:
            Coordinates               Weight
  0.000000  0.000000  0.000000      1.000000
  0.033606  0.019589  0.000000      1.000000
 -0.000000  0.039178  0.000000      1.000000
  0.033606  0.058767  0.000000      1.000000
 


--------------------------------------------------------------------------------------------------------




 Dimension of arrays:
   k-points           NKPTS =      4   k-points in BZ     NKDIM =      4   number of bands    NBANDS=    184
   number of dos      NEDOS =    301   number of ions     NIONS =     71
   non local maximal  LDIM  =      6   non local SUM 2l+1 LMDIM =     18
   total plane-waves  NPLWV = ******
   max r-space proj   IRMAX =   7110   max aug-charges    IRDMAX=  21308
   dimension x,y,z NGX =   120 NGY =  120 NGZ =  120
   dimension x,y,z NGXF=   240 NGYF=  240 NGZF=  240
   support grid    NGXF=   240 NGYF=  240 NGZF=  240
   ions per type =              64   1   5   1
   NGX,Y,Z   is equivalent  to a cutoff of  13.41, 13.50, 13.30 a.u.
   NGXF,Y,Z  is equivalent  to a cutoff of  26.82, 27.01, 26.60 a.u.

 SYSTEM =  unknown system                          
 POSCAR =  POSCAR-clean                            

 Startparameter for this run:
   NWRITE =      2    write-flag & timer
   PREC   = accura    normal or accurate (medium, high low for compatibility)
   ISTART =      0    job   : 0-new  1-cont  2-samecut
   ICHARG =      2    charge: 1-file 2-atom 10-const
   ISPIN  =      2    spin polarized calculation?
   LNONCOLLINEAR =      F non collinear calculations
   LSORBIT =      F    spin-orbit coupling
   INIWAV =      1    electr: 0-lowe 1-rand  2-diag
   LASPH  =      F    aspherical Exc in radial PAW
   METAGGA=      F    non-selfconsistent MetaGGA calc.

 Electronic Relaxation 1
   ENCUT  =  550.0 eV  40.42 Ry    6.36 a.u.  28.45 28.25 28.68*2*pi/ulx,y,z
   ENINI  =  550.0     initial cutoff
   ENAUG  =  644.9 eV  augmentation charge cutoff
   NELM   =     50;   NELMIN=  2; NELMDL= -5     # of ELM steps 
   EDIFF  = 0.1E-04   stopping-criterion for ELM
   LREAL  =      T    real-space projection
   NLSPLINE    = F    spline interpolate recip. space projectors
   LCOMPAT=      F    compatible to vasp.4.4
   GGA_COMPAT  = T    GGA compatible to vasp.4.4-vasp.4.6
   LMAXPAW     = -100 max onsite density
   LMAXMIX     =    2 max onsite mixed and CHGCAR
   VOSKOWN=      0    Vosko Wilk Nusair interpolation
   ROPT   =   -0.00025  -0.00025  -0.00025  -0.00025
 Ionic relaxation
   EDIFFG = -.5E-01   stopping-criterion for IOM
   NSW    =    400    number of steps for IOM
   NBLOCK =      1;   KBLOCK =    400    inner block; outer block 
   IBRION =      2    ionic relax: 0-MD 1-quasi-New 2-CG
   NFREE  =      1    steps in history (QN), initial steepest desc. (CG)
   ISIF   =      3    stress and relaxation
   IWAVPR =     11    prediction:  0-non 1-charg 2-wave 3-comb
   ISYM   =      0    0-nonsym 1-usesym 2-fastsym
   LCORR  =      T    Harris-Foulkes like correction to forces

   POTIM  = 0.3000    time-step for ionic-motion
   TEIN   =    0.0    initial temperature
   TEBEG  =    0.0;   TEEND  =   0.0 temperature during run
   SMASS  =  -3.00    Nose mass-parameter (am)
   estimated Nose-frequenzy (Omega)   =  0.10E-29 period in steps =****** mass=  -0.506E-26a.u.
   SCALEE = 1.0000    scale energy and forces
   NPACO  =    256;   APACO  = 16.0  distance and # of slots for P.C.
   PSTRESS=    0.0 pullay stress

  Mass of Ions in am
   POMASS =  12.01 14.00 12.01 52.00
  Ionic Valenz
   ZVAL   =   4.00  5.00  4.00 12.00
  Atomic Wigner-Seitz radii
   RWIGS  =  -1.00 -1.00 -1.00 -1.00
  virtual crystal weights 
   VCA    =   1.00  1.00  1.00  1.00
   NELECT =     293.0000    total number of electrons
   NUPDOWN=      -1.0000    fix difference up-down

 DOS related values:
   EMIN   =  10.00;   EMAX   =-10.00  energy-range for DOS
   EFERMI =   0.00
   ISMEAR =     0;   SIGMA  =   0.10  broadening in eV -4-tet -1-fermi 0-gaus

 Electronic relaxation 2 (details)
   IALGO  =     68    algorithm
   LDIAG  =      T    sub-space diagonalisation (order eigenvalues)
   LSUBROT=      F    optimize rotation matrix (better conditioning)
   TURBO    =      0    0=normal 1=particle mesh
   IRESTART =      0    0=no restart 2=restart with 2 vectors
   NREBOOT  =      0    no. of reboots
   NMIN     =      0    reboot dimension
   EREF     =   0.00    reference energy to select bands
   IMIX   =      4    mixing-type and parameters
     AMIX     =   0.40;   BMIX     =  1.00
     AMIX_MAG =   1.60;   BMIX_MAG =  1.00
     AMIN     =   0.10
     WC   =   100.;   INIMIX=   1;  MIXPRE=   1;  MAXMIX= -45

 Intra band minimization:
   WEIMIN = 0.0010     energy-eigenvalue tresh-hold
   EBREAK =  0.14E-07  absolut break condition
   DEPER  =   0.30     relativ break condition  

   TIME   =   0.40     timestep for ELM

  volume/ion in A,a.u.               =      40.12       270.71
  Fermi-wavevector in a.u.,A,eV,Ry     =   0.767079  1.449569  8.005805  0.588410
  Thomas-Fermi vector in A             =   1.867557
 
 Write flags
   LWAVE        =      F    write WAVECAR
   LDOWNSAMPLE  =      F    k-point downsampling of WAVECAR
   LCHARG       =      F    write CHGCAR
   LVTOT        =      F    write LOCPOT, total local potential
   LVHAR        =      F    write LOCPOT, Hartree potential only
   LELF         =      F    write electronic localiz. function (ELF)
   LORBIT       =      0    0 simple, 1 ext, 2 COOP (PROOUT), +10 PAW based schemes


 Dipole corrections
   LMONO  =      F    monopole corrections only (constant potential shift)
   LDIPOL =      F    correct potential (dipole corrections)
   IDIPOL =      0    1-x, 2-y, 3-z, 4-all directions 
   EPSILON=  1.0000000 bulk dielectric constant

 Exchange correlation treatment:
   GGA     =    --    GGA type
   LEXCH   =     8    internal setting for exchange type
   VOSKOWN=      0    Vosko Wilk Nusair interpolation
   LHFCALC =     F    Hartree Fock is set to
   LHFONE  =     F    Hartree Fock one center treatment
   AEXX    =    0.0000 exact exchange contribution

 Linear response parameters
   LEPSILON=     F    determine dielectric tensor
   LRPA    =     F    only Hartree local field effects (RPA)
   LNABLA  =     F    use nabla operator in PAW spheres
   LVEL    =     F    velocity operator in full k-point grid
   LINTERFAST=   F  fast interpolation
   KINTER  =     0    interpolate to denser k-point grid
   CSHIFT  =0.1000    complex shift for real part using Kramers Kronig
   OMEGAMAX=  -1.0    maximum frequency
   DEG_THRESHOLD= 0.2000000E-02 threshold for treating states as degnerate
   RTIME   =   -0.100 relaxation time in fs
  (WPLASMAI=    0.000 imaginary part of plasma frequency in eV, 0.658/RTIME)
   DFIELD  = 0.0000000 0.0000000 0.0000000 field for delta impulse in time
 
 Orbital magnetization related:
   ORBITALMAG=     F  switch on orbital magnetization
   LCHIMAG   =     F  perturbation theory with respect to B field
   DQ        =  0.001000  dq finite difference perturbation B field
   LLRAUG    =     F  two centre corrections for induced B field



--------------------------------------------------------------------------------------------------------


 conjugate gradient relaxation of ions
 charge density and potential will be updated during run
 spin polarized calculation
 RMM-DIIS sequential band-by-band and
  variant of blocked Davidson during initial phase
 perform sub-space diagonalisation
    before iterative eigenvector-optimisation
 modified Broyden-mixing scheme, WC =      100.0
 initial mixing is a Kerker type mixing with AMIX =  0.4000 and BMIX =      1.0000
 Hartree-type preconditioning will be used
 using additional bands           37
 real space projection scheme for non local part
 use partial core corrections
 calculate Harris-corrections to forces 
   (improved forces if not selfconsistent)
 use gradient corrections 
 use of overlap-Matrix (Vanderbilt PP)
 Gauss-broadening in eV      SIGMA  =   0.10


--------------------------------------------------------------------------------------------------------


  energy-cutoff  :      550.00
  volume of cell :     2848.21
      direct lattice vectors                 reciprocal lattice vectors
    14.878307727  0.000105424  0.000000000     0.067211667  0.039178051  0.000000000
    -7.439153864 12.762195204  0.000000000    -0.000000555  0.078356102  0.000000000
     0.000000000  0.000000000 15.000000000     0.000000000  0.000000000  0.066666667

  length of vectors
    14.878307728 14.772089786 15.000000000     0.077796709  0.078356102  0.066666667


 
 k-points in units of 2pi/SCALE and weight: K-Points                                
   0.00000000  0.00000000  0.00000000       0.250
   0.03360583  0.01958903  0.00000000       0.250
  -0.00000028  0.03917805  0.00000000       0.250
   0.03360556  0.05876708  0.00000000       0.250
 
 k-points in reciprocal lattice and weights: K-Points                                
   0.00000000  0.00000000  0.00000000       0.250
   0.50000000  0.00000000  0.00000000       0.250
  -0.00000000  0.50000000  0.00000000       0.250
   0.50000000  0.50000000  0.00000000       0.250
 
 position of ions in fractional coordinates (direct lattice) 
   0.00014703  0.99993181  0.49766807
   0.05571316  0.11129367  0.49774774
   0.16803225  0.00210520  0.49753985
   0.22355821  0.11343998  0.49825115
   0.33432830  0.00207694  0.49777234
   0.39014706  0.11341551  0.49841838
   0.50002407  0.99989044  0.49775648
   0.55582710  0.11125266  0.49767590
   0.66571506  0.99774295  0.49825147
   0.72152612  0.10907882  0.49753824
   0.83231512  0.99776674  0.49841003
   0.88783929  0.10910686  0.49776801
   0.99908442  0.16549374  0.49784405
   0.05430809  0.27667161  0.49853746
   0.16734775  0.16806595  0.49834347
   0.22284185  0.27957445  0.49997583
   0.33528932  0.17029644  0.49941211
   0.39084341  0.28141813  0.50254970
   0.50097822  0.16802960  0.49842000
   0.55697129  0.27954076  0.49998817
   0.66664919  0.16545038  0.49752014
   0.72257294  0.27663324  0.49802908
   0.83255361  0.16485921  0.49764969
   0.88821716  0.27620991  0.49780056
   0.99906908  0.33222521  0.49838447
   0.05442247  0.44382388  0.49884723
   0.16531768  0.33288444  0.50001215
   0.21898612  0.44382270  0.50165224
   0.33514858  0.33773328  0.50339031
   0.38694525  0.44827387  0.50958670
   0.50284791  0.33770682  0.50360105
   0.56160602  0.44823797  0.50998391
   0.66778145  0.33285443  0.49963749
   0.72504010  0.44380782  0.50114295
   0.83335701  0.33221195  0.49791518
   0.88957865  0.44380677  0.49825237
   0.00003314  0.49990030  0.49835048
   0.05573614  0.61130743  0.49834565
   0.16452790  0.49985599  0.50032235
   0.22027264  0.61134265  0.50031499
   0.32877881  0.49923631  0.50514604
   0.38513300  0.61194665  0.50514739
   0.67071104  0.49923365  0.50517220
   0.72707059  0.61195035  0.50517224
   0.83551700  0.49986026  0.49948453
   0.89125350  0.61133457  0.49948422
   0.00136430  0.66739252  0.49824937
   0.05673614  0.77898562  0.49790902
   0.16620335  0.66738054  0.49883406
   0.22244721  0.77897560  0.49837060
   0.33076298  0.66736579  0.50164604
   0.38803591  0.77830247  0.50000539
   0.49425975  0.66291375  0.50958718
   0.55300964  0.77344715  0.50338828
   0.66896610  0.66295341  0.50998288
   0.72073432  0.77348097  0.50359479
   0.83682433  0.66738081  0.50114212
   0.89051054  0.77833045  0.49963539
   0.00151950  0.83455528  0.49802741
   0.05677874  0.94573836  0.49751926
   0.16759972  0.83498348  0.49779087
   0.22328727  0.94632847  0.49764984
   0.33324173  0.83452222  0.49853136
   0.38919606  0.94569806  0.49784785
   0.49886656  0.83160652  0.49997424
   0.55488261  0.94311446  0.49834783
   0.66501623  0.82976534  0.50254304
   0.72058356  0.94088512  0.49940688
   0.83301728  0.83164625  0.49998031
   0.88852543  0.94315192  0.49840894
   0.52788678  0.55561308  0.55407295
 
 position of ions in cartesian coordinates  (Angst):
  -7.43645893 12.76132490  7.46502101
   0.00098677  1.42035737  7.46621609
   2.48437460  0.02688469  7.46309769
   2.48227038  1.44776676  7.47376727
   4.95878870  0.02654158  7.46658504
   4.96101252  1.44747206  7.47627575
   0.00117320 12.76084966  7.46634727
   7.44214093  1.41988678  7.46513856
   2.48235028 12.73346045  7.47377203
   9.92363354  1.39216125  7.46307356
   4.96090025 12.73378160  7.47615045
  12.39788345  1.39253665  7.46652020
  13.63355202  2.11216869  7.46766080
  -1.25019027  3.53094287  7.47806186
   1.23958287  2.14490807  7.47515208
   1.23571236  3.56800714  7.49963746
   3.72167632  2.17339173  7.49118168
   3.72157576  3.59155433  7.53824552
   6.20371007  2.14447940  7.47630003
   6.20724356  3.56761241  7.49982262
   8.68780104  2.11158030  7.46280215
   8.69274532  3.53052356  7.47043619
  11.16057575  2.10405319  7.46474541
  11.16040021  3.52513843  7.46700843
  12.39298273  4.24002833  7.47576708
  -2.49195986  5.66417272  7.48270852
  -0.01673121  4.24835367  7.50018218
  -0.04352248  5.66417505  7.52478359
   2.47399392  4.31025334  7.55085470
   2.42231217  5.72099937  7.64380057
   4.96927299  4.30993342  7.55401582
   5.02123589  5.72055973  7.64975858
   7.45930259  4.24802358  7.49456242
   7.48581505  5.66403852  7.51714419
   9.92756627  4.23984160  7.46872767
   9.93387816  5.66404236  7.47378561
  -3.71834223  6.37982525  7.47525727
  -3.71835051  7.80163060  7.47518475
  -1.27060894  6.37927707  7.50483528
  -1.27058799  7.80209747  7.50472492
   1.17777658  6.37138591  7.57719062
   1.17776199  7.80982318  7.57721079
   6.26516932  6.37138797  7.57758296
   6.26518706  7.80990654  7.57758361
   8.71254167  6.37940228  7.49226792
   8.71253189  7.80206507  7.49226324
  -4.94453714  8.51739379  7.47374059
  -4.95085604  9.94157246  7.46863529
  -2.49192199  8.51725823  7.48251084
  -2.48528121  9.94146208  7.47555906
  -0.04344336  8.51708741  7.52469062
  -0.01659412  9.93288892  7.50008080
   2.42223119  8.46028680  7.64380763
   2.47405524  9.87094181  7.55082413
   5.02127100  8.46081135  7.64974323
   4.96926315  9.87139105  7.55392179
   7.48578134  8.51733237  7.51713176
   7.45916989  9.93329897  7.49453080
  -6.18577746 10.65075751  7.47041111
  -6.19072161 12.06970350  7.46278894
  -3.71797037 10.65623981  7.46686302
  -3.71774635 12.07725221  7.46474766
  -1.25006613 10.65037063  7.47797042
  -1.24461459 12.06922431  7.46771775
   1.23584141 10.61317732  7.49961357
   1.23974067 12.03626939  7.47521740
   3.72156413 10.58969736  7.53814562
   3.72167477 12.00783549  7.49110317
   6.20714301 10.61371955  7.49970466
   6.20350242 12.03678263  7.47613410
   3.72077071  7.09089829  8.31109430
 


--------------------------------------------------------------------------------------------------------


 k-point  1 :   0.0000 0.0000 0.0000  plane waves:   83445
 k-point  2 :   0.5000 0.0000 0.0000  plane waves:   83448
 k-point  3 :  -0.0000 0.5000 0.0000  plane waves:   83436
 k-point  4 :   0.5000 0.5000 0.0000  plane waves:   83444

 maximum and minimum number of plane-waves per node :      6984     6935

 maximum number of plane-waves:     83448
 maximum index in each direction: 
   IXMAX=   28   IYMAX=   28   IZMAX=   28
   IXMIN=  -28   IYMIN=  -28   IZMIN=  -28


 real space projection operators:
  total allocation   :      18576.36 KBytes
  max/ min on nodes  :       1557.92       1534.66


 parallel 3D FFT for wavefunctions:
    minimum data exchange during FFTs selected (reduces bandwidth)
 parallel 3D FFT for charge:
    minimum data exchange during FFTs selected (reduces bandwidth)


 total amount of memory used by VASP MPI-rank0   135397. kBytes
=======================================================================

   base      :      30000. kBytes
   nonlr-proj:      10408. kBytes
   fftplans  :      14072. kBytes
   grid      :      39398. kBytes
   one-center:        186. kBytes
   wavefun   :      41333. kBytes
 
     INWAV:  cpu time    0.0000: real time    0.0001
 Broyden mixing: mesh for mixing (old mesh)
   NGX = 57   NGY = 57   NGZ = 57
  (NGX  =240   NGY  =240   NGZ  =240)
  gives a total of 185193 points

 initial charge density was supplied:
 charge density of overlapping atoms calculated
 number of electron     293.0000000 magnetization       1.0000000
 keeping initial charge density in first step


--------------------------------------------------------------------------------------------------------


 Maximum index for non-local projection operator          505
 Maximum index for augmentation-charges          402 (set IRDMAX)


--------------------------------------------------------------------------------------------------------


 First call to EWALD:  gamma=   0.125
 Maximum number of real-space cells 3x 3x 3
 Maximum number of reciprocal cells 3x 3x 3

    FEWALD:  cpu time    0.0037: real time    0.0039


--------------------------------------- Iteration      1(   1)  ---------------------------------------


    POTLOK:  cpu time    0.5390: real time    0.6073
    SETDIJ:  cpu time    0.0180: real time    0.0223
     EDDAV:  cpu time   16.9296: real time   17.1140
       DOS:  cpu time    0.0010: real time    0.0010
    --------------------------------------------
      LOOP:  cpu time   17.4876: real time   17.7447

 eigenvalue-minimisations  :  3256
 total energy-change (2. order) : 0.2735565E+04  (-0.1173991E+05)
 number of electron     293.0000000 magnetization       1.0000000
 augmentation part      293.0000000 magnetization       1.0000000

 Free energy of the ion-electron system (eV)
  ---------------------------------------------------
  alpha Z        PSCENC =       156.95040625
  Ewald energy   TEWEN  =     30376.85535653
  -Hartree energ DENC   =    -39542.89825136
  -exchange      EXHF   =         0.00000000
  -V(xc)+E(xc)   XCENC  =       982.53305896
  PAW double counting   =      9000.30529238    -9089.18527416
  entropy T*S    EENTRO =        -0.11395315
  eigenvalues    EBANDS =     -1214.63937655
  atomic energy  EATOM  =     12065.75791449
  Solvation  Ediel_sol  =         0.00000000
  ---------------------------------------------------
  free energy    TOTEN  =      2735.56517339 eV

  energy without entropy =     2735.67912654  energy(sigma->0) =     2735.62214996


--------------------------------------------------------------------------------------------------------




--------------------------------------- Iteration      1(   2)  ---------------------------------------


     EDDAV:  cpu time   21.8258: real time   22.0754
       DOS:  cpu time    0.0010: real time    0.0010
    --------------------------------------------
      LOOP:  cpu time   21.8268: real time   22.0764

 eigenvalue-minimisations  :  4312
 total energy-change (2. order) :-0.2909055E+04  (-0.2780601E+04)
 number of electron     293.0000000 magnetization       1.0000000
 augmentation part      293.0000000 magnetization       1.0000000

 Free energy of the ion-electron system (eV)
  ---------------------------------------------------
  alpha Z        PSCENC =       156.95040625
  Ewald energy   TEWEN  =     30376.85535653
  -Hartree energ DENC   =    -39542.89825136
  -exchange      EXHF   =         0.00000000
  -V(xc)+E(xc)   XCENC  =       982.53305896
  PAW double counting   =      9000.30529238    -9089.18527416
  entropy T*S    EENTRO =        -0.03462175
  eigenvalues    EBANDS =     -4123.77413281
  atomic energy  EATOM  =     12065.75791449
  Solvation  Ediel_sol  =         0.00000000
  ---------------------------------------------------
  free energy    TOTEN  =      -173.49025147 eV

  energy without entropy =     -173.45562972  energy(sigma->0) =     -173.47294060


--------------------------------------------------------------------------------------------------------




--------------------------------------- Iteration      1(   3)  ---------------------------------------


     EDDAV:  cpu time   18.5805: real time   18.8059
       DOS:  cpu time    0.0010: real time    0.0010
    --------------------------------------------
      LOOP:  cpu time   18.5814: real time   18.8068

 eigenvalue-minimisations  :  3544
 total energy-change (2. order) :-0.5108908E+03  (-0.5079000E+03)
 number of electron     293.0000000 magnetization       1.0000000
 augmentation part      293.0000000 magnetization       1.0000000

 Free energy of the ion-electron system (eV)
  ---------------------------------------------------
  alpha Z        PSCENC =       156.95040625
  Ewald energy   TEWEN  =     30376.85535653
  -Hartree energ DENC   =    -39542.89825136
  -exchange      EXHF   =         0.00000000
  -V(xc)+E(xc)   XCENC  =       982.53305896
  PAW double counting   =      9000.30529238    -9089.18527416
  entropy T*S    EENTRO =        -0.03930258
  eigenvalues    EBANDS =     -4634.66022148
  atomic energy  EATOM  =     12065.75791449
  Solvation  Ediel_sol  =         0.00000000
  ---------------------------------------------------
  free energy    TOTEN  =      -684.38102097 eV

  energy without entropy =     -684.34171839  energy(sigma->0) =     -684.36136968


--------------------------------------------------------------------------------------------------------




--------------------------------------- Iteration      1(   4)  ---------------------------------------


     EDDAV:  cpu time   18.6325: real time   18.8512
       DOS:  cpu time    0.0010: real time    0.0010
    --------------------------------------------
      LOOP:  cpu time   18.6335: real time   18.8522

 eigenvalue-minimisations  :  3544
 total energy-change (2. order) :-0.1941271E+02  (-0.1925923E+02)
 number of electron     293.0000000 magnetization       1.0000000
 augmentation part      293.0000000 magnetization       1.0000000

 Free energy of the ion-electron system (eV)
  ---------------------------------------------------
  alpha Z        PSCENC =       156.95040625
  Ewald energy   TEWEN  =     30376.85535653
  -Hartree energ DENC   =    -39542.89825136
  -exchange      EXHF   =         0.00000000
  -V(xc)+E(xc)   XCENC  =       982.53305896
  PAW double counting   =      9000.30529238    -9089.18527416
  entropy T*S    EENTRO =        -0.03868208
  eigenvalues    EBANDS =     -4654.07355404
  atomic energy  EATOM  =     12065.75791449
  Solvation  Ediel_sol  =         0.00000000
  ---------------------------------------------------
  free energy    TOTEN  =      -703.79373303 eV

  energy without entropy =     -703.75505095  energy(sigma->0) =     -703.77439199


--------------------------------------------------------------------------------------------------------




--------------------------------------- Iteration      1(   5)  ---------------------------------------


     EDDAV:  cpu time   20.6083: real time   20.8153
       DOS:  cpu time    0.0010: real time    0.0010
    CHARGE:  cpu time    0.9815: real time    0.9957
    MIXING:  cpu time    0.0114: real time    0.0147
    --------------------------------------------
      LOOP:  cpu time   21.6022: real time   21.8267

 eigenvalue-minimisations  :  4040
 total energy-change (2. order) :-0.6237171E+00  (-0.6218528E+00)
 number of electron     292.9999999 magnetization       0.7756082
 augmentation part       11.6621633 magnetization       0.7573230

 Broyden mixing:
  rms(total) = 0.46566E+01    rms(broyden)= 0.46562E+01
  rms(prec ) = 0.54228E+01
  weight for this iteration     100.00

 Free energy of the ion-electron system (eV)
  ---------------------------------------------------
  alpha Z        PSCENC =       156.95040625
  Ewald energy   TEWEN  =     30376.85535653
  -Hartree energ DENC   =    -39542.89825136
  -exchange      EXHF   =         0.00000000
  -V(xc)+E(xc)   XCENC  =       982.53305896
  PAW double counting   =      9000.30529238    -9089.18527416
  entropy T*S    EENTRO =        -0.03900353
  eigenvalues    EBANDS =     -4654.69694966
  atomic energy  EATOM  =     12065.75791449
  Solvation  Ediel_sol  =         0.00000000
  ---------------------------------------------------
  free energy    TOTEN  =      -704.41745010 eV

  energy without entropy =     -704.37844657  energy(sigma->0) =     -704.39794834


--------------------------------------------------------------------------------------------------------




--------------------------------------- Iteration      1(   6)  ---------------------------------------


    POTLOK:  cpu time    0.5385: real time    0.5489
    SETDIJ:  cpu time    0.0151: real time    0.0169
    EDDIAG:  cpu time    3.3283: real time    3.3652
  RMM-DIIS:  cpu time   17.9556: real time   18.1226
    ORTHCH:  cpu time    0.2547: real time    0.2555
       DOS:  cpu time    0.0011: real time    0.0011
    CHARGE:  cpu time    1.0103: real time    1.0257
    MIXING:  cpu time    0.0106: real time    0.0118
    --------------------------------------------
      LOOP:  cpu time   23.1142: real time   23.3478

 eigenvalue-minimisations  :  4113
 total energy-change (2. order) :-0.2816357E+02  (-0.5355062E+02)
 number of electron     293.0000009 magnetization       0.7195412
 augmentation part       17.3602097 magnetization       0.9193956

 Broyden mixing:
  rms(total) = 0.84009E+01    rms(broyden)= 0.84008E+01
  rms(prec ) = 0.92856E+01
  weight for this iteration     100.00

 eigenvalues of (default mixing * dielectric matrix)
  average eigenvalue GAMMA=   0.2161
  0.2161

 Free energy of the ion-electron system (eV)
  ---------------------------------------------------
  alpha Z        PSCENC =       156.95040625
  Ewald energy   TEWEN  =     30376.85535653
  -Hartree energ DENC   =    -39835.14558288
  -exchange      EXHF   =         0.00000000
  -V(xc)+E(xc)   XCENC  =       996.31019046
  PAW double counting   =     15150.26866223   -15238.97579864
  entropy T*S    EENTRO =        -0.04906848
  eigenvalues    EBANDS =     -4404.55310413
  atomic energy  EATOM  =     12065.75791449
  Solvation  Ediel_sol  =         0.00000000
  ---------------------------------------------------
  free energy    TOTEN  =      -732.58102417 eV

  energy without entropy =     -732.53195569  energy(sigma->0) =     -732.55648993


--------------------------------------------------------------------------------------------------------




--------------------------------------- Iteration      1(   7)  ---------------------------------------


    POTLOK:  cpu time    0.5324: real time    0.5491
    SETDIJ:  cpu time    0.0148: real time    0.0151
    EDDIAG:  cpu time    3.2289: real time    3.2578
  RMM-DIIS:  cpu time   13.2686: real time   13.3831
    ORTHCH:  cpu time    0.3502: real time    0.3515
       DOS:  cpu time    0.0008: real time    0.0008
    CHARGE:  cpu time    0.9965: real time    1.0113
    MIXING:  cpu time    0.0109: real time    0.0113
    --------------------------------------------
      LOOP:  cpu time   18.4030: real time   18.5800

 eigenvalue-minimisations  :  3042
 total energy-change (2. order) : 0.7026997E+02  (-0.5453272E+01)
 number of electron     293.0000006 magnetization       0.6166025
 augmentation part       15.2463435 magnetization       0.6255506

 Broyden mixing:
  rms(total) = 0.31853E+01    rms(broyden)= 0.31853E+01
  rms(prec ) = 0.38255E+01
  weight for this iteration     100.00

 eigenvalues of (default mixing * dielectric matrix)
  average eigenvalue GAMMA=   0.4666
  0.4960  0.4372

 Free energy of the ion-electron system (eV)
  ---------------------------------------------------
  alpha Z        PSCENC =       156.95040625
  Ewald energy   TEWEN  =     30376.85535653
  -Hartree energ DENC   =    -39957.39474110
  -exchange      EXHF   =         0.00000000
  -V(xc)+E(xc)   XCENC  =      1000.86651632
  PAW double counting   =     16739.24671418   -16834.78472762
  entropy T*S    EENTRO =        -0.00010963
  eigenvalues    EBANDS =     -4209.80838155
  atomic energy  EATOM  =     12065.75791449
  Solvation  Ediel_sol  =         0.00000000
  ---------------------------------------------------
  free energy    TOTEN  =      -662.31105213 eV

  energy without entropy =     -662.31094250  energy(sigma->0) =     -662.31099731


--------------------------------------------------------------------------------------------------------




--------------------------------------- Iteration      1(   8)  ---------------------------------------


    POTLOK:  cpu time    0.5569: real time    0.5619
    SETDIJ:  cpu time    0.0150: real time    0.0151
    EDDIAG:  cpu time    3.2234: real time    3.2490
  RMM-DIIS:  cpu time   13.6392: real time   13.7380
    ORTHCH:  cpu time    0.5513: real time    0.5738
       DOS:  cpu time    0.0009: real time    0.0009
    CHARGE:  cpu time    1.0161: real time    1.0285
    MIXING:  cpu time    0.0113: real time    0.0121
    --------------------------------------------
      LOOP:  cpu time   19.0140: real time   19.1793

 eigenvalue-minimisations  :  3136
 total energy-change (2. order) : 0.2367618E-01  (-0.2114753E+01)
 number of electron     293.0000000 magnetization       0.3484275
 augmentation part       11.2217581 magnetization       0.3008125

 Broyden mixing:
  rms(total) = 0.28320E+01    rms(broyden)= 0.28318E+01
  rms(prec ) = 0.34742E+01
  weight for this iteration     100.00

 eigenvalues of (default mixing * dielectric matrix)
  average eigenvalue GAMMA=   0.8568
  1.8892  0.3406  0.3406

 Free energy of the ion-electron system (eV)
  ---------------------------------------------------
  alpha Z        PSCENC =       156.95040625
  Ewald energy   TEWEN  =     30376.85535653
  -Hartree energ DENC   =    -40138.77976001
  -exchange      EXHF   =         0.00000000
  -V(xc)+E(xc)   XCENC  =      1007.61614920
  PAW double counting   =     19664.52587295   -19764.07041912
  entropy T*S    EENTRO =        -0.03856246
  eigenvalues    EBANDS =     -4031.10433376
  atomic energy  EATOM  =     12065.75791449
  Solvation  Ediel_sol  =         0.00000000
  ---------------------------------------------------
  free energy    TOTEN  =      -662.28737594 eV

  energy without entropy =     -662.24881348  energy(sigma->0) =     -662.26809471


--------------------------------------------------------------------------------------------------------




--------------------------------------- Iteration      1(   9)  ---------------------------------------


    POTLOK:  cpu time    0.5363: real time    0.5408
    SETDIJ:  cpu time    0.0209: real time    0.0215
    EDDIAG:  cpu time    3.2441: real time    3.2715
  RMM-DIIS:  cpu time   13.0105: real time   13.1091
    ORTHCH:  cpu time    0.4270: real time    0.4393
       DOS:  cpu time    0.0010: real time    0.0010
    CHARGE:  cpu time    0.9912: real time    1.0017
    MIXING:  cpu time    0.0133: real time    0.0136
    --------------------------------------------
      LOOP:  cpu time   18.2443: real time   18.3985

 eigenvalue-minimisations  :  2974
 total energy-change (2. order) : 0.1516899E+02  (-0.2033333E+01)
 number of electron     293.0000003 magnetization       0.2702340
 augmentation part       12.2378498 magnetization       0.2640580

 Broyden mixing:
  rms(total) = 0.11150E+01    rms(broyden)= 0.11148E+01
  rms(prec ) = 0.12460E+01
  weight for this iteration     100.00

 eigenvalues of (default mixing * dielectric matrix)
  average eigenvalue GAMMA=   0.9136
  2.2077  0.7455  0.3506  0.3506

 Free energy of the ion-electron system (eV)
  ---------------------------------------------------
  alpha Z        PSCENC =       156.95040625
  Ewald energy   TEWEN  =     30376.85535653
  -Hartree energ DENC   =    -40444.02086918
  -exchange      EXHF   =         0.00000000
  -V(xc)+E(xc)   XCENC  =      1020.47331722
  PAW double counting   =     27861.03159300   -27963.30957037
  entropy T*S    EENTRO =        -0.01743246
  eigenvalues    EBANDS =     -3720.83910204
  atomic energy  EATOM  =     12065.75791449
  Solvation  Ediel_sol  =         0.00000000
  ---------------------------------------------------
  free energy    TOTEN  =      -647.11838657 eV

  energy without entropy =     -647.10095411  energy(sigma->0) =     -647.10967034


--------------------------------------------------------------------------------------------------------




--------------------------------------- Iteration      1(  10)  ---------------------------------------


    POTLOK:  cpu time    0.5334: real time    0.5388
    SETDIJ:  cpu time    0.0152: real time    0.0153
    EDDIAG:  cpu time    3.2431: real time    3.2696
  RMM-DIIS:  cpu time   13.1019: real time   13.2155
    ORTHCH:  cpu time    0.4334: real time    0.4346
       DOS:  cpu time    0.0009: real time    0.0009
    CHARGE:  cpu time    0.9726: real time    0.9831
    MIXING:  cpu time    0.0119: real time    0.0120
    --------------------------------------------
      LOOP:  cpu time   18.3124: real time   18.4700

 eigenvalue-minimisations  :  3008
 total energy-change (2. order) :-0.5487574E+00  (-0.2846486E+00)
 number of electron     293.0000006 magnetization       0.2151932
 augmentation part       13.7501543 magnetization       0.2467586

 Broyden mixing:
  rms(total) = 0.14282E+01    rms(broyden)= 0.14278E+01
  rms(prec ) = 0.17754E+01
  weight for this iteration     100.00

 eigenvalues of (default mixing * dielectric matrix)
  average eigenvalue GAMMA=   0.9171
  2.3420  1.0551  0.3475  0.3475  0.4935

 Free energy of the ion-electron system (eV)
  ---------------------------------------------------
  alpha Z        PSCENC =       156.95040625
  Ewald energy   TEWEN  =     30376.85535653
  -Hartree energ DENC   =    -40486.81570600
  -exchange      EXHF   =         0.00000000
  -V(xc)+E(xc)   XCENC  =      1021.36060698
  PAW double counting   =     29334.98535052   -29436.10500072
  entropy T*S    EENTRO =        -0.00140554
  eigenvalues    EBANDS =     -3680.65466645
  atomic energy  EATOM  =     12065.75791449
  Solvation  Ediel_sol  =         0.00000000
  ---------------------------------------------------
  free energy    TOTEN  =      -647.66714394 eV

  energy without entropy =     -647.66573840  energy(sigma->0) =     -647.66644117


--------------------------------------------------------------------------------------------------------




--------------------------------------- Iteration      1(  11)  ---------------------------------------


    POTLOK:  cpu time    0.5708: real time    0.5758
    SETDIJ:  cpu time    0.0150: real time    0.0151
    EDDIAG:  cpu time    3.2733: real time    3.3067
  RMM-DIIS:  cpu time   13.4958: real time   13.6089
    ORTHCH:  cpu time    0.4304: real time    0.4313
       DOS:  cpu time    0.0010: real time    0.0010
    CHARGE:  cpu time    1.0128: real time    1.0223
    MIXING:  cpu time    0.0126: real time    0.0127
    --------------------------------------------
      LOOP:  cpu time   18.8115: real time   18.9739

 eigenvalue-minimisations  :  3101
 total energy-change (2. order) : 0.1076376E+01  (-0.3958773E-01)
 number of electron     293.0000004 magnetization       0.1711443
 augmentation part       12.5699839 magnetization       0.1030312

 Broyden mixing:
  rms(total) = 0.73426E+00    rms(broyden)= 0.73374E+00
  rms(prec ) = 0.77525E+00
  weight for this iteration     100.00

 eigenvalues of (default mixing * dielectric matrix)
  average eigenvalue GAMMA=   0.9753
  2.0830  2.0830  0.6211  0.3458  0.3458  0.3733

 Free energy of the ion-electron system (eV)
  ---------------------------------------------------
  alpha Z        PSCENC =       156.95040625
  Ewald energy   TEWEN  =     30376.85535653
  -Hartree energ DENC   =    -40519.98895848
  -exchange      EXHF   =         0.00000000
  -V(xc)+E(xc)   XCENC  =      1021.79787966
  PAW double counting   =     29996.04469964   -30096.51097752
  entropy T*S    EENTRO =        -0.04533122
  eigenvalues    EBANDS =     -3647.45175762
  atomic energy  EATOM  =     12065.75791449
  Solvation  Ediel_sol  =         0.00000000
  ---------------------------------------------------
  free energy    TOTEN  =      -646.59076827 eV

  energy without entropy =     -646.54543705  energy(sigma->0) =     -646.56810266


--------------------------------------------------------------------------------------------------------




--------------------------------------- Iteration      1(  12)  ---------------------------------------


    POTLOK:  cpu time    0.5308: real time    0.5361
    SETDIJ:  cpu time    0.0150: real time    0.0151
    EDDIAG:  cpu time    3.2224: real time    3.2466
  RMM-DIIS:  cpu time   12.9118: real time   13.0232
    ORTHCH:  cpu time    0.4760: real time    0.4772
       DOS:  cpu time    0.0009: real time    0.0009
    CHARGE:  cpu time    1.0006: real time    1.0101
    MIXING:  cpu time    0.0130: real time    0.0133
    --------------------------------------------
      LOOP:  cpu time   18.1705: real time   18.3224

 eigenvalue-minimisations  :  2944
 total energy-change (2. order) : 0.3620261E-01  (-0.1709005E-01)
 number of electron     293.0000005 magnetization       0.1769914
 augmentation part       12.9412909 magnetization      -0.2691882

 Broyden mixing:
  rms(total) = 0.70793E+00    rms(broyden)= 0.70765E+00
  rms(prec ) = 0.73768E+00
  weight for this iteration     100.00

 eigenvalues of (default mixing * dielectric matrix)
  average eigenvalue GAMMA=   0.8444
  2.0949  2.0949  0.5798  0.3461  0.3461  0.3712  0.0779

 Free energy of the ion-electron system (eV)
  ---------------------------------------------------
  alpha Z        PSCENC =       156.95040625
  Ewald energy   TEWEN  =     30376.85535653
  -Hartree energ DENC   =    -40546.20553419
  -exchange      EXHF   =         0.00000000
  -V(xc)+E(xc)   XCENC  =      1021.40251461
  PAW double counting   =     30442.74809768   -30541.68059704
  entropy T*S    EENTRO =        -0.03458926
  eigenvalues    EBANDS =     -3622.34813473
  atomic energy  EATOM  =     12065.75791449
  Solvation  Ediel_sol  =         0.00000000
  ---------------------------------------------------
  free energy    TOTEN  =      -646.55456566 eV

  energy without entropy =     -646.51997640  energy(sigma->0) =     -646.53727103


--------------------------------------------------------------------------------------------------------




--------------------------------------- Iteration      1(  13)  ---------------------------------------


    POTLOK:  cpu time    0.5216: real time    0.5256
    SETDIJ:  cpu time    0.0210: real time    0.0211
    EDDIAG:  cpu time    3.2837: real time    3.3131
  RMM-DIIS:  cpu time   13.2281: real time   13.3229
    ORTHCH:  cpu time    0.3855: real time    0.3868
       DOS:  cpu time    0.0010: real time    0.0010
    CHARGE:  cpu time    1.0018: real time    1.0129
    MIXING:  cpu time    0.0125: real time    0.0129
    --------------------------------------------
      LOOP:  cpu time   18.4551: real time   18.5964

 eigenvalue-minimisations  :  3030
 total energy-change (2. order) :-0.3663025E-01  (-0.2084924E-02)
 number of electron     293.0000005 magnetization       0.1024405
 augmentation part       12.9398857 magnetization      -0.3848029

 Broyden mixing:
  rms(total) = 0.72188E+00    rms(broyden)= 0.72186E+00
  rms(prec ) = 0.74942E+00
  weight for this iteration     100.00

 eigenvalues of (default mixing * dielectric matrix)
  average eigenvalue GAMMA=   0.8196
  2.1596  2.1596  0.6553  0.3468  0.3468  0.3877  0.2572  0.2440

 Free energy of the ion-electron system (eV)
  ---------------------------------------------------
  alpha Z        PSCENC =       156.95040625
  Ewald energy   TEWEN  =     30376.85535653
  -Hartree energ DENC   =    -40546.66287312
  -exchange      EXHF   =         0.00000000
  -V(xc)+E(xc)   XCENC  =      1021.41053400
  PAW double counting   =     30442.62631426   -30541.51103462
  entropy T*S    EENTRO =        -0.02820173
  eigenvalues    EBANDS =     -3621.98961197
  atomic energy  EATOM  =     12065.75791449
  Solvation  Ediel_sol  =         0.00000000
  ---------------------------------------------------
  free energy    TOTEN  =      -646.59119590 eV

  energy without entropy =     -646.56299418  energy(sigma->0) =     -646.57709504


--------------------------------------------------------------------------------------------------------




--------------------------------------- Iteration      1(  14)  ---------------------------------------


    POTLOK:  cpu time    0.5250: real time    0.5292
    SETDIJ:  cpu time    0.0149: real time    0.0149
    EDDIAG:  cpu time    3.2507: real time    3.2767
  RMM-DIIS:  cpu time   13.0082: real time   13.1167
    ORTHCH:  cpu time    0.6138: real time    0.6152
       DOS:  cpu time    0.0010: real time    0.0010
    CHARGE:  cpu time    1.0044: real time    1.0145
    MIXING:  cpu time    0.0134: real time    0.0135
    --------------------------------------------
      LOOP:  cpu time   18.4314: real time   18.5816

 eigenvalue-minimisations  :  2968
 total energy-change (2. order) : 0.1523838E+00  (-0.2078413E-02)
 number of electron     293.0000004 magnetization       0.1114788
 augmentation part       12.8932552 magnetization      -0.3054908

 Broyden mixing:
  rms(total) = 0.71012E+00    rms(broyden)= 0.71012E+00
  rms(prec ) = 0.72722E+00
  weight for this iteration     100.00

 eigenvalues of (default mixing * dielectric matrix)
  average eigenvalue GAMMA=   0.7906
  2.1914  2.1914  0.6636  0.3463  0.3463  0.3929  0.2959  0.3439  0.3439

 Free energy of the ion-electron system (eV)
  ---------------------------------------------------
  alpha Z        PSCENC =       156.95040625
  Ewald energy   TEWEN  =     30376.85535653
  -Hartree energ DENC   =    -40550.27706660
  -exchange      EXHF   =         0.00000000
  -V(xc)+E(xc)   XCENC  =      1021.38188979
  PAW double counting   =     30537.68716013   -30636.37353639
  entropy T*S    EENTRO =        -0.03527705
  eigenvalues    EBANDS =     -3618.38565928
  atomic energy  EATOM  =     12065.75791449
  Solvation  Ediel_sol  =         0.00000000
  ---------------------------------------------------
  free energy    TOTEN  =      -646.43881212 eV

  energy without entropy =     -646.40353508  energy(sigma->0) =     -646.42117360


--------------------------------------------------------------------------------------------------------




--------------------------------------- Iteration      1(  15)  ---------------------------------------


    POTLOK:  cpu time    0.5376: real time    0.5467
    SETDIJ:  cpu time    0.0152: real time    0.0152
    EDDIAG:  cpu time    3.2155: real time    3.2388
  RMM-DIIS:  cpu time   13.7884: real time   13.8996
    ORTHCH:  cpu time    0.4645: real time    0.4659
       DOS:  cpu time    0.0009: real time    0.0009
    CHARGE:  cpu time    1.0002: real time    1.0088
    MIXING:  cpu time    0.0141: real time    0.0141
    --------------------------------------------
      LOOP:  cpu time   19.0365: real time   19.1900

 eigenvalue-minimisations  :  3179
 total energy-change (2. order) :-0.1384865E-01  (-0.2725372E-03)
 number of electron     293.0000004 magnetization       0.1303647
 augmentation part       12.8883391 magnetization      -0.2820753

 Broyden mixing:
  rms(total) = 0.70462E+00    rms(broyden)= 0.70462E+00
  rms(prec ) = 0.72104E+00
  weight for this iteration     100.00

 eigenvalues of (default mixing * dielectric matrix)
  average eigenvalue GAMMA=   0.7350
  2.1932  2.1932  0.4154  0.4154  0.6658  0.3463  0.3463  0.3906  0.2901  0.0932

 Free energy of the ion-electron system (eV)
  ---------------------------------------------------
  alpha Z        PSCENC =       156.95040625
  Ewald energy   TEWEN  =     30376.85535653
  -Hartree energ DENC   =    -40550.16941341
  -exchange      EXHF   =         0.00000000
  -V(xc)+E(xc)   XCENC  =      1021.37402106
  PAW double counting   =     30536.47082183   -30635.15879393
  entropy T*S    EENTRO =        -0.03552626
  eigenvalues    EBANDS =     -3618.49744733
  atomic energy  EATOM  =     12065.75791449
  Solvation  Ediel_sol  =         0.00000000
  ---------------------------------------------------
  free energy    TOTEN  =      -646.45266078 eV

  energy without entropy =     -646.41713451  energy(sigma->0) =     -646.43489764


--------------------------------------------------------------------------------------------------------




--------------------------------------- Iteration      1(  16)  ---------------------------------------


    POTLOK:  cpu time    0.5630: real time    0.5702
    SETDIJ:  cpu time    0.0149: real time    0.0151
    EDDIAG:  cpu time    3.2467: real time    3.2731
  RMM-DIIS:  cpu time   12.2159: real time   12.3042
    ORTHCH:  cpu time    0.4723: real time    0.4735
       DOS:  cpu time    0.0010: real time    0.0010
    CHARGE:  cpu time    0.9694: real time    0.9812
    MIXING:  cpu time    0.0118: real time    0.0128
    --------------------------------------------
      LOOP:  cpu time   17.4951: real time   17.6310

 eigenvalue-minimisations  :  2779
 total energy-change (2. order) :-0.1621006E-01  (-0.6974853E-04)
 number of electron     293.0000004 magnetization       0.1007974
 augmentation part       12.8924985 magnetization      -0.3250261

 Broyden mixing:
  rms(total) = 0.71128E+00    rms(broyden)= 0.71128E+00
  rms(prec ) = 0.72832E+00
  weight for this iteration     100.00

 eigenvalues of (default mixing * dielectric matrix)
  average eigenvalue GAMMA=   0.7078
  2.1936  2.1936  0.6672  0.4102  0.4102  0.3405  0.3463  0.3463  0.3911  0.2911
  0.1955

 Free energy of the ion-electron system (eV)
  ---------------------------------------------------
  alpha Z        PSCENC =       156.95040625
  Ewald energy   TEWEN  =     30376.85535653
  -Hartree energ DENC   =    -40550.03211000
  -exchange      EXHF   =         0.00000000
  -V(xc)+E(xc)   XCENC  =      1021.37731281
  PAW double counting   =     30531.88453452   -30630.58483165
  entropy T*S    EENTRO =        -0.03394539
  eigenvalues    EBANDS =     -3618.64350840
  atomic energy  EATOM  =     12065.75791449
  Solvation  Ediel_sol  =         0.00000000
  ---------------------------------------------------
  free energy    TOTEN  =      -646.46887084 eV

  energy without entropy =     -646.43492545  energy(sigma->0) =     -646.45189814


--------------------------------------------------------------------------------------------------------




--------------------------------------- Iteration      1(  17)  ---------------------------------------


    POTLOK:  cpu time    0.5718: real time    0.5773
    SETDIJ:  cpu time    0.0157: real time    0.0158
    EDDIAG:  cpu time    3.1987: real time    3.2213
  RMM-DIIS:  cpu time   12.8025: real time   12.9072
    ORTHCH:  cpu time    0.4391: real time    0.4511
       DOS:  cpu time    0.0010: real time    0.0010
    CHARGE:  cpu time    0.9661: real time    0.9766
    MIXING:  cpu time    0.0467: real time    0.0471
    --------------------------------------------
      LOOP:  cpu time   18.0416: real time   18.1976

 eigenvalue-minimisations  :  2919
 total energy-change (2. order) : 0.1951039E-01  (-0.9313690E-04)
 number of electron     293.0000004 magnetization      -0.3009955
 augmentation part       12.8747954 magnetization      -0.7065661

 Broyden mixing:
  rms(total) = 0.69280E+00    rms(broyden)= 0.69280E+00
  rms(prec ) = 0.70749E+00
  weight for this iteration     100.00

 eigenvalues of (default mixing * dielectric matrix)
  average eigenvalue GAMMA=   0.8822
  2.1710  2.1710  1.1223  1.0624  1.0624  0.7045  0.3455  0.3455  0.4485  0.4485
  0.3983  0.3063

 Free energy of the ion-electron system (eV)
  ---------------------------------------------------
  alpha Z        PSCENC =       156.95040625
  Ewald energy   TEWEN  =     30376.85535653
  -Hartree energ DENC   =    -40550.52418652
  -exchange      EXHF   =         0.00000000
  -V(xc)+E(xc)   XCENC  =      1021.37938504
  PAW double counting   =     30535.09837240   -30633.78726686
  entropy T*S    EENTRO =        -0.03532827
  eigenvalues    EBANDS =     -3618.14401350
  atomic energy  EATOM  =     12065.75791449
  Solvation  Ediel_sol  =         0.00000000
  ---------------------------------------------------
  free energy    TOTEN  =      -646.44936045 eV

  energy without entropy =     -646.41403218  energy(sigma->0) =     -646.43169631


--------------------------------------------------------------------------------------------------------




--------------------------------------- Iteration      1(  18)  ---------------------------------------


    POTLOK:  cpu time    0.5387: real time    0.5477
    SETDIJ:  cpu time    0.0148: real time    0.0149
    EDDIAG:  cpu time    3.2266: real time    3.2517
  RMM-DIIS:  cpu time   12.9970: real time   13.1040
    ORTHCH:  cpu time    0.2321: real time    0.2328
       DOS:  cpu time    0.0009: real time    0.0009
    CHARGE:  cpu time    1.0072: real time    1.0189
    MIXING:  cpu time    0.0132: real time    0.0133
    --------------------------------------------
      LOOP:  cpu time   18.0306: real time   18.1844

 eigenvalue-minimisations  :  2964
 total energy-change (2. order) : 0.1187695E+00  (-0.1987228E-01)
 number of electron     293.0000004 magnetization      -0.4381113
 augmentation part       12.9625061 magnetization      -0.6475534

 Broyden mixing:
  rms(total) = 0.54005E+00    rms(broyden)= 0.53980E+00
  rms(prec ) = 0.58245E+00
  weight for this iteration     100.00

 eigenvalues of (default mixing * dielectric matrix)
  average eigenvalue GAMMA=   0.8767
  2.2016  2.2016  1.1974  1.1009  1.1009  0.6585  0.5367  0.5367  0.3457  0.3457
  0.4980  0.3637  0.3093

 Free energy of the ion-electron system (eV)
  ---------------------------------------------------
  alpha Z        PSCENC =       156.95040625
  Ewald energy   TEWEN  =     30376.85535653
  -Hartree energ DENC   =    -40559.44307595
  -exchange      EXHF   =         0.00000000
  -V(xc)+E(xc)   XCENC  =      1021.60499412
  PAW double counting   =     30532.28615372   -30630.91328908
  entropy T*S    EENTRO =        -0.07463048
  eigenvalues    EBANDS =     -3609.35442058
  atomic energy  EATOM  =     12065.75791449
  Solvation  Ediel_sol  =         0.00000000
  ---------------------------------------------------
  free energy    TOTEN  =      -646.33059098 eV

  energy without entropy =     -646.25596050  energy(sigma->0) =     -646.29327574


--------------------------------------------------------------------------------------------------------




--------------------------------------- Iteration      1(  19)  ---------------------------------------


    POTLOK:  cpu time    0.5747: real time    0.5811
    SETDIJ:  cpu time    0.0155: real time    0.0157
    EDDIAG:  cpu time    3.2384: real time    3.2635
  RMM-DIIS:  cpu time   13.0624: real time   13.1792
    ORTHCH:  cpu time    0.3669: real time    0.3690
       DOS:  cpu time    0.0010: real time    0.0010
    CHARGE:  cpu time    1.0019: real time    1.0126
    MIXING:  cpu time    0.0151: real time    0.0152
    --------------------------------------------
      LOOP:  cpu time   18.2760: real time   18.4372

 eigenvalue-minimisations  :  2992
 total energy-change (2. order) :-0.1028307E+00  (-0.1102167E-01)
 number of electron     293.0000004 magnetization      -0.1907871
 augmentation part       12.9793159 magnetization       0.1906446

 Broyden mixing:
  rms(total) = 0.73925E+00    rms(broyden)= 0.73869E+00
  rms(prec ) = 0.77262E+00
  weight for this iteration     100.00

 eigenvalues of (default mixing * dielectric matrix)
  average eigenvalue GAMMA=   0.8266
  2.2136  2.2136  1.1145  0.9009  0.9009  0.7151  0.5704  0.5704  0.5751  0.3457
  0.3457  0.3976  0.3976  0.3118

 Free energy of the ion-electron system (eV)
  ---------------------------------------------------
  alpha Z        PSCENC =       156.95040625
  Ewald energy   TEWEN  =     30376.85535653
  -Hartree energ DENC   =    -40567.30523914
  -exchange      EXHF   =         0.00000000
  -V(xc)+E(xc)   XCENC  =      1021.74700874
  PAW double counting   =     30538.39077140   -30637.00801398
  entropy T*S    EENTRO =        -0.05019866
  eigenvalues    EBANDS =     -3601.77142734
  atomic energy  EATOM  =     12065.75791449
  Solvation  Ediel_sol  =         0.00000000
  ---------------------------------------------------
  free energy    TOTEN  =      -646.43342171 eV

  energy without entropy =     -646.38322305  energy(sigma->0) =     -646.40832238


--------------------------------------------------------------------------------------------------------




--------------------------------------- Iteration      1(  20)  ---------------------------------------


    POTLOK:  cpu time    0.5409: real time    0.5510
    SETDIJ:  cpu time    0.0135: real time    0.0136
    EDDIAG:  cpu time    3.2039: real time    3.2293
  RMM-DIIS:  cpu time   13.0592: real time   13.1651
    ORTHCH:  cpu time    0.3452: real time    0.3463
       DOS:  cpu time    0.0010: real time    0.0010
    CHARGE:  cpu time    0.9978: real time    1.0102
    MIXING:  cpu time    0.0158: real time    0.0158
    --------------------------------------------
      LOOP:  cpu time   18.1774: real time   18.3322

 eigenvalue-minimisations  :  2959
 total energy-change (2. order) :-0.7737747E-01  (-0.1911836E-01)
 number of electron     293.0000005 magnetization       0.0822082
 augmentation part       12.9677674 magnetization       0.5164172

 Broyden mixing:
  rms(total) = 0.78263E+00    rms(broyden)= 0.78254E+00
  rms(prec ) = 0.81237E+00
  weight for this iteration     100.00

 eigenvalues of (default mixing * dielectric matrix)
  average eigenvalue GAMMA=   0.8201
  2.2365  2.2365  0.9463  0.9183  0.9183  0.7761  0.7761  0.5863  0.5863  0.3456
  0.3456  0.4675  0.4675  0.3861  0.3087

 Free energy of the ion-electron system (eV)
  ---------------------------------------------------
  alpha Z        PSCENC =       156.95040625
  Ewald energy   TEWEN  =     30376.85535653
  -Hartree energ DENC   =    -40571.43906675
  -exchange      EXHF   =         0.00000000
  -V(xc)+E(xc)   XCENC  =      1021.71686535
  PAW double counting   =     30531.12741860   -30629.80747390
  entropy T*S    EENTRO =        -0.02305606
  eigenvalues    EBANDS =     -3597.64916369
  atomic energy  EATOM  =     12065.75791449
  Solvation  Ediel_sol  =         0.00000000
  ---------------------------------------------------
  free energy    TOTEN  =      -646.51079918 eV

  energy without entropy =     -646.48774312  energy(sigma->0) =     -646.49927115


[...]
  E(xc)   -1111.02143 -1110.66873 -1150.12888    -0.00812    -0.00434     0.00099
  Local  -83739.54257-83741.50738 86081.38561    12.50741    21.33903    -6.11212
  n-local  -289.39718  -286.72997  -269.25965     0.24305    -0.04186    -0.08943
  augment    66.47733    64.98416    65.61311     0.05585     0.14407    -0.24512
  Kinetic  4384.28330  4370.42726  4983.76970    -0.22228     0.86360    -0.57796
  Fock        0.00000     0.00000     0.00000     0.00000     0.00000     0.00000
  vdW        -1.52204    -1.68209    -0.04080    -0.00090     0.00048    -0.00872
  -------------------------------------------------------------------------------------
  Total      -0.03560    -0.15910    -0.75105     0.03067    -0.02606     0.03595
  in kB      -0.02006    -0.08964    -0.42317     0.01728    -0.01468     0.02025
  external pressure =       -0.18 kB  Pullay stress =        0.00 kB


 VOLUME and BASIS-vectors are now :
 -----------------------------------------------------------------------------
  energy-cutoff  :      550.00
  volume of cell :     2843.54
      direct lattice vectors                 reciprocal lattice vectors
    14.859192570 -0.009793846  0.000000000     0.067324240  0.039191913  0.000000000
    -7.429596285 12.762630739  0.000000000     0.000051664  0.078383827  0.000000000
     0.000000000  0.000000000 15.000000000     0.000000000  0.000000000  0.066666667

  length of vectors
    14.859195797 14.767655343 15.000000000     0.077900958  0.078383844  0.066666667


 FORCES acting on ions
    electron-ion (+dipol)            ewald-force                    non-local-force                 convergence-correction
 -----------------------------------------------------------------------------------------------
   0.126E+01 -.461E+00 0.770E+01   -.124E+01 0.432E+00 -.772E+01   -.299E-01 0.391E-01 0.250E-01   0.807E-04 0.518E-04 -.256E-03
   -.225E+01 -.728E+00 0.763E+01   0.236E+01 0.791E+00 -.765E+01   -.914E-01 -.453E-01 0.245E-01   0.478E-03 -.123E-02 -.265E-03
   0.114E+01 -.116E+00 0.739E+01   -.126E+01 0.239E+00 -.742E+01   0.109E+00 -.121E+00 0.276E-01   0.189E-03 -.476E-03 0.132E-03
   -.853E+00 0.995E-01 0.738E+01   0.845E+00 0.248E-01 -.738E+01   -.723E-02 -.115E+00 0.191E-02   0.826E-03 -.662E-03 -.481E-04
   0.394E+01 -.164E+01 0.660E+01   -.437E+01 0.200E+01 -.662E+01   0.406E+00 -.354E+00 0.198E-01   -.433E-03 -.212E-03 0.190E-03
   0.457E+01 -.568E+00 0.694E+01   -.472E+01 0.837E+00 -.695E+01   0.147E+00 -.266E+00 0.263E-02   0.535E-03 0.788E-03 0.328E-03
   0.240E+01 -.100E+02 0.787E+01   -.332E+01 0.109E+02 -.790E+01   0.917E+00 -.916E+00 0.293E-01   0.827E-03 -.648E-03 0.149E-03
   0.393E+01 -.336E+01 0.774E+01   -.401E+01 0.406E+01 -.777E+01   0.907E-01 -.703E+00 0.281E-01   0.261E-04 0.142E-02 -.370E-05
   -.741E+01 -.110E+02 0.744E+01   0.852E+01 0.118E+02 -.745E+01   -.109E+01 -.797E+00 0.835E-02   0.106E-02 -.192E-03 0.959E-04
   -.302E+01 -.322E+01 0.716E+01   0.307E+01 0.375E+01 -.718E+01   -.498E-01 -.518E+00 0.234E-01   0.973E-03 0.318E-03 -.461E-04
   -.161E+01 -.281E+01 0.762E+01   0.198E+01 0.294E+01 -.765E+01   -.356E+00 -.124E+00 0.256E-01   -.293E-03 0.173E-03 0.743E-03
   -.215E+01 -.163E+01 0.681E+01   0.225E+01 0.167E+01 -.683E+01   -.939E-01 -.261E-01 0.205E-01   -.322E-03 -.268E-03 0.719E-03
   0.373E+00 0.324E+01 0.685E+01   -.334E+00 -.322E+01 -.686E+01   -.316E-01 -.175E-01 0.672E-02   -.102E-02 0.217E-03 0.201E-03
   0.517E+00 0.348E+01 0.631E+01   -.480E+00 -.350E+01 -.634E+01   -.181E-01 0.188E-01 0.223E-01   -.832E-03 -.679E-03 -.104E-03
   0.222E+01 0.393E+01 0.843E+01   -.216E+01 -.378E+01 -.845E+01   -.582E-01 -.148E+00 0.176E-01   -.350E-03 0.453E-04 -.491E-03
   -.173E+01 0.799E+01 0.940E+01   0.223E+01 -.776E+01 -.948E+01   -.501E+00 -.235E+00 0.856E-01   0.231E-03 -.148E-02 -.622E-03
   0.137E+01 0.577E+01 0.740E+01   -.145E+01 -.529E+01 -.743E+01   0.703E-01 -.470E+00 0.219E-01   0.848E-03 0.519E-03 0.464E-03
   0.228E+01 0.719E+01 0.665E+01   -.228E+01 -.651E+01 -.626E+01   0.201E-02 -.704E+00 -.390E+00   0.406E-03 0.264E-03 0.638E-03
   -.192E+01 0.257E+01 0.817E+01   0.170E+01 -.226E+01 -.818E+01   0.218E+00 -.319E+00 0.108E-01   0.407E-03 -.282E-03 0.288E-03
   0.198E+01 0.642E+01 0.986E+01   -.250E+01 -.606E+01 -.997E+01   0.513E+00 -.346E+00 0.109E+00   0.452E-03 0.160E-02 0.282E-03
   -.193E+01 -.834E+00 0.784E+01   0.198E+01 0.110E+01 -.785E+01   -.379E-01 -.249E+00 0.121E-01   -.912E-03 0.358E-03 -.235E-03
   -.187E+01 0.212E+01 0.796E+01   0.183E+01 -.196E+01 -.798E+01   0.466E-01 -.135E+00 0.277E-01   0.133E-03 -.264E-04 -.395E-03
   -.440E+00 0.138E+00 0.599E+01   0.599E+00 -.158E-01 -.598E+01   -.165E+00 -.109E+00 -.192E-01   -.129E-02 -.603E-03 0.416E-03
   -.101E+01 0.170E+01 0.632E+01   0.104E+01 -.164E+01 -.635E+01   -.244E-01 -.583E-01 0.250E-01   -.109E-02 0.370E-03 0.679E-03
   0.202E+01 0.270E+01 0.555E+01   -.195E+01 -.274E+01 -.553E+01   -.619E-01 0.317E-01 -.159E-01   -.142E-02 -.838E-03 0.523E-03
   0.315E+01 0.532E+01 0.570E+01   -.317E+01 -.541E+01 -.574E+01   0.316E-01 0.869E-01 0.275E-01   -.193E-02 0.810E-04 0.381E-03
   0.423E+01 0.109E+02 0.625E+01   -.402E+01 -.111E+02 -.622E+01   -.192E+00 0.121E+00 -.416E-01   -.151E-02 -.971E-03 -.539E-03
   0.116E+02 0.892E+01 0.565E+01   -.113E+02 -.894E+01 -.577E+01   -.255E+00 0.129E-01 0.980E-01   -.115E-02 -.182E-03 0.453E-03
   -.783E+00 0.186E+02 0.122E+02   0.105E+01 -.177E+02 -.124E+02   -.286E+00 -.971E+00 0.233E+00   0.983E-03 -.142E-03 0.852E-04
   -.730E+01 0.359E+02 0.266E+02   0.136E+02 -.324E+02 -.257E+02   -.631E+01 -.352E+01 -.901E+00   -.136E-02 -.988E-03 -.362E-03
   0.838E+00 0.176E+02 0.121E+02   -.112E+01 -.167E+02 -.123E+02   0.294E+00 -.947E+00 0.246E+00   0.845E-03 0.150E-02 -.766E-04
   0.701E+01 0.371E+02 0.225E+02   -.132E+02 -.337E+02 -.215E+02   0.622E+01 -.344E+01 -.101E+01   0.148E-02 -.231E-02 -.236E-02
   -.418E+01 0.858E+01 0.733E+01   0.396E+01 -.853E+01 -.729E+01   0.231E+00 -.241E-01 -.325E-01   -.910E-03 0.233E-05 -.789E-03
   -.117E+02 0.631E+01 0.604E+01   0.115E+02 -.617E+01 -.615E+01   0.213E+00 -.135E+00 0.116E+00   -.344E-04 0.467E-03 -.165E-02
   -.222E+01 0.195E+01 0.677E+01   0.218E+01 -.192E+01 -.675E+01   0.414E-01 -.333E-01 -.204E-01   -.624E-04 -.563E-03 0.250E-03
   -.370E+01 0.416E+01 0.759E+01   0.361E+01 -.415E+01 -.764E+01   0.771E-01 -.104E-01 0.456E-01   -.293E-03 0.238E-03 0.635E-04
   0.770E+00 0.120E+01 0.674E+01   -.796E+00 -.123E+01 -.676E+01   0.305E-01 0.428E-01 0.234E-01   -.889E-03 -.184E-02 0.545E-03
   0.108E+01 0.506E-01 0.653E+01   -.124E+01 -.147E+00 -.655E+01   0.148E+00 0.931E-01 0.157E-01   -.877E-03 0.138E-02 0.361E-03
   0.645E+01 0.222E+01 0.356E+01   -.645E+01 -.243E+01 -.352E+01   0.675E-02 0.230E+00 -.522E-01   -.921E-03 -.125E-04 0.366E-03
   0.612E+01 0.313E+01 0.408E+01   -.658E+01 -.349E+01 -.406E+01   0.460E+00 0.357E+00 -.400E-01   -.144E-02 -.141E-04 0.141E-02
   0.241E+02 0.128E+02 0.141E+02   -.231E+02 -.136E+02 -.146E+02   -.967E+00 0.851E+00 0.534E+00   0.105E-02 -.997E-03 0.982E-04
   0.238E+02 0.116E+01 0.139E+02   -.227E+02 -.157E+01 -.143E+02   -.105E+01 0.385E+00 0.442E+00   0.123E-02 0.384E-03 -.377E-02
   -.269E+02 0.892E+01 0.127E+02   0.261E+02 -.941E+01 -.134E+02   0.799E+00 0.510E+00 0.636E+00   0.103E-02 0.165E-03 -.851E-03
   -.270E+02 -.847E+01 0.140E+02   0.263E+02 0.890E+01 -.146E+02   0.730E+00 -.450E+00 0.563E+00   -.328E-03 0.369E-03 0.216E-02
   -.516E+01 0.270E+00 0.605E+01   0.509E+01 -.255E+00 -.601E+01   0.630E-01 -.149E-01 -.339E-01   0.604E-04 -.593E-03 -.124E-02
   -.491E+01 -.582E+00 0.603E+01   0.482E+01 0.550E+00 -.600E+01   0.738E-01 0.103E-01 -.252E-01   -.509E-03 0.196E-03 -.127E-02
   -.266E+01 -.374E+01 0.738E+01   0.254E+01 0.373E+01 -.742E+01   0.114E+00 0.212E-02 0.423E-01   0.728E-03 -.408E-03 -.349E-03
   -.701E+00 -.371E+01 0.664E+01   0.525E+00 0.370E+01 -.662E+01   0.165E+00 0.667E-02 -.188E-01   -.154E-03 0.541E-03 0.387E-04
   0.724E+01 -.196E+01 0.546E+01   -.744E+01 0.181E+01 -.549E+01   0.190E+00 0.143E+00 0.158E-01   -.735E-03 -.584E-03 0.814E-03
   0.556E+01 -.360E+01 0.523E+01   -.609E+01 0.331E+01 -.521E+01   0.525E+00 0.270E+00 -.216E-01   -.107E-02 0.101E-02 0.423E-03
   0.187E+02 0.232E+01 0.846E+01   -.187E+02 -.391E+01 -.865E+01   -.653E-02 0.156E+01 0.195E+00   -.209E-03 0.898E-03 0.122E-02
   0.281E+02 0.431E+01 0.800E+01   -.333E+02 -.730E+01 -.800E+01   0.517E+01 0.300E+01 -.756E-02   -.479E-04 -.875E-04 0.905E-03
   -.138E+02 -.225E+02 0.139E+02   0.210E+02 0.173E+02 -.126E+02   -.723E+01 0.518E+01 -.127E+01   0.158E-02 -.215E-02 -.997E-02
   -.232E+02 -.655E+01 0.702E+01   0.285E+02 0.221E+01 -.672E+01   -.528E+01 0.434E+01 -.265E+00   0.116E-02 0.120E-02 -.583E-02
   0.352E+01 -.350E+02 0.294E+02   -.955E+01 0.314E+02 -.287E+02   0.608E+01 0.364E+01 -.735E+00   0.275E-02 0.225E-02 0.391E-02
   -.260E+01 -.187E+02 0.127E+02   0.280E+01 0.174E+02 -.130E+02   -.188E+00 0.126E+01 0.250E+00   0.914E-03 -.111E-02 0.260E-02
   -.126E+02 -.626E+01 0.661E+01   0.124E+02 0.615E+01 -.671E+01   0.174E+00 0.106E+00 0.930E-01   0.120E-02 0.131E-03 -.563E-03
   -.483E+01 -.106E+02 0.760E+01   0.469E+01 0.106E+02 -.758E+01   0.148E+00 -.201E-01 -.252E-01   0.756E-03 0.745E-04 -.226E-03
   -.145E+01 -.240E+01 0.783E+01   0.138E+01 0.246E+01 -.786E+01   0.588E-01 -.520E-01 0.291E-01   0.570E-03 0.618E-03 -.202E-03
   -.151E+01 -.464E+01 0.773E+01   0.152E+01 0.466E+01 -.774E+01   -.888E-02 -.164E-01 0.943E-02   0.112E-02 -.470E-03 -.144E-03
   0.215E+01 -.122E+01 0.627E+01   -.238E+01 0.128E+01 -.630E+01   0.224E+00 -.517E-01 0.267E-01   0.799E-03 0.673E-04 0.379E-03
   0.246E+01 -.318E+01 0.614E+01   -.266E+01 0.324E+01 -.613E+01   0.181E+00 -.667E-01 -.146E-01   0.567E-03 0.824E-03 0.330E-03
   0.129E+02 -.183E+01 0.641E+01   -.142E+02 0.225E+01 -.644E+01   0.132E+01 -.430E+00 0.204E-01   0.218E-04 0.129E-02 0.441E-03
   0.908E+01 -.759E+01 0.668E+01   -.981E+01 0.805E+01 -.669E+01   0.711E+00 -.457E+00 0.129E-01   0.169E-03 -.178E-03 0.152E-03
   -.337E+01 -.835E+01 0.142E+02   0.515E+01 0.749E+01 -.145E+02   -.181E+01 0.857E+00 0.368E+00   0.126E-02 0.192E-03 -.116E-02
   0.150E+01 -.318E+02 0.939E+01   -.131E+01 0.378E+02 -.945E+01   -.188E+00 -.601E+01 0.573E-01   -.761E-03 0.253E-03 0.119E-03
   -.102E+02 -.473E+01 0.587E+01   0.115E+02 0.442E+01 -.553E+01   -.129E+01 0.318E+00 -.335E+00   -.153E-03 -.110E-02 -.756E-03
   -.751E+01 -.109E+02 0.815E+01   0.823E+01 0.108E+02 -.818E+01   -.710E+00 0.930E-01 0.227E-01   -.394E-03 0.315E-03 0.136E-03
   -.646E-02 -.591E+01 0.969E+01   -.335E+00 0.567E+01 -.980E+01   0.342E+00 0.238E+00 0.102E+00   0.143E-03 -.879E-04 0.912E-03
   -.440E+01 -.582E+01 0.795E+01   0.449E+01 0.568E+01 -.796E+01   -.970E-01 0.152E+00 0.939E-02   0.101E-02 -.617E-03 0.285E-03
   0.134E+01 0.662E+01 -.623E+03   -.176E+01 -.681E+01 0.606E+03   0.433E+00 0.184E+00 0.176E+02   0.362E-01 -.561E-02 0.334E-02
 -----------------------------------------------------------------------------------------------
   0.664E+00 -.698E+00 -.172E+02   -.171E-12 0.226E-12 -.227E-12   -.713E+00 0.716E+00 0.171E+02   0.414E-01 -.805E-02 -.653E-02
 
 
 POSITION                                       TOTAL-FORCE (eV/Angst)
 -----------------------------------------------------------------------------------
     -7.42865     12.75874      7.46514        -0.002476      0.011267      0.002235
      0.00051      1.41944      7.46602         0.016321      0.015156      0.002814
      2.48248      0.02110      7.46296        -0.011175      0.003866     -0.001377
      2.48047      1.44299      7.47406        -0.014699      0.010446     -0.000622
      4.95571      0.01953      7.46589        -0.026398      0.003420     -0.001538
      4.95664      1.44178      7.47559        -0.009613      0.003981     -0.002595
      0.00368     12.74476      7.46588        -0.001932      0.011511     -0.002756
      7.43707      1.40775      7.46520         0.006776      0.002914     -0.001229
      2.47305     12.71532      7.47446         0.017641      0.007360      0.000050
      9.90377      1.37939      7.46368        -0.003933      0.007815     -0.002835
      4.95002     12.72483      7.47397         0.013310      0.003446     -0.002993
     12.37911      1.38483      7.46515         0.001968      0.008577     -0.005180
     13.61416      2.10296      7.46701         0.008208      0.004508     -0.000884
     -1.24866      3.53347      7.47740         0.018640      0.002205      0.000074
      1.23945      2.14386      7.47627         0.003560      0.010117      0.000553
      1.23808      3.57124      7.50246         0.001582     -0.003780      0.000002
      3.71896      2.16695      7.49032        -0.012526      0.010269     -0.002351
      3.71914      3.58679      7.53530        -0.006077     -0.007368      0.000006
      6.19789      2.13328      7.47652         0.002840     -0.002055     -0.003844
      6.19937      3.55807      7.50059        -0.008494      0.019565      0.002521
      8.67604      2.10175      7.46313         0.012903      0.011790      0.002497
      8.68073      3.52290      7.47100         0.005694      0.025920      0.003873
     11.14278      2.09213      7.46396        -0.006914      0.011088     -0.005689
     11.14467      3.51607      7.46534         0.003009      0.003076     -0.003593
     12.37772      4.23166      7.47358         0.011105     -0.011101     -0.001429
     -2.48553      5.66742      7.48067         0.009577      0.001657     -0.002499
     -0.01457      4.25134      7.50160         0.015683     -0.015919     -0.004144
     -0.03786      5.66847      7.52587        -0.013790     -0.013808     -0.012173
      2.47601      4.31498      7.55007        -0.004860     -0.015987      0.003047
      2.43376      5.73009      7.63802        -0.010952     -0.021246     -0.002729
      4.96300      4.30012      7.55104        -0.004381     -0.012060      0.004824
      5.00728      5.71335      7.64822         0.012864     -0.013690     -0.008884
      7.44943      4.23970      7.49685         0.010502      0.011984      0.004794
      7.47343      5.65718      7.52270         0.004608     -0.002580      0.009754
      9.91393      4.23145      7.46837         0.006489     -0.008924     -0.000159
      9.92084      5.65605      7.47377        -0.014671      0.000863     -0.000001
     -3.71126      6.38110      7.47289         0.004033      0.004577      0.000276
     -3.71126      7.80232      7.47334        -0.014502     -0.000101     -0.001576
     -1.26385      6.38420      7.50492         0.008677      0.016827     -0.012730
     -1.26406      7.80913      7.50314        -0.011728     -0.008071     -0.016759
      1.18265      6.37740      7.57692         0.000735     -0.007214      0.008845
      1.17847      7.80852      7.57914        -0.004316     -0.016398      0.024961
      6.25238      6.36445      7.58040         0.006304      0.012343      0.004301
      6.25046      7.80130      7.57630         0.014403     -0.008886     -0.009533
      8.70096      6.37119      7.49588        -0.011395     -0.001435      0.006378
      8.70017      7.79400      7.49560        -0.010100     -0.019968      0.008945
     -4.93770      8.51722      7.47419        -0.005657     -0.008905      0.004426
     -4.94289      9.94014      7.46859        -0.010645      0.000264      0.000308
     -2.48381      8.51726      7.48100        -0.018211     -0.000881     -0.011912
     -2.47239      9.93777      7.47420        -0.010863     -0.013581     -0.006563
     -0.03027      8.52390      7.51986        -0.007987     -0.017826      0.001812
     -0.00456      9.93852      7.49713         0.015875      0.015035     -0.001503
      2.41619      8.47017      7.66274        -0.013059      0.005205      0.024788
      2.45441      9.87048      7.56316         0.022318     -0.001692      0.029030
      5.00028      8.44909      7.63429         0.032155     -0.003595     -0.027634
      4.94504      9.86005      7.54911        -0.001220      0.012653     -0.009999
      7.47132      8.50754      7.52044        -0.018469     -0.003458      0.002998
      7.44323      9.92368      7.49555         0.010923     -0.010684     -0.001065
     -6.17952     10.64829      7.47088        -0.010118      0.007209      0.002192
     -6.18398     12.06641      7.46309        -0.000868     -0.000909      0.002125
     -3.70720     10.65204      7.46549        -0.001848      0.002834     -0.002248
     -3.71128     12.07203      7.46366        -0.016102     -0.008984     -0.002540
     -1.23494     10.64953      7.47688        -0.006991     -0.006671     -0.007659
     -1.24377     12.06686      7.46750        -0.024226     -0.005126     -0.003556
      1.22912     10.61364      7.49949        -0.023489      0.000686      0.009237
      1.23623     12.02044      7.47552         0.008405     -0.017262      0.001191
      3.70061     10.58834      7.53828         0.021942      0.000585      0.003561
      3.71548     12.00213      7.48947         0.010327      0.019900      0.001492
      6.18833     10.60288      7.50021        -0.000996     -0.009141     -0.007786
      6.19116     12.02487      7.47664        -0.002543      0.011840     -0.005517
      3.73332      7.08840      8.31591         0.038848     -0.013454      0.024170
 -----------------------------------------------------------------------------------
    total drift:                               -0.007221      0.010221     -0.028723


--------------------------------------------------------------------------------------------------------



  FREE ENERGIE OF THE ION-ELECTRON SYSTEM (eV)
  ---------------------------------------------------
  free  energy   TOTEN  =      -653.49317235 eV

  energy  without entropy=     -653.46293324  energy(sigma->0) =     -653.47805280
 
 d Force = 0.6453236E-03[ 0.433E-03, 0.857E-03]  d Energy = 0.6100783E-03 0.352E-04
 d Force = 0.4134183E+00[ 0.418E+00, 0.409E+00]  d Ewald  = 0.5710010E+01-0.530E+01


--------------------------------------------------------------------------------------------------------


    POTLOK:  cpu time    0.7269: real time    0.7298


--------------------------------------------------------------------------------------------------------


 Conjugate gradient step on ions:
 trial-energy change:   -0.000610  1 .order   -0.000649   -0.000883   -0.000416
  (g-gl).g = 0.147E-02      g.g   = 0.162E-02  gl.gl    = 0.134E-02
 g(Force)  = 0.158E-02   g(Stress)= 0.391E-04 ortho     =-0.340E-04
 gamma     =   1.09671
 trial     =   0.55951
 opt step  =   1.05767  (harmonic =   1.05767) maximal distance =0.00725635
 next E    =  -653.493397   (d E  =  -0.00083)


--------------------------------------------------------------------------------------------------------


  
 reached required accuracy - stopping structural energy minimisation
     LOOP+:  cpu time  107.1033: real time  107.9656
    4ORBIT:  cpu time    0.0000: real time    0.0000

 total amount of memory used by VASP MPI-rank0   135397. kBytes
=======================================================================

   base      :      30000. kBytes
   nonlr-proj:      10408. kBytes
   fftplans  :      14072. kBytes
   grid      :      39398. kBytes
   one-center:        186. kBytes
   wavefun   :      41333. kBytes
 
  
  
 General timing and accounting informations for this job:
 ========================================================
  
                  Total CPU time used (sec):     3888.354
                            User time (sec):     3852.310
                          System time (sec):       36.044
                         Elapsed time (sec):     3926.902
  
                   Maximum memory used (kb):      641588.
                   Average memory used (kb):           0.
  
                          Minor page faults:      7094847
                          Major page faults:           33
                 Voluntary context switches:        31285
