       N       E                     dE             d eps       ncg     rms          ort
DAV:   1     0.262688018910E+04    0.26269E+04   -0.99523E+04   688   0.111E+03
DAV:   2     0.166652095553E+03   -0.24602E+04   -0.23490E+04   688   0.265E+02
DAV:   3    -0.488003369914E+03   -0.65466E+03   -0.64873E+03   688   0.148E+02
DAV:   4    -0.520199170828E+03   -0.32196E+02   -0.31334E+02   688   0.449E+01
DAV:   5    -0.521575419618E+03   -0.13762E+01   -0.13602E+01   688   0.853E+00
SDA:   6    -0.429010543715E+03    0.92565E+02   -0.13602E+01   688   0.268E+03 0.000E+00
CGA:   7    -0.455448322684E+03   -0.26438E+02   -0.35407E+02   688   0.718E+02 0.463E+02
CGA:   8    -0.472713298753E+03   -0.17265E+02   -0.11441E+02   688   0.416E+02-0.384E+02
CGA:   9    -0.476081261151E+03   -0.33680E+01   -0.25097E+01   688   0.329E+02 0.142E+02
CGA:  10    -0.478904196607E+03   -0.28229E+01   -0.17553E+01   688   0.110E+02 0.290E+02
CGA:  11    -0.479522116149E+03   -0.61792E+00   -0.20896E+00   688   0.212E+02 0.239E+02
CGA:  12    -0.481408743299E+03   -0.18866E+01   -0.60197E+00   688   0.129E+02 0.312E+02
CGA:  13    -0.481783142180E+03   -0.37440E+00   -0.29386E+00   688   0.315E+01 0.211E+01
CGA:  14    -0.482257890832E+03   -0.47475E+00   -0.47485E+00   688   0.208E+02-0.986E-02
CGA:  15    -0.482836588976E+03   -0.57870E+00   -0.65227E+00   688   0.197E+02-0.569E+01
CGA:  16    -0.482499256687E+03    0.33733E+00   -0.26783E+00   688   0.331E+02-0.452E+02
CGA:  17    -0.482600556474E+03   -0.10130E+00   -0.10017E+01   688   0.433E+02-0.393E+02
CGA:  18    -0.481332546175E+03    0.12680E+01   -0.21941E+01   688   0.640E+02-0.296E+02
CGA:  19    -0.480785584116E+03    0.54696E+00   -0.24146E+01   688   0.142E+03-0.122E+03
CGA:  20    -0.478863078899E+03    0.19225E+01   -0.75360E+01   688   0.119E+03-0.573E+02
CGA:  21    -0.480041871439E+03   -0.11788E+01   -0.35419E+01   688   0.108E+03-0.542E+02
CGA:  22    -0.482352831794E+03   -0.23110E+01   -0.19266E+01   688   0.763E+02-0.102E+03
CGA:  23    -0.481577721248E+03    0.77511E+00   -0.35815E+01   688   0.543E+02-0.382E+02
CGA:  24    -0.483479645008E+03   -0.19019E+01   -0.15504E+01   688   0.112E+02-0.292E+02
CGA:  25    -0.483702011090E+03   -0.22237E+00   -0.24843E+00   688   0.589E+00-0.174E+01
CGA:  26    -0.483723708787E+03   -0.21698E-01   -0.23852E-01   688   0.522E+00-0.252E-01
CGA:  27    -0.483817070678E+03   -0.93362E-01   -0.88885E-01   688   0.152E+01 0.661E-01
CGA:  28    -0.483933630942E+03   -0.11656E+00   -0.10369E+00   688   0.414E+00 0.226E-01
CGA:  29    -0.483968591535E+03   -0.34961E-01   -0.37601E-01   688   0.133E+00 0.755E-01
CGA:  30    -0.483987709693E+03   -0.19118E-01   -0.18955E-01   688   0.281E+00 0.567E-02
CGA:  31    -0.484047981728E+03   -0.60272E-01   -0.71028E-01   688   0.503E+00-0.894E-01
CGA:  32    -0.484068262729E+03   -0.20281E-01   -0.23346E-01   688   0.226E+00-0.437E-02
CGA:  33    -0.484106512836E+03   -0.38250E-01   -0.34857E-01   688   0.427E+00 0.528E-01
CGA:  34    -0.484146460629E+03   -0.39948E-01   -0.38170E-01   688   0.206E+00-0.185E-03
CGA:  35    -0.484169059281E+03   -0.22599E-01   -0.22551E-01   688   0.188E+00 0.246E-01
CGA:  36    -0.484198842684E+03   -0.29783E-01   -0.28911E-01   688   0.159E+00 0.199E-01
CGA:  37    -0.484262179553E+03   -0.63337E-01   -0.55949E-01   688   0.224E+00 0.139E-01
CGA:  38    -0.484281139323E+03   -0.18960E-01   -0.16641E-01   688   0.231E+00 0.129E-01
CGA:  39    -0.484296079585E+03   -0.14940E-01   -0.15088E-01   688   0.318E+00 0.889E-02
CGA:  40    -0.484314193687E+03   -0.18114E-01   -0.15771E-01   688   0.268E+00 0.375E-01
CGA:  41    -0.484325556485E+03   -0.11363E-01   -0.10508E-01   688   0.164E+00 0.198E-01
CGA:  42    -0.484333716509E+03   -0.81600E-02   -0.83238E-02   688   0.198E+00-0.211E-02
CGA:  43    -0.484345072926E+03   -0.11356E-01   -0.10474E-01   688   0.245E+00 0.111E-01
CGA:  44    -0.484352986799E+03   -0.79139E-02   -0.60764E-02   688   0.178E+00 0.686E-01
CGA:  45    -0.484360034245E+03   -0.70474E-02   -0.68169E-02   688   0.147E+00 0.460E-02
CGA:  46    -0.484365096016E+03   -0.50618E-02   -0.48082E-02   688   0.182E+00 0.602E-02
CGA:  47    -0.484370463142E+03   -0.53671E-02   -0.43776E-02   688   0.200E+00 0.370E-01
CGA:  48    -0.484376486629E+03   -0.60235E-02   -0.51120E-02   688   0.199E+00 0.380E-01
CGA:  49    -0.484382092630E+03   -0.56060E-02   -0.54938E-02   688   0.197E+00 0.598E-02
CGA:  50    -0.484386622829E+03   -0.45302E-02   -0.50209E-02   688   0.186E+00-0.150E-01
   1 F= -.48792454E+03 E0= -.48789680E+03  d E =-.487925E+03  mag=     2.0002
       N       E                     dE             d eps       ncg     rms          ort
SDA:   1    -0.478385493489E+03    0.59966E+01    0.00000E+00   688   0.147E+02 0.000E+00
CGA:   2    -0.481532170691E+03   -0.31467E+01   -0.29069E+01   688   0.117E+02 0.210E+01
CGA:   3    -0.483015334019E+03   -0.14832E+01   -0.15223E+01   688   0.603E+01-0.254E+00
CGA:   4    -0.483830582728E+03   -0.81525E+00   -0.10396E+01   688   0.368E+01-0.219E+01
CGA:   5    -0.484023824496E+03   -0.19324E+00   -0.19246E+00   688   0.142E+01-0.527E-01
CGA:   6    -0.484143404450E+03   -0.11958E+00   -0.11903E+00   688   0.443E+00-0.763E-01
CGA:   7    -0.484201635886E+03   -0.58231E-01   -0.57741E-01   688   0.404E+00 0.876E-02
CGA:   8    -0.484249283592E+03   -0.47648E-01   -0.47611E-01   688   0.142E+00 0.139E-02
CGA:   9    -0.484273825304E+03   -0.24542E-01   -0.23876E-01   688   0.903E-01 0.820E-02
CGA:  10    -0.484282752097E+03   -0.89268E-02   -0.89356E-02   688   0.479E-01 0.192E-02
CGA:  11    -0.484294236451E+03   -0.11484E-01   -0.11463E-01   688   0.142E-01 0.164E-03
CGA:  12    -0.484296690173E+03   -0.24537E-02   -0.24593E-02   688   0.192E-01-0.689E-04
CGA:  13    -0.484299010445E+03   -0.23203E-02   -0.23190E-02   688   0.387E-02 0.643E-04
CGA:  14    -0.484300139265E+03   -0.11288E-02   -0.11293E-02   688   0.397E-02-0.272E-05
CGA:  15    -0.484300515802E+03   -0.37654E-03   -0.37615E-03   688   0.187E-02-0.407E-05
CGA:  16    -0.484300925317E+03   -0.40951E-03   -0.40930E-03   688   0.106E-02 0.204E-05
CGA:  17    -0.484301108826E+03   -0.18351E-03   -0.18382E-03   688   0.773E-03-0.538E-05
CGA:  18    -0.484301217796E+03   -0.10897E-03   -0.10898E-03   688   0.550E-03-0.595E-06
CGA:  19    -0.484301291255E+03   -0.73459E-04   -0.73463E-04   688   0.276E-03 0.321E-06
   2 F= -.48784010E+03 E0= -.48781270E+03  d E =0.844440E-01  mag=     2.0009
       N       E                     dE             d eps       ncg     rms          ort
SDA:   1    -0.483778626814E+03    0.52259E+00    0.00000E+00   688   0.217E+01 0.000E+00
CGA:   2    -0.483997307095E+03   -0.21868E+00   -0.22131E+00   688   0.138E+01 0.149E-01
CGA:   3    -0.484293373831E+03   -0.29607E+00   -0.30412E+00   688   0.403E+00-0.763E-01
CGA:   4    -0.484358154851E+03   -0.64781E-01   -0.65019E-01   688   0.200E+00-0.457E-02
CGA:   5    -0.484375850131E+03   -0.17695E-01   -0.17574E-01   688   0.421E-01-0.503E-04
CGA:   6    -0.484385208488E+03   -0.93584E-02   -0.93566E-02   688   0.157E-01 0.182E-04
CGA:   7    -0.484387345246E+03   -0.21368E-02   -0.21368E-02   688   0.127E-01 0.185E-05
CGA:   8    -0.484389293061E+03   -0.19478E-02   -0.19485E-02   688   0.398E-02-0.238E-04
CGA:   9    -0.484390199228E+03   -0.90617E-03   -0.91170E-03   688   0.373E-02-0.545E-04
CGA:  10    -0.484390629782E+03   -0.43055E-03   -0.43063E-03   688   0.153E-02-0.114E-05
CGA:  11    -0.484390926560E+03   -0.29678E-03   -0.29635E-03   688   0.992E-03 0.640E-05
CGA:  12    -0.484391075872E+03   -0.14931E-03   -0.14929E-03   688   0.452E-03 0.299E-05
CGA:  13    -0.484391147367E+03   -0.71495E-04   -0.71531E-04   688   0.368E-03-0.192E-05
   3 F= -.48792978E+03 E0= -.48790233E+03  d E =-.523491E-02  mag=     2.0010
       N       E                     dE             d eps       ncg     rms          ort
SDA:   1    -0.484261127626E+03    0.12995E+00    0.00000E+00   688   0.572E+00 0.000E+00
CGA:   2    -0.484317790361E+03   -0.56663E-01   -0.56931E-01   688   0.385E+00-0.610E-03
CGA:   3    -0.484395456165E+03   -0.77666E-01   -0.78182E-01   688   0.112E+00-0.659E-02
CGA:   4    -0.484414632287E+03   -0.19176E-01   -0.19271E-01   688   0.416E-01-0.212E-02
CGA:   5    -0.484419255530E+03   -0.46232E-02   -0.45789E-02   688   0.152E-01-0.232E-03
CGA:   6    -0.484421158900E+03   -0.19034E-02   -0.19030E-02   688   0.677E-02-0.476E-05
CGA:   7    -0.484422260067E+03   -0.11012E-02   -0.11015E-02   688   0.247E-02-0.145E-04
CGA:   8    -0.484422766414E+03   -0.50635E-03   -0.50702E-03   688   0.224E-02-0.844E-05
CGA:   9    -0.484423004952E+03   -0.23854E-03   -0.23805E-03   688   0.849E-03 0.103E-05
CGA:  10    -0.484423237200E+03   -0.23225E-03   -0.23250E-03   688   0.409E-03-0.198E-05
CGA:  11    -0.484423299856E+03   -0.62656E-04   -0.62657E-04   688   0.436E-03-0.460E-06
   4 F= -.48796180E+03 E0= -.48793434E+03  d E =-.372604E-01  mag=     2.0009
       N       E                     dE             d eps       ncg     rms          ort
SDA:   1    -0.484026517904E+03    0.39672E+00    0.00000E+00   688   0.152E+01 0.000E+00
CGA:   2    -0.484176863100E+03   -0.15035E+00   -0.15280E+00   688   0.101E+01-0.791E-02
CGA:   3    -0.484381916853E+03   -0.20505E+00   -0.20781E+00   688   0.301E+00-0.364E-01
CGA:   4    -0.484430705634E+03   -0.48789E-01   -0.48934E-01   688   0.133E+00-0.559E-02
CGA:   5    -0.484443414743E+03   -0.12709E-01   -0.12436E-01   688   0.381E-01 0.476E-03
CGA:   6    -0.484449444171E+03   -0.60294E-02   -0.60287E-02   688   0.158E-01 0.650E-04
CGA:   7    -0.484452132217E+03   -0.26880E-02   -0.26885E-02   688   0.778E-02-0.160E-04
CGA:   8    -0.484453195990E+03   -0.10638E-02   -0.10638E-02   688   0.595E-02 0.834E-06
CGA:   9    -0.484454062593E+03   -0.86660E-03   -0.86644E-03   688   0.199E-02-0.955E-05
CGA:  10    -0.484454607466E+03   -0.54487E-03   -0.54590E-03   688   0.157E-02-0.813E-05
CGA:  11    -0.484454766480E+03   -0.15901E-03   -0.15870E-03   688   0.820E-03 0.421E-06
CGA:  12    -0.484454960265E+03   -0.19379E-03   -0.19403E-03   688   0.300E-03-0.239E-05
CGA:  13    -0.484455013437E+03   -0.53172E-04   -0.53200E-04   688   0.342E-03-0.142E-05
   5 F= -.48799326E+03 E0= -.48796576E+03  d E =-.687153E-01  mag=     2.0009
       N       E                     dE             d eps       ncg     rms          ort
SDA:   1    -0.484354543266E+03    0.10042E+00    0.00000E+00   688   0.376E+00 0.000E+00
CGA:   2    -0.484391398896E+03   -0.36856E-01   -0.36952E-01   688   0.262E+00-0.694E-03
CGA:   3    -0.484441531950E+03   -0.50133E-01   -0.50256E-01   688   0.828E-01-0.224E-02
CGA:   4    -0.484455246379E+03   -0.13714E-01   -0.13740E-01   688   0.261E-01-0.137E-02
CGA:   5    -0.484458727134E+03   -0.34808E-02   -0.34738E-02   688   0.112E-01-0.101E-03
CGA:   6    -0.484459853830E+03   -0.11267E-02   -0.11265E-02   688   0.448E-02 0.466E-06
CGA:   7    -0.484460653176E+03   -0.79935E-03   -0.79960E-03   688   0.163E-02-0.792E-05
CGA:   8    -0.484460997196E+03   -0.34402E-03   -0.34449E-03   688   0.150E-02-0.600E-05
CGA:   9    -0.484461147133E+03   -0.14994E-03   -0.14973E-03   688   0.578E-03 0.224E-05
CGA:  10    -0.484461308426E+03   -0.16129E-03   -0.16145E-03   688   0.268E-03-0.126E-05
CGA:  11    -0.484461349251E+03   -0.40825E-04   -0.40823E-04   688   0.304E-03-0.167E-06
   6 F= -.48799944E+03 E0= -.48797194E+03  d E =-.748971E-01  mag=     2.0009
       N       E                     dE             d eps       ncg     rms          ort
SDA:   1    -0.484443643249E+03    0.17665E-01    0.00000E+00   688   0.650E-01 0.000E+00
CGA:   2    -0.484450046748E+03   -0.64035E-02   -0.63961E-02   688   0.466E-01-0.203E-06
CGA:   3    -0.484458426443E+03   -0.83797E-02   -0.83818E-02   688   0.158E-01-0.558E-04
CGA:   4    -0.484461062905E+03   -0.26365E-02   -0.26381E-02   688   0.418E-02-0.113E-03
CGA:   5    -0.484461732704E+03   -0.66980E-03   -0.66977E-03   688   0.147E-02 0.777E-05
CGA:   6    -0.484461900092E+03   -0.16739E-03   -0.16742E-03   688   0.955E-03-0.853E-06
CGA:   7    -0.484462033087E+03   -0.13299E-03   -0.13297E-03   688   0.314E-03-0.143E-05
CGA:   8    -0.484462113769E+03   -0.80683E-04   -0.80630E-04   688   0.143E-03 0.603E-06
   7 F= -.48800013E+03 E0= -.48797263E+03  d E =-.755927E-01  mag=     2.0009
       N       E                     dE             d eps       ncg     rms          ort
SDA:   1    -0.484285173736E+03    0.17686E+00    0.00000E+00   688   0.433E+00 0.000E+00
CGA:   2    -0.484422604554E+03   -0.13743E+00   -0.13738E+00   688   0.148E+00 0.323E-03
CGA:   3    -0.484457055066E+03   -0.34451E-01   -0.34443E-01   688   0.544E-01 0.948E-04
CGA:   4    -0.484462866008E+03   -0.58109E-02   -0.58007E-02   688   0.281E-01 0.460E-05
CGA:   5    -0.484466061186E+03   -0.31952E-02   -0.31847E-02   688   0.724E-02-0.163E-05
CGA:   6    -0.484467273459E+03   -0.12123E-02   -0.12123E-02   688   0.221E-02-0.244E-04
CGA:   7    -0.484467708492E+03   -0.43503E-03   -0.43504E-03   688   0.186E-02 0.107E-05
CGA:   8    -0.484467888308E+03   -0.17982E-03   -0.17992E-03   688   0.707E-03 0.742E-06
CGA:   9    -0.484468073415E+03   -0.18511E-03   -0.18505E-03   688   0.366E-03 0.445E-06
CGA:  10    -0.484468147797E+03   -0.74382E-04   -0.74341E-04   688   0.430E-03 0.129E-05
   8 F= -.48800574E+03 E0= -.48797833E+03  d E =-.560945E-02  mag=     2.0007
       N       E                     dE             d eps       ncg     rms          ort
SDA:   1    -0.484449374979E+03    0.18698E-01    0.00000E+00   688   0.491E-01 0.000E+00
CGA:   2    -0.484464682243E+03   -0.15307E-01   -0.15309E-01   688   0.194E-01-0.127E-04
CGA:   3    -0.484467966929E+03   -0.32847E-02   -0.32841E-02   688   0.149E-01-0.422E-04
CGA:   4    -0.484469253807E+03   -0.12869E-02   -0.12927E-02   688   0.336E-02-0.370E-04
CGA:   5    -0.484469787923E+03   -0.53412E-03   -0.53401E-03   688   0.938E-03-0.490E-05
CGA:   6    -0.484469947599E+03   -0.15968E-03   -0.15967E-03   688   0.260E-03 0.409E-05
CGA:   7    -0.484469983347E+03   -0.35747E-04   -0.35747E-04   688   0.237E-03 0.105E-06
   9 F= -.48800773E+03 E0= -.48798028E+03  d E =-.759184E-02  mag=     2.0008
       N       E                     dE             d eps       ncg     rms          ort
SDA:   1    -0.484365840634E+03    0.10411E+00    0.00000E+00   688   0.255E+00 0.000E+00
CGA:   2    -0.484441591931E+03   -0.75751E-01   -0.75768E-01   688   0.179E+00-0.117E-03
CGA:   3    -0.484457787217E+03   -0.16195E-01   -0.16195E-01   688   0.822E-01-0.228E-03
CGA:   4    -0.484469452112E+03   -0.11665E-01   -0.11671E-01   688   0.175E-01 0.542E-04
CGA:   5    -0.484472324343E+03   -0.28722E-02   -0.28729E-02   688   0.567E-02 0.109E-03
CGA:   6    -0.484473182935E+03   -0.85859E-03   -0.85899E-03   688   0.368E-02 0.974E-05
CGA:   7    -0.484473519005E+03   -0.33607E-03   -0.33647E-03   688   0.911E-03-0.202E-06
CGA:   8    -0.484473763450E+03   -0.24444E-03   -0.24408E-03   688   0.369E-03 0.338E-05
CGA:   9    -0.484473831280E+03   -0.67830E-04   -0.67822E-04   688   0.475E-03 0.422E-06
  10 F= -.48801164E+03 E0= -.48798420E+03  d E =-.391647E-02  mag=     2.0007
       N       E                     dE             d eps       ncg     rms          ort
SDA:   1    -0.484469580035E+03    0.41834E-02    0.00000E+00   688   0.110E-01 0.000E+00
CGA:   2    -0.484472700478E+03   -0.31204E-02   -0.31215E-02   688   0.105E-01-0.859E-05
CGA:   3    -0.484473518160E+03   -0.81768E-03   -0.82184E-03   688   0.303E-02-0.329E-04
CGA:   4    -0.484474086637E+03   -0.56848E-03   -0.56841E-03   688   0.613E-03 0.351E-05
CGA:   5    -0.484474196399E+03   -0.10976E-03   -0.10978E-03   688   0.239E-03-0.215E-05
CGA:   6    -0.484474217635E+03   -0.21236E-04   -0.21207E-04   688   0.928E-04 0.494E-07
  11 F= -.48801202E+03 E0= -.48798457E+03  d E =-.428989E-02  mag=     2.0007
       N       E                     dE             d eps       ncg     rms          ort
SDA:   1    -0.484392522357E+03    0.81674E-01    0.00000E+00   688   0.202E+00 0.000E+00
CGA:   2    -0.484452617559E+03   -0.60095E-01   -0.60096E-01   688   0.139E+00-0.619E-05
CGA:   3    -0.484465383152E+03   -0.12766E-01   -0.12813E-01   688   0.659E-01-0.344E-03
CGA:   4    -0.484474168541E+03   -0.87854E-02   -0.87910E-02   688   0.156E-01 0.297E-04
CGA:   5    -0.484476666098E+03   -0.24976E-02   -0.24986E-02   688   0.408E-02 0.102E-03
CGA:   6    -0.484477414047E+03   -0.74795E-03   -0.74789E-03   688   0.295E-02 0.157E-06
CGA:   7    -0.484477661517E+03   -0.24747E-03   -0.24743E-03   688   0.741E-03-0.947E-06
CGA:   8    -0.484477875257E+03   -0.21374E-03   -0.21342E-03   688   0.299E-03 0.247E-05
CGA:   9    -0.484477936407E+03   -0.61150E-04   -0.61117E-04   688   0.403E-03 0.768E-06
  12 F= -.48801591E+03 E0= -.48798845E+03  d E =-.389059E-02  mag=     2.0007
       N       E                     dE             d eps       ncg     rms          ort
SDA:   1    -0.484477271718E+03    0.60354E-03    0.00000E+00   688   0.193E-02 0.000E+00
CGA:   2    -0.484477771328E+03   -0.49961E-03   -0.49911E-03   688   0.114E-02 0.497E-05
CGA:   3    -0.484477962931E+03   -0.19160E-03   -0.19158E-03   688   0.420E-03-0.367E-05
CGA:   4    -0.484478006075E+03   -0.43143E-04   -0.43141E-04   688   0.236E-03 0.509E-06
  13 F= -.48801599E+03 E0= -.48798854E+03  d E =-.397549E-02  mag=     2.0007
       N       E                     dE             d eps       ncg     rms          ort
SDA:   1    -0.484429035095E+03    0.48928E-01    0.00000E+00   688   0.124E+00 0.000E+00
CGA:   2    -0.484468288411E+03   -0.39253E-01   -0.39189E-01   688   0.496E-01 0.415E-03
CGA:   3    -0.484477404720E+03   -0.91163E-02   -0.91251E-02   688   0.201E-01-0.522E-03
CGA:   4    -0.484479647458E+03   -0.22427E-02   -0.22326E-02   688   0.104E-01 0.106E-04
CGA:   5    -0.484480681799E+03   -0.10343E-02   -0.10335E-02   688   0.224E-02 0.463E-05
CGA:   6    -0.484481177987E+03   -0.49619E-03   -0.49642E-03   688   0.617E-03-0.377E-05
CGA:   7    -0.484481305299E+03   -0.12731E-03   -0.12733E-03   688   0.722E-03-0.392E-06
CGA:   8    -0.484481375193E+03   -0.69895E-04   -0.69855E-04   688   0.210E-03 0.764E-06
  14 F= -.48801931E+03 E0= -.48799185E+03  d E =-.331382E-02  mag=     2.0007
       N       E                     dE             d eps       ncg     rms          ort
SDA:   1    -0.484374096906E+03    0.10721E+00    0.00000E+00   688   0.261E+00 0.000E+00
CGA:   2    -0.484455747438E+03   -0.81651E-01   -0.81416E-01   688   0.107E+00 0.157E-02
CGA:   3    -0.484474724586E+03   -0.18977E-01   -0.18965E-01   688   0.437E-01-0.147E-02
CGA:   4    -0.484479481590E+03   -0.47570E-02   -0.47195E-02   688   0.230E-01 0.727E-04
CGA:   5    -0.484481910903E+03   -0.24293E-02   -0.24260E-02   688   0.462E-02 0.105E-04
CGA:   6    -0.484482985479E+03   -0.10746E-02   -0.10751E-02   688   0.131E-02-0.729E-05
CGA:   7    -0.484483247844E+03   -0.26237E-03   -0.26240E-03   688   0.155E-02-0.924E-06
CGA:   8    -0.484483401774E+03   -0.15393E-03   -0.15376E-03   688   0.451E-03 0.147E-05
CGA:   9    -0.484483516833E+03   -0.11506E-03   -0.11526E-03   688   0.282E-03-0.224E-05
CGA:  10    -0.484483576425E+03   -0.59592E-04   -0.59549E-04   688   0.200E-03 0.121E-05
  15 F= -.48802142E+03 E0= -.48799397E+03  d E =-.542858E-02  mag=     2.0007
       N       E                     dE             d eps       ncg     rms          ort
SDA:   1    -0.484450778992E+03    0.32738E-01    0.00000E+00   688   0.850E-01 0.000E+00
CGA:   2    -0.484477125632E+03   -0.26347E-01   -0.26331E-01   688   0.441E-01 0.105E-03
CGA:   3    -0.484481862218E+03   -0.47366E-02   -0.47938E-02   688   0.273E-01-0.155E-03
CGA:   4    -0.484484956395E+03   -0.30942E-02   -0.30958E-02   688   0.573E-02-0.833E-05
CGA:   5    -0.484485904558E+03   -0.94816E-03   -0.94846E-03   688   0.151E-02 0.160E-04
CGA:   6    -0.484486234274E+03   -0.32972E-03   -0.32987E-03   688   0.730E-03-0.321E-05
CGA:   7    -0.484486304778E+03   -0.70503E-04   -0.70550E-04   688   0.435E-03-0.135E-05
  16 F= -.48802405E+03 E0= -.48799660E+03  d E =-.262803E-02  mag=     2.0007
       N       E                     dE             d eps       ncg     rms          ort
SDA:   1    -0.484359804591E+03    0.12643E+00    0.00000E+00   688   0.306E+00 0.000E+00
CGA:   2    -0.484456564675E+03   -0.96760E-01   -0.96597E-01   688   0.132E+00 0.108E-02
CGA:   3    -0.484475119461E+03   -0.18555E-01   -0.18648E-01   688   0.896E-01 0.471E-03
CGA:   4    -0.484483352261E+03   -0.82328E-02   -0.82177E-02   688   0.218E-01 0.369E-04
CGA:   5    -0.484486919295E+03   -0.35670E-02   -0.35689E-02   688   0.541E-02 0.748E-04
CGA:   6    -0.484488151227E+03   -0.12319E-02   -0.12338E-02   688   0.156E-02-0.279E-04
CGA:   7    -0.484488584682E+03   -0.43345E-03   -0.43360E-03   688   0.905E-03-0.124E-05
CGA:   8    -0.484488707225E+03   -0.12254E-03   -0.12258E-03   688   0.856E-03-0.292E-06
CGA:   9    -0.484488824372E+03   -0.11715E-03   -0.11712E-03   688   0.334E-03-0.122E-05
CGA:  10    -0.484488903681E+03   -0.79309E-04   -0.79223E-04   688   0.132E-03 0.134E-05
  17 F= -.48802645E+03 E0= -.48799903E+03  d E =-.502929E-02  mag=     2.0007
       N       E                     dE             d eps       ncg     rms          ort
SDA:   1    -0.484472729994E+03    0.16094E-01    0.00000E+00   688   0.439E-01 0.000E+00
CGA:   2    -0.484486083020E+03   -0.13353E-01   -0.13347E-01   688   0.240E-01 0.432E-04
CGA:   3    -0.484488523083E+03   -0.24401E-02   -0.24686E-02   688   0.134E-01-0.127E-03
CGA:   4    -0.484490102386E+03   -0.15793E-02   -0.15800E-02   688   0.323E-02-0.612E-05
CGA:   5    -0.484490624713E+03   -0.52233E-03   -0.52264E-03   688   0.729E-03 0.742E-05
CGA:   6    -0.484490788634E+03   -0.16392E-03   -0.16393E-03   688   0.410E-03-0.355E-06
CGA:   7    -0.484490824969E+03   -0.36335E-04   -0.36361E-04   688   0.193E-03-0.743E-06
  18 F= -.48802835E+03 E0= -.48800093E+03  d E =-.189528E-02  mag=     2.0006
       N       E                     dE             d eps       ncg     rms          ort
SDA:   1    -0.484331207137E+03    0.15958E+00    0.00000E+00   688   0.391E+00 0.000E+00
CGA:   2    -0.484455044359E+03   -0.12384E+00   -0.12370E+00   688   0.160E+00 0.903E-03
CGA:   3    -0.484477481900E+03   -0.22438E-01   -0.22615E-01   688   0.112E+00 0.568E-03
CGA:   4    -0.484487894409E+03   -0.10413E-01   -0.10382E-01   688   0.261E-01 0.106E-03
CGA:   5    -0.484492173317E+03   -0.42789E-02   -0.42825E-02   688   0.651E-02 0.862E-04
CGA:   6    -0.484493618851E+03   -0.14455E-02   -0.14468E-02   688   0.189E-02-0.214E-04
CGA:   7    -0.484494020160E+03   -0.40131E-03   -0.40138E-03   688   0.213E-02-0.153E-05
CGA:   8    -0.484494215390E+03   -0.19523E-03   -0.19476E-03   688   0.611E-03 0.338E-05
CGA:   9    -0.484494382800E+03   -0.16741E-03   -0.16765E-03   688   0.363E-03-0.237E-05
CGA:  10    -0.484494462942E+03   -0.80142E-04   -0.80074E-04   688   0.193E-03 0.165E-05
  19 F= -.48803190E+03 E0= -.48800453E+03  d E =-.545065E-02  mag=     2.0006
       N       E                     dE             d eps       ncg     rms          ort
SDA:   1    -0.483839171333E+03    0.65521E+00    0.00000E+00   688   0.157E+01 0.000E+00
CGA:   2    -0.484331626270E+03   -0.49245E+00   -0.49164E+00   688   0.700E+00 0.551E-02
CGA:   3    -0.484415480014E+03   -0.83854E-01   -0.87240E-01   688   0.505E+00-0.246E-02
CGA:   4    -0.484465948396E+03   -0.50468E-01   -0.50512E-01   688   0.990E-01-0.102E-02
CGA:   5    -0.484482995993E+03   -0.17048E-01   -0.17066E-01   688   0.244E-01 0.863E-03
CGA:   6    -0.484488489030E+03   -0.54930E-02   -0.55032E-02   688   0.836E-02-0.168E-03
CGA:   7    -0.484489677659E+03   -0.11886E-02   -0.11867E-02   688   0.879E-02-0.917E-05
CGA:   8    -0.484490751835E+03   -0.10742E-02   -0.10729E-02   688   0.217E-02-0.514E-06
CGA:   9    -0.484491373322E+03   -0.62149E-03   -0.62163E-03   688   0.130E-02-0.132E-05
CGA:  10    -0.484491686171E+03   -0.31285E-03   -0.31276E-03   688   0.713E-03 0.168E-05
CGA:  11    -0.484491776731E+03   -0.90560E-04   -0.90522E-04   688   0.643E-03-0.190E-06
  20 F= -.48802903E+03 E0= -.48800173E+03  d E =-.257861E-02  mag=     2.0006
       N       E                     dE             d eps       ncg     rms          ort
SDA:   1    -0.484169039751E+03    0.32265E+00    0.00000E+00   688   0.781E+00 0.000E+00
CGA:   2    -0.484416616191E+03   -0.24758E+00   -0.24796E+00   688   0.315E+00-0.257E-02
CGA:   3    -0.484463867332E+03   -0.47251E-01   -0.47004E-01   688   0.208E+00-0.156E-02
CGA:   4    -0.484482472704E+03   -0.18605E-01   -0.18801E-01   688   0.544E-01-0.133E-02
CGA:   5    -0.484490635010E+03   -0.81623E-02   -0.81524E-02   688   0.138E-01-0.966E-04
CGA:   6    -0.484493244203E+03   -0.26092E-02   -0.26093E-02   688   0.760E-02-0.702E-05
CGA:   7    -0.484493914027E+03   -0.66982E-03   -0.66436E-03   688   0.286E-02 0.371E-04
CGA:   8    -0.484494611472E+03   -0.69745E-03   -0.69749E-03   688   0.100E-02-0.613E-06
CGA:   9    -0.484494806956E+03   -0.19548E-03   -0.19550E-03   688   0.132E-02-0.140E-06
CGA:  10    -0.484494962976E+03   -0.15602E-03   -0.15601E-03   688   0.390E-03 0.368E-06
CGA:  11    -0.484495045865E+03   -0.82889E-04   -0.82875E-04   688   0.225E-03 0.239E-06
  21 F= -.48803243E+03 E0= -.48800508E+03  d E =-.598186E-02  mag=     2.0006
       N       E                     dE             d eps       ncg     rms          ort
SDA:   1    -0.484429080921E+03    0.65882E-01    0.00000E+00   688   0.166E+00 0.000E+00
CGA:   2    -0.484480639463E+03   -0.51559E-01   -0.51519E-01   688   0.721E-01 0.273E-03
CGA:   3    -0.484490870213E+03   -0.10231E-01   -0.10263E-01   688   0.463E-01 0.133E-03
CGA:   4    -0.484495083491E+03   -0.42133E-02   -0.42052E-02   688   0.122E-01 0.314E-04
CGA:   5    -0.484497012481E+03   -0.19290E-02   -0.19298E-02   688   0.270E-02 0.201E-04
CGA:   6    -0.484497625047E+03   -0.61257E-03   -0.61293E-03   688   0.801E-03-0.594E-05
CGA:   7    -0.484497752001E+03   -0.12695E-03   -0.12695E-03   688   0.902E-03-0.106E-06
CGA:   8    -0.484497855426E+03   -0.10342E-03   -0.10338E-03   688   0.205E-03 0.680E-06
CGA:   9    -0.484497912362E+03   -0.56936E-04   -0.57051E-04   688   0.135E-03-0.109E-05
  22 F= -.48803537E+03 E0= -.48800800E+03  d E =-.293607E-02  mag=     2.0006
       N       E                     dE             d eps       ncg     rms          ort
SDA:   1    -0.483882980489E+03    0.61487E+00    0.00000E+00   688   0.149E+01 0.000E+00
CGA:   2    -0.484353989736E+03   -0.47101E+00   -0.46999E+00   688   0.541E+00 0.680E-02
CGA:   3    -0.484461203602E+03   -0.10721E+00   -0.10740E+00   688   0.187E+00-0.101E-01
CGA:   4    -0.484485152367E+03   -0.23949E-01   -0.23776E-01   688   0.104E+00-0.205E-03
CGA:   5    -0.484494464047E+03   -0.93117E-02   -0.92530E-02   688   0.253E-01 0.304E-03
CGA:   6    -0.484499727615E+03   -0.52636E-02   -0.52630E-02   688   0.719E-02 0.128E-04
CGA:   7    -0.484501035560E+03   -0.13079E-02   -0.13079E-02   688   0.861E-02 0.155E-05
CGA:   8    -0.484501945674E+03   -0.91011E-03   -0.90729E-03   688   0.196E-02 0.977E-05
CGA:   9    -0.484502554655E+03   -0.60898E-03   -0.60927E-03   688   0.153E-02-0.201E-05
CGA:  10    -0.484502738417E+03   -0.18376E-03   -0.18356E-03   688   0.106E-02 0.180E-05
CGA:  11    -0.484502890448E+03   -0.15203E-03   -0.15198E-03   688   0.427E-03 0.244E-06
CGA:  12    -0.484502984112E+03   -0.93664E-04   -0.93705E-04   688   0.203E-03-0.112E-05
  23 F= -.48804064E+03 E0= -.48801326E+03  d E =-.820581E-02  mag=     2.0007
       N       E                     dE             d eps       ncg     rms          ort
SDA:   1    -0.482018180413E+03    0.24847E+01    0.00000E+00   688   0.594E+01 0.000E+00
CGA:   2    -0.483905856166E+03   -0.18877E+01   -0.18803E+01   688   0.215E+01 0.474E-01
CGA:   3    -0.484311794789E+03   -0.40594E+00   -0.40602E+00   688   0.109E+01-0.154E-01
CGA:   4    -0.484407552730E+03   -0.95758E-01   -0.89417E-01   688   0.375E+00 0.362E-01
CGA:   5    -0.484465623654E+03   -0.58071E-01   -0.57969E-01   688   0.887E-01-0.970E-03
CGA:   6    -0.484485228942E+03   -0.19605E-01   -0.19660E-01   688   0.266E-01-0.862E-03
CGA:   7    -0.484491268580E+03   -0.60396E-02   -0.60365E-02   688   0.280E-01 0.460E-04
CGA:   8    -0.484493552111E+03   -0.22835E-02   -0.22946E-02   688   0.878E-02-0.877E-04
CGA:   9    -0.484496001073E+03   -0.24490E-02   -0.24419E-02   688   0.421E-02 0.607E-04
CGA:  10    -0.484497086703E+03   -0.10856E-02   -0.10853E-02   688   0.221E-02 0.384E-05
CGA:  11    -0.484497433736E+03   -0.34703E-03   -0.34710E-03   688   0.239E-02 0.581E-06
CGA:  12    -0.484497694101E+03   -0.26036E-03   -0.26047E-03   688   0.533E-03-0.207E-05
CGA:  13    -0.484497838918E+03   -0.14482E-03   -0.14451E-03   688   0.262E-03 0.309E-05
CGA:  14    -0.484497893424E+03   -0.54506E-04   -0.54528E-04   688   0.288E-03-0.973E-06
  24 F= -.48803589E+03 E0= -.48800848E+03  d E =-.346104E-02  mag=     2.0008
       N       E                     dE             d eps       ncg     rms          ort
SDA:   1    -0.483197797096E+03    0.13000E+01    0.00000E+00   688   0.313E+01 0.000E+00
CGA:   2    -0.484184844509E+03   -0.98705E+00   -0.99085E+00   688   0.125E+01-0.266E-01
CGA:   3    -0.484408993402E+03   -0.22415E+00   -0.22457E+00   688   0.415E+00 0.269E-01
CGA:   4    -0.484461812420E+03   -0.52819E-01   -0.53096E-01   688   0.268E+00-0.485E-03
CGA:   5    -0.484485245741E+03   -0.23433E-01   -0.24054E-01   688   0.530E-01-0.395E-02
CGA:   6    -0.484497016372E+03   -0.11771E-01   -0.11743E-01   688   0.130E-01 0.445E-03
CGA:   7    -0.484500850827E+03   -0.38345E-02   -0.38408E-02   688   0.566E-02-0.508E-04
CGA:   8    -0.484502284250E+03   -0.14334E-02   -0.14310E-02   688   0.317E-02 0.297E-04
CGA:   9    -0.484502996726E+03   -0.71248E-03   -0.71250E-03   688   0.314E-02-0.131E-05
CGA:  10    -0.484503266018E+03   -0.26929E-03   -0.26924E-03   688   0.104E-02 0.129E-05
CGA:  11    -0.484503538529E+03   -0.27251E-03   -0.27216E-03   688   0.355E-03 0.440E-05
CGA:  12    -0.484503626474E+03   -0.87945E-04   -0.88025E-04   688   0.171E-03-0.118E-05
  25 F= -.48804138E+03 E0= -.48801400E+03  d E =-.894974E-02  mag=     2.0007
       N       E                     dE             d eps       ncg     rms          ort
SDA:   1    -0.484317701835E+03    0.18584E+00    0.00000E+00   688   0.463E+00 0.000E+00
CGA:   2    -0.484460488931E+03   -0.14279E+00   -0.14262E+00   688   0.182E+00 0.125E-02
CGA:   3    -0.484494675624E+03   -0.34187E-01   -0.34151E-01   688   0.612E-01-0.118E-02
CGA:   4    -0.484502737677E+03   -0.80621E-02   -0.80422E-02   688   0.377E-01-0.387E-06
CGA:   5    -0.484506059268E+03   -0.33216E-02   -0.32792E-02   688   0.741E-02 0.296E-03
CGA:   6    -0.484507795641E+03   -0.17364E-02   -0.17374E-02   688   0.197E-02-0.184E-04
CGA:   7    -0.484508272873E+03   -0.47723E-03   -0.47721E-03   688   0.205E-02 0.651E-06
CGA:   8    -0.484508448470E+03   -0.17560E-03   -0.17608E-03   688   0.686E-03-0.397E-05
CGA:   9    -0.484508615084E+03   -0.16661E-03   -0.16658E-03   688   0.377E-03 0.330E-06
CGA:  10    -0.484508697467E+03   -0.82383E-04   -0.82353E-04   688   0.214E-03 0.118E-05
  26 F= -.48804656E+03 E0= -.48801912E+03  d E =-.517439E-02  mag=     2.0007
       N       E                     dE             d eps       ncg     rms          ort
SDA:   1    -0.482795364506E+03    0.17133E+01    0.00000E+00   688   0.417E+01 0.000E+00
CGA:   2    -0.484078070108E+03   -0.12827E+01   -0.12801E+01   688   0.173E+01 0.187E-01
CGA:   3    -0.484348643823E+03   -0.27057E+00   -0.27445E+00   688   0.114E+01 0.262E-01
CGA:   4    -0.484437136322E+03   -0.88492E-01   -0.98532E-01   688   0.378E+00-0.771E-01
CGA:   5    -0.484488853749E+03   -0.51717E-01   -0.52126E-01   688   0.659E-01 0.227E-02
CGA:   6    -0.484505331210E+03   -0.16477E-01   -0.16487E-01   688   0.185E-01-0.110E-03
CGA:   7    -0.484509637283E+03   -0.43061E-02   -0.43074E-02   688   0.231E-01-0.200E-04
CGA:   8    -0.484511582139E+03   -0.19449E-02   -0.19301E-02   688   0.579E-02 0.107E-03
CGA:   9    -0.484513322106E+03   -0.17400E-02   -0.17432E-02   688   0.337E-02-0.242E-04
CGA:  10    -0.484514104197E+03   -0.78209E-03   -0.78134E-03   688   0.138E-02 0.137E-04
CGA:  11    -0.484514472621E+03   -0.36842E-03   -0.36875E-03   688   0.108E-02-0.411E-05
CGA:  12    -0.484514566294E+03   -0.93673E-04   -0.93586E-04   688   0.467E-03 0.132E-05
  27 F= -.48805271E+03 E0= -.48802519E+03  d E =-.113317E-01  mag=     2.0007
       N       E                     dE             d eps       ncg     rms          ort
SDA:   1    -0.484232757524E+03    0.28172E+00    0.00000E+00   688   0.696E+00 0.000E+00
CGA:   2    -0.484446322500E+03   -0.21356E+00   -0.21333E+00   688   0.283E+00 0.172E-02
CGA:   3    -0.484495661194E+03   -0.49339E-01   -0.49366E-01   688   0.125E+00 0.408E-03
CGA:   4    -0.484507603778E+03   -0.11943E-01   -0.12116E-01   688   0.631E-01-0.100E-02
CGA:   5    -0.484515243800E+03   -0.76400E-02   -0.76534E-02   688   0.109E-01-0.346E-05
CGA:   6    -0.484517889846E+03   -0.26460E-02   -0.26482E-02   688   0.303E-02-0.282E-04
CGA:   7    -0.484518733300E+03   -0.84345E-03   -0.84283E-03   688   0.211E-02 0.613E-05
CGA:   8    -0.484518953673E+03   -0.22037E-03   -0.22103E-03   688   0.147E-02-0.365E-05
CGA:   9    -0.484519207036E+03   -0.25336E-03   -0.25348E-03   688   0.650E-03 0.253E-05
CGA:  10    -0.484519369054E+03   -0.16202E-03   -0.16188E-03   688   0.247E-03 0.225E-05
CGA:  11    -0.484519435198E+03   -0.66144E-04   -0.66193E-04   688   0.261E-03-0.707E-06
  28 F= -.48805768E+03 E0= -.48803012E+03  d E =-.496648E-02  mag=     2.0008
       N       E                     dE             d eps       ncg     rms          ort
SDA:   1    -0.484349153067E+03    0.17022E+00    0.00000E+00   688   0.418E+00 0.000E+00
CGA:   2    -0.484476147823E+03   -0.12699E+00   -0.12681E+00   688   0.172E+00 0.139E-02
CGA:   3    -0.484506895236E+03   -0.30747E-01   -0.30718E-01   688   0.621E-01-0.629E-03
CGA:   4    -0.484514125345E+03   -0.72301E-02   -0.72374E-02   688   0.393E-01-0.263E-04
CGA:   5    -0.484518048833E+03   -0.39235E-02   -0.39079E-02   688   0.649E-02 0.806E-04
CGA:   6    -0.484519648598E+03   -0.15998E-02   -0.16006E-02   688   0.188E-02-0.106E-04
CGA:   7    -0.484520089655E+03   -0.44106E-03   -0.44097E-03   688   0.199E-02 0.175E-05
CGA:   8    -0.484520264814E+03   -0.17516E-03   -0.17554E-03   688   0.710E-03-0.309E-05
CGA:   9    -0.484520430730E+03   -0.16592E-03   -0.16580E-03   688   0.381E-03 0.174E-05
CGA:  10    -0.484520524925E+03   -0.94196E-04   -0.94131E-04   688   0.206E-03 0.116E-05
  29 F= -.48805884E+03 E0= -.48803126E+03  d E =-.612987E-02  mag=     2.0008
       N       E                     dE             d eps       ncg     rms          ort
SDA:   1    -0.484206933006E+03    0.31350E+00    0.00000E+00   688   0.766E+00 0.000E+00
CGA:   2    -0.484444539466E+03   -0.23761E+00   -0.23722E+00   688   0.315E+00 0.277E-02
CGA:   3    -0.484496809988E+03   -0.52271E-01   -0.52116E-01   688   0.176E+00-0.170E-02
CGA:   4    -0.484512002447E+03   -0.15192E-01   -0.14949E-01   688   0.601E-01 0.148E-02
CGA:   5    -0.484521084493E+03   -0.90820E-02   -0.90681E-02   688   0.126E-01-0.781E-04
CGA:   6    -0.484524137057E+03   -0.30526E-02   -0.30517E-02   688   0.373E-02 0.116E-04
CGA:   7    -0.484525027589E+03   -0.89053E-03   -0.89096E-03   688   0.403E-02-0.630E-05
CGA:   8    -0.484525374359E+03   -0.34677E-03   -0.34560E-03   688   0.139E-02 0.911E-05
CGA:   9    -0.484525714564E+03   -0.34020E-03   -0.34048E-03   688   0.736E-03-0.354E-05
CGA:  10    -0.484525895285E+03   -0.18072E-03   -0.18053E-03   688   0.335E-03 0.302E-05
CGA:  11    -0.484525944951E+03   -0.49666E-04   -0.49658E-04   688   0.379E-03-0.628E-06
  30 F= -.48806414E+03 E0= -.48803654E+03  d E =-.530116E-02  mag=     2.0009
       N       E                     dE             d eps       ncg     rms          ort
SDA:   1    -0.484339140851E+03    0.18675E+00    0.00000E+00   688   0.462E+00 0.000E+00
CGA:   2    -0.484472325863E+03   -0.13319E+00   -0.13319E+00   688   0.299E+00-0.612E-04
CGA:   3    -0.484500293264E+03   -0.27967E-01   -0.28298E-01   688   0.157E+00-0.244E-02
CGA:   4    -0.484518336328E+03   -0.18043E-01   -0.18046E-01   688   0.365E-01-0.496E-04
CGA:   5    -0.484525105914E+03   -0.67696E-02   -0.67687E-02   688   0.769E-02 0.199E-03
CGA:   6    -0.484526730656E+03   -0.16247E-02   -0.16250E-02   688   0.622E-02-0.543E-05
CGA:   7    -0.484527235172E+03   -0.50452E-03   -0.50365E-03   688   0.190E-02 0.782E-05
CGA:   8    -0.484527721905E+03   -0.48673E-03   -0.48697E-03   688   0.808E-03-0.265E-05
CGA:   9    -0.484527916122E+03   -0.19422E-03   -0.19391E-03   688   0.676E-03 0.417E-05
CGA:  10    -0.484527990503E+03   -0.74381E-04   -0.74456E-04   688   0.475E-03-0.257E-07
  31 F= -.48806609E+03 E0= -.48803848E+03  d E =-.725133E-02  mag=     2.0009
       N       E                     dE             d eps       ncg     rms          ort
SDA:   1    -0.483771544278E+03    0.75637E+00    0.00000E+00   688   0.184E+01 0.000E+00
CGA:   2    -0.484308035163E+03   -0.53649E+00   -0.53655E+00   688   0.118E+01-0.266E-03
CGA:   3    -0.484414514327E+03   -0.10648E+00   -0.10841E+00   688   0.644E+00-0.209E-01
CGA:   4    -0.484488733714E+03   -0.74219E-01   -0.74029E-01   688   0.142E+00-0.198E-03
CGA:   5    -0.484514786157E+03   -0.26052E-01   -0.26039E-01   688   0.314E-01 0.147E-02
CGA:   6    -0.484521736324E+03   -0.69502E-02   -0.69584E-02   688   0.207E-01-0.138E-03
CGA:   7    -0.484523459188E+03   -0.17229E-02   -0.17132E-02   688   0.847E-02 0.671E-04
CGA:   8    -0.484525367742E+03   -0.19086E-02   -0.19100E-02   688   0.325E-02-0.225E-04
CGA:   9    -0.484526203480E+03   -0.83574E-03   -0.83329E-03   688   0.220E-02 0.257E-04
CGA:  10    -0.484526486093E+03   -0.28261E-03   -0.28293E-03   688   0.209E-02 0.868E-06
CGA:  11    -0.484526788632E+03   -0.30254E-03   -0.30276E-03   688   0.488E-03 0.305E-05
CGA:  12    -0.484526927919E+03   -0.13929E-03   -0.13952E-03   688   0.327E-03-0.211E-05
CGA:  13    -0.484526967050E+03   -0.39131E-04   -0.39135E-04   688   0.238E-03 0.578E-06
  32 F= -.48806487E+03 E0= -.48803724E+03  d E =-.602683E-02  mag=     2.0010
       N       E                     dE             d eps       ncg     rms          ort
SDA:   1    -0.484239014562E+03    0.28791E+00    0.00000E+00   688   0.706E+00 0.000E+00
CGA:   2    -0.484444478106E+03   -0.20546E+00   -0.20539E+00   688   0.419E+00 0.624E-03
CGA:   3    -0.484488849500E+03   -0.44371E-01   -0.43873E-01   688   0.222E+00 0.650E-03
CGA:   4    -0.484514223962E+03   -0.25374E-01   -0.25240E-01   688   0.537E-01 0.127E-03
CGA:   5    -0.484524075057E+03   -0.98511E-02   -0.98558E-02   688   0.135E-01-0.363E-03
CGA:   6    -0.484526016300E+03   -0.19412E-02   -0.19388E-02   688   0.124E-01-0.199E-04
CGA:   7    -0.484527317017E+03   -0.13007E-02   -0.12982E-02   688   0.236E-02 0.655E-05
CGA:   8    -0.484527995464E+03   -0.67845E-03   -0.67794E-03   688   0.171E-02 0.414E-05
CGA:   9    -0.484528167402E+03   -0.17194E-03   -0.17199E-03   688   0.104E-02-0.917E-06
CGA:  10    -0.484528372625E+03   -0.20522E-03   -0.20515E-03   688   0.473E-03 0.190E-05
CGA:  11    -0.484528468768E+03   -0.96143E-04   -0.96183E-04   688   0.308E-03-0.117E-05
  33 F= -.48806650E+03 E0= -.48803886E+03  d E =-.765452E-02  mag=     2.0010
       N       E                     dE             d eps       ncg     rms          ort
SDA:   1    -0.484316808575E+03    0.21156E+00    0.00000E+00   688   0.521E+00 0.000E+00
CGA:   2    -0.484482527795E+03   -0.16572E+00   -0.16564E+00   688   0.193E+00 0.500E-03
CGA:   3    -0.484517193017E+03   -0.34665E-01   -0.34666E-01   688   0.100E+00 0.146E-02
CGA:   4    -0.484525914710E+03   -0.87217E-02   -0.88664E-02   688   0.417E-01-0.902E-03
CGA:   5    -0.484531408337E+03   -0.54936E-02   -0.55073E-02   688   0.800E-02 0.702E-04
CGA:   6    -0.484533227888E+03   -0.18196E-02   -0.18207E-02   688   0.251E-02-0.151E-04
CGA:   7    -0.484533676504E+03   -0.44862E-03   -0.44862E-03   688   0.298E-02-0.150E-05
CGA:   8    -0.484533970113E+03   -0.29361E-03   -0.29366E-03   688   0.715E-03-0.200E-05
CGA:   9    -0.484534174098E+03   -0.20398E-03   -0.20368E-03   688   0.408E-03 0.247E-05
CGA:  10    -0.484534253029E+03   -0.78932E-04   -0.78934E-04   688   0.365E-03 0.735E-07
  34 F= -.48807194E+03 E0= -.48804438E+03  d E =-.544170E-02  mag=     2.0009
       N       E                     dE             d eps       ncg     rms          ort
SDA:   1    -0.483428023708E+03    0.11062E+01    0.00000E+00   688   0.269E+01 0.000E+00
CGA:   2    -0.484232545811E+03   -0.80452E+00   -0.80476E+00   688   0.174E+01-0.177E-03
CGA:   3    -0.484378443441E+03   -0.14590E+00   -0.14251E+00   688   0.780E+00-0.128E-02
CGA:   4    -0.484492723428E+03   -0.11428E+00   -0.11422E+00   688   0.179E+00-0.703E-03
CGA:   5    -0.484524155424E+03   -0.31432E-01   -0.31423E-01   688   0.490E-01 0.233E-02
CGA:   6    -0.484532162327E+03   -0.80069E-02   -0.80084E-02   688   0.408E-01 0.525E-04
CGA:   7    -0.484535823780E+03   -0.36615E-02   -0.36759E-02   688   0.103E-01-0.762E-04
CGA:   8    -0.484538605165E+03   -0.27814E-02   -0.27827E-02   688   0.436E-02-0.116E-04
CGA:   9    -0.484539530140E+03   -0.92497E-03   -0.92368E-03   688   0.534E-02 0.242E-04
CGA:  10    -0.484540059685E+03   -0.52954E-03   -0.53031E-03   688   0.195E-02-0.201E-05
CGA:  11    -0.484540510639E+03   -0.45095E-03   -0.45030E-03   688   0.738E-03 0.860E-05
CGA:  12    -0.484540659065E+03   -0.14843E-03   -0.14845E-03   688   0.867E-03-0.931E-06
CGA:  13    -0.484540742825E+03   -0.83760E-04   -0.83793E-04   688   0.211E-03 0.215E-06
  35 F= -.48807764E+03 E0= -.48805029E+03  d E =-.111392E-01  mag=     2.0007
       N       E                     dE             d eps       ncg     rms          ort
SDA:   1    -0.484159411265E+03    0.38125E+00    0.00000E+00   688   0.940E+00 0.000E+00
CGA:   2    -0.484450856324E+03   -0.29145E+00   -0.29163E+00   688   0.446E+00-0.122E-02
CGA:   3    -0.484497627891E+03   -0.46772E-01   -0.46865E-01   688   0.298E+00-0.126E-02
CGA:   4    -0.484531464537E+03   -0.33837E-01   -0.34111E-01   688   0.595E-01-0.321E-03
CGA:   5    -0.484541996221E+03   -0.10532E-01   -0.10530E-01   688   0.156E-01 0.408E-03
CGA:   6    -0.484544802248E+03   -0.28060E-02   -0.28061E-02   688   0.108E-01-0.169E-04
CGA:   7    -0.484545726729E+03   -0.92448E-03   -0.92302E-03   688   0.362E-02 0.104E-04
CGA:   8    -0.484546618696E+03   -0.89197E-03   -0.89256E-03   688   0.132E-02-0.692E-05
CGA:   9    -0.484546946101E+03   -0.32740E-03   -0.32685E-03   688   0.159E-02 0.629E-05
CGA:  10    -0.484547098769E+03   -0.15267E-03   -0.15301E-03   688   0.655E-03-0.136E-05
CGA:  11    -0.484547235614E+03   -0.13684E-03   -0.13676E-03   688   0.263E-03 0.189E-05
CGA:  12    -0.484547294888E+03   -0.59274E-04   -0.59313E-04   688   0.241E-03-0.763E-06
  36 F= -.48808423E+03 E0= -.48805699E+03  d E =-.659021E-02  mag=     2.0007
       N       E                     dE             d eps       ncg     rms          ort
SDA:   1    -0.484383983477E+03    0.16325E+00    0.00000E+00   688   0.400E+00 0.000E+00
CGA:   2    -0.484505977481E+03   -0.12199E+00   -0.12208E+00   688   0.213E+00-0.606E-03
CGA:   3    -0.484526342704E+03   -0.20365E-01   -0.20323E-01   688   0.121E+00-0.769E-04
CGA:   4    -0.484541614507E+03   -0.15272E-01   -0.15304E-01   688   0.265E-01 0.580E-04
CGA:   5    -0.484546210383E+03   -0.45959E-02   -0.45960E-02   688   0.705E-02 0.136E-03
CGA:   6    -0.484547353931E+03   -0.11435E-02   -0.11436E-02   688   0.569E-02 0.420E-05
CGA:   7    -0.484547870039E+03   -0.51611E-03   -0.51658E-03   688   0.145E-02-0.827E-06
CGA:   8    -0.484548262023E+03   -0.39198E-03   -0.39228E-03   688   0.631E-03-0.280E-05
CGA:   9    -0.484548377434E+03   -0.11541E-03   -0.11540E-03   688   0.810E-03 0.125E-05
CGA:  10    -0.484548470864E+03   -0.93430E-04   -0.93451E-04   688   0.271E-03 0.237E-06
  37 F= -.48808542E+03 E0= -.48805828E+03  d E =-.778755E-02  mag=     2.0007
       N       E                     dE             d eps       ncg     rms          ort
SDA:   1    -0.484373091104E+03    0.17529E+00    0.00000E+00   688   0.438E+00 0.000E+00
CGA:   2    -0.484508406316E+03   -0.13532E+00   -0.13539E+00   688   0.190E+00-0.514E-03
CGA:   3    -0.484531237629E+03   -0.22831E-01   -0.22890E-01   688   0.142E+00-0.116E-03
CGA:   4    -0.484545762710E+03   -0.14525E-01   -0.14673E-01   688   0.271E-01-0.465E-03
CGA:   5    -0.484550484051E+03   -0.47213E-02   -0.47214E-02   688   0.755E-02 0.130E-03
CGA:   6    -0.484551882800E+03   -0.13987E-02   -0.13989E-02   688   0.485E-02-0.990E-05
CGA:   7    -0.484552303335E+03   -0.42054E-03   -0.41968E-03   688   0.183E-02 0.469E-05
CGA:   8    -0.484552743197E+03   -0.43986E-03   -0.44015E-03   688   0.647E-03-0.376E-05
CGA:   9    -0.484552907284E+03   -0.16409E-03   -0.16384E-03   688   0.791E-03 0.273E-05
CGA:  10    -0.484552983410E+03   -0.76127E-04   -0.76267E-04   688   0.313E-03-0.500E-06
  38 F= -.48808998E+03 E0= -.48806289E+03  d E =-.455538E-02  mag=     2.0007
       N       E                     dE             d eps       ncg     rms          ort
SDA:   1    -0.483812461568E+03    0.74045E+00    0.00000E+00   688   0.181E+01 0.000E+00
CGA:   2    -0.484373081521E+03   -0.56062E+00   -0.56124E+00   688   0.763E+00-0.418E-02
CGA:   3    -0.484470467149E+03   -0.97386E-01   -0.98234E-01   688   0.584E+00 0.773E-04
CGA:   4    -0.484525658107E+03   -0.55191E-01   -0.56842E-01   688   0.123E+00-0.744E-02
CGA:   5    -0.484545556148E+03   -0.19898E-01   -0.19926E-01   688   0.314E-01 0.105E-02
CGA:   6    -0.484551894140E+03   -0.63380E-02   -0.63426E-02   688   0.162E-01-0.113E-03
CGA:   7    -0.484553388317E+03   -0.14942E-02   -0.14836E-02   688   0.822E-02 0.508E-04
CGA:   8    -0.484555134770E+03   -0.17465E-02   -0.17471E-02   688   0.256E-02-0.124E-04
CGA:   9    -0.484555841686E+03   -0.70692E-03   -0.70498E-03   688   0.259E-02 0.169E-04
CGA:  10    -0.484556107006E+03   -0.26532E-03   -0.26622E-03   688   0.137E-02-0.251E-05
CGA:  11    -0.484556348099E+03   -0.24109E-03   -0.24109E-03   688   0.531E-03 0.342E-05
CGA:  12    -0.484556472374E+03   -0.12427E-03   -0.12437E-03   688   0.334E-03-0.146E-05
CGA:  13    -0.484556505586E+03   -0.33212E-04   -0.33193E-04   688   0.184E-03 0.452E-06
  39 F= -.48809358E+03 E0= -.48806664E+03  d E =-.816026E-02  mag=     2.0008
       N       E                     dE             d eps       ncg     rms          ort
SDA:   1    -0.484407147283E+03    0.14933E+00    0.00000E+00   688   0.376E+00 0.000E+00
CGA:   2    -0.484523699497E+03   -0.11655E+00   -0.11662E+00   688   0.149E+00-0.482E-03
CGA:   3    -0.484544660138E+03   -0.20961E-01   -0.21036E-01   688   0.112E+00 0.367E-03
CGA:   4    -0.484554837367E+03   -0.10177E-01   -0.10350E-01   688   0.248E-01-0.912E-03
CGA:   5    -0.484558866228E+03   -0.40289E-02   -0.40315E-02   688   0.636E-02 0.101E-03
CGA:   6    -0.484560105275E+03   -0.12390E-02   -0.12393E-02   688   0.328E-02-0.819E-05
CGA:   7    -0.484560414917E+03   -0.30964E-03   -0.30869E-03   688   0.170E-02 0.471E-05
CGA:   8    -0.484560773990E+03   -0.35907E-03   -0.35919E-03   688   0.529E-03-0.283E-05
CGA:   9    -0.484560916991E+03   -0.14300E-03   -0.14281E-03   688   0.632E-03 0.179E-05
CGA:  10    -0.484560978970E+03   -0.61979E-04   -0.62085E-04   688   0.261E-03-0.474E-06
  40 F= -.48809809E+03 E0= -.48807116E+03  d E =-.450222E-02  mag=     2.0009
       N       E                     dE             d eps       ncg     rms          ort
SDA:   1    -0.483184583982E+03    0.13763E+01    0.00000E+00   688   0.339E+01 0.000E+00
CGA:   2    -0.484228627788E+03   -0.10440E+01   -0.10461E+01   688   0.142E+01-0.137E-01
CGA:   3    -0.484414123642E+03   -0.18550E+00   -0.18818E+00   688   0.105E+01 0.318E-02
CGA:   4    -0.484512065211E+03   -0.97942E-01   -0.10232E+00   688   0.249E+00-0.205E-01
CGA:   5    -0.484549438113E+03   -0.37373E-01   -0.37523E-01   688   0.610E-01 0.242E-02
CGA:   6    -0.484562200566E+03   -0.12762E-01   -0.12775E-01   688   0.271E-01-0.242E-03
CGA:   7    -0.484564922134E+03   -0.27216E-02   -0.26938E-02   688   0.165E-01 0.938E-04
CGA:   8    -0.484568193377E+03   -0.32712E-02   -0.32715E-02   688   0.468E-02-0.882E-05
CGA:   9    -0.484569530964E+03   -0.13376E-02   -0.13327E-02   688   0.483E-02 0.392E-04
CGA:  10    -0.484570039260E+03   -0.50830E-03   -0.51049E-03   688   0.248E-02-0.546E-05
CGA:  11    -0.484570456776E+03   -0.41752E-03   -0.41760E-03   688   0.105E-02 0.654E-05
CGA:  12    -0.484570696419E+03   -0.23964E-03   -0.23978E-03   688   0.551E-03-0.211E-05
CGA:  13    -0.484570755798E+03   -0.59378E-04   -0.59303E-04   688   0.354E-03 0.446E-06
  41 F= -.48810795E+03 E0= -.48808113E+03  d E =-.143621E-01  mag=     2.0009
       N       E                     dE             d eps       ncg     rms          ort
SDA:   1    -0.479031498915E+03    0.55392E+01    0.00000E+00   688   0.136E+02 0.000E+00
CGA:   2    -0.483206610602E+03   -0.41751E+01   -0.41900E+01   688   0.563E+01-0.978E-01
CGA:   3    -0.483997161796E+03   -0.79055E+00   -0.81263E+00   688   0.379E+01 0.127E+00
CGA:   4    -0.484331983479E+03   -0.33482E+00   -0.37884E+00   688   0.123E+01-0.197E+00
CGA:   5    -0.484483226861E+03   -0.15124E+00   -0.15344E+00   688   0.258E+00 0.628E-02
CGA:   6    -0.484541583276E+03   -0.58356E-01   -0.58396E-01   688   0.625E-01-0.551E-03
CGA:   7    -0.484560782492E+03   -0.19199E-01   -0.19188E-01   688   0.242E-01 0.806E-04
CGA:   8    -0.484567452900E+03   -0.66704E-02   -0.66443E-02   688   0.161E-01 0.238E-03
CGA:   9    -0.484570650452E+03   -0.31976E-02   -0.31981E-02   688   0.116E-01-0.279E-04
CGA:  10    -0.484571910460E+03   -0.12600E-02   -0.12530E-02   688   0.650E-02 0.297E-04
CGA:  11    -0.484573170131E+03   -0.12597E-02   -0.12599E-02   688   0.195E-02-0.917E-05
CGA:  12    -0.484573674040E+03   -0.50391E-03   -0.50372E-03   688   0.983E-03 0.150E-05
CGA:  13    -0.484573838269E+03   -0.16423E-03   -0.16424E-03   688   0.928E-03-0.607E-06
CGA:  14    -0.484573945547E+03   -0.10728E-03   -0.10733E-03   688   0.327E-03 0.551E-06
CGA:  15    -0.484574031759E+03   -0.86212E-04   -0.86026E-04   688   0.161E-03 0.232E-05
  42 F= -.48811137E+03 E0= -.48808482E+03  d E =-.177869E-01  mag=     2.0012
       N       E                     dE             d eps       ncg     rms          ort
SDA:   1    -0.484030381721E+03    0.54356E+00    0.00000E+00   688   0.133E+01 0.000E+00
CGA:   2    -0.484444313374E+03   -0.41393E+00   -0.41351E+00   688   0.493E+00 0.314E-02
CGA:   3    -0.484523833299E+03   -0.79520E-01   -0.79110E-01   688   0.330E+00-0.311E-02
CGA:   4    -0.484554856910E+03   -0.31024E-01   -0.29653E-01   688   0.771E-01 0.834E-02
CGA:   5    -0.484568073167E+03   -0.13216E-01   -0.13194E-01   688   0.217E-01-0.362E-03
CGA:   6    -0.484572501409E+03   -0.44282E-02   -0.44275E-02   688   0.623E-02 0.266E-04
CGA:   7    -0.484573962893E+03   -0.14615E-02   -0.14611E-02   688   0.591E-02 0.738E-05
CGA:   8    -0.484574488806E+03   -0.52591E-03   -0.52229E-03   688   0.191E-02 0.269E-04
CGA:   9    -0.484575033437E+03   -0.54463E-03   -0.54554E-03   688   0.987E-03-0.788E-05
CGA:  10    -0.484575246864E+03   -0.21343E-03   -0.21337E-03   688   0.517E-03 0.159E-05
CGA:  11    -0.484575336513E+03   -0.89649E-04   -0.89657E-04   688   0.496E-03 0.373E-06
  43 F= -.48811263E+03 E0= -.48808598E+03  d E =-.190476E-01  mag=     2.0011
       N       E                     dE             d eps       ncg     rms          ort
SDA:   1    -0.483877257366E+03    0.69799E+00    0.00000E+00   688   0.173E+01 0.000E+00
CGA:   2    -0.484409308719E+03   -0.53205E+00   -0.53282E+00   688   0.751E+00-0.558E-02
CGA:   3    -0.484504265730E+03   -0.94957E-01   -0.95836E-01   688   0.508E+00-0.166E-02
CGA:   4    -0.484555549607E+03   -0.51284E-01   -0.52541E-01   688   0.123E+00-0.520E-02
CGA:   5    -0.484574176330E+03   -0.18627E-01   -0.18701E-01   688   0.314E-01 0.645E-03
CGA:   6    -0.484580419214E+03   -0.62429E-02   -0.62442E-02   688   0.146E-01-0.537E-04
CGA:   7    -0.484581831467E+03   -0.14123E-02   -0.13978E-02   688   0.732E-02 0.700E-04
CGA:   8    -0.484583428858E+03   -0.15974E-02   -0.15976E-02   688   0.218E-02-0.414E-05
CGA:   9    -0.484584007266E+03   -0.57841E-03   -0.57737E-03   688   0.259E-02 0.105E-04
CGA:  10    -0.484584275073E+03   -0.26781E-03   -0.26869E-03   688   0.102E-02-0.280E-05
CGA:  11    -0.484584465778E+03   -0.19070E-03   -0.19069E-03   688   0.502E-03 0.243E-05
CGA:  12    -0.484584572193E+03   -0.10642E-03   -0.10644E-03   688   0.290E-03-0.821E-06
CGA:  13    -0.484584600851E+03   -0.28657E-04   -0.28636E-04   688   0.139E-03 0.293E-06
  44 F= -.48812198E+03 E0= -.48809538E+03  d E =-.934472E-02  mag=     2.0010
       N       E                     dE             d eps       ncg     rms          ort
SDA:   1    -0.482151938899E+03    0.24326E+01    0.00000E+00   688   0.596E+01 0.000E+00
CGA:   2    -0.483989544623E+03   -0.18376E+01   -0.18427E+01   688   0.254E+01-0.357E-01
CGA:   3    -0.484328148444E+03   -0.33860E+00   -0.34682E+00   688   0.170E+01 0.108E-01
CGA:   4    -0.484487078396E+03   -0.15893E+00   -0.16898E+00   688   0.486E+00-0.485E-01
CGA:   5    -0.484552560881E+03   -0.65482E-01   -0.66089E-01   688   0.110E+00 0.261E-02
CGA:   6    -0.484575878723E+03   -0.23318E-01   -0.23336E-01   688   0.440E-01-0.359E-03
CGA:   7    -0.484580590944E+03   -0.47122E-02   -0.46385E-02   688   0.286E-01 0.206E-03
CGA:   8    -0.484586166044E+03   -0.55751E-02   -0.55743E-02   688   0.761E-02 0.253E-04
CGA:   9    -0.484588405118E+03   -0.22391E-02   -0.22334E-02   688   0.926E-02 0.439E-04
CGA:  10    -0.484589306661E+03   -0.90154E-03   -0.90775E-03   688   0.346E-02-0.267E-04
CGA:  11    -0.484590030346E+03   -0.72369E-03   -0.72329E-03   688   0.193E-02 0.104E-04
CGA:  12    -0.484590384617E+03   -0.35427E-03   -0.35428E-03   688   0.105E-02-0.231E-05
CGA:  13    -0.484590496079E+03   -0.11146E-03   -0.11130E-03   688   0.554E-03 0.552E-06
CGA:  14    -0.484590623007E+03   -0.12693E-03   -0.12698E-03   688   0.190E-03-0.996E-06
CGA:  15    -0.484590657592E+03   -0.34585E-04   -0.34584E-04   688   0.242E-03 0.609E-06
  45 F= -.48812817E+03 E0= -.48810166E+03  d E =-.155367E-01  mag=     2.0007
       N       E                     dE             d eps       ncg     rms          ort
SDA:   1    -0.484000129572E+03    0.59049E+00    0.00000E+00   688   0.146E+01 0.000E+00
CGA:   2    -0.484451293417E+03   -0.45116E+00   -0.45183E+00   688   0.590E+00-0.468E-02
CGA:   3    -0.484538205040E+03   -0.86912E-01   -0.87637E-01   688   0.388E+00 0.499E-02
CGA:   4    -0.484573727029E+03   -0.35522E-01   -0.36774E-01   688   0.111E+00-0.661E-02
CGA:   5    -0.484589434262E+03   -0.15707E-01   -0.15761E-01   688   0.256E-01 0.420E-03
CGA:   6    -0.484594764245E+03   -0.53300E-02   -0.53323E-02   688   0.114E-01-0.482E-04
CGA:   7    -0.484595911677E+03   -0.11474E-02   -0.11376E-02   688   0.655E-02 0.366E-04
CGA:   8    -0.484597262891E+03   -0.13512E-02   -0.13513E-02   688   0.194E-02-0.225E-05
CGA:   9    -0.484597778907E+03   -0.51602E-03   -0.51519E-03   688   0.239E-02 0.796E-05
CGA:  10    -0.484598022570E+03   -0.24366E-03   -0.24433E-03   688   0.914E-03-0.200E-05
CGA:  11    -0.484598201300E+03   -0.17873E-03   -0.17868E-03   688   0.469E-03 0.200E-05
CGA:  12    -0.484598296076E+03   -0.94776E-04   -0.94801E-04   688   0.311E-03-0.860E-06
  46 F= -.48813566E+03 E0= -.48810919E+03  d E =-.749403E-02  mag=     2.0007
       N       E                     dE             d eps       ncg     rms          ort
SDA:   1    -0.483916657540E+03    0.68154E+00    0.00000E+00   688   0.167E+01 0.000E+00
CGA:   2    -0.484432216364E+03   -0.51556E+00   -0.51643E+00   688   0.695E+00-0.599E-02
CGA:   3    -0.484528284957E+03   -0.96069E-01   -0.96788E-01   688   0.473E+00 0.296E-02
CGA:   4    -0.484572784538E+03   -0.44500E-01   -0.45712E-01   688   0.124E+00-0.571E-02
CGA:   5    -0.484591040184E+03   -0.18256E-01   -0.18301E-01   688   0.296E-01 0.571E-03
CGA:   6    -0.484596941409E+03   -0.59012E-02   -0.59031E-02   688   0.163E-01-0.442E-04
CGA:   7    -0.484598441656E+03   -0.15002E-02   -0.14845E-02   688   0.692E-02 0.791E-04
CGA:   8    -0.484600089971E+03   -0.16483E-02   -0.16485E-02   688   0.234E-02-0.346E-05
CGA:   9    -0.484600643234E+03   -0.55326E-03   -0.55292E-03   688   0.321E-02 0.473E-05
CGA:  10    -0.484600980461E+03   -0.33723E-03   -0.33789E-03   688   0.100E-02-0.107E-05
CGA:  11    -0.484601199087E+03   -0.21863E-03   -0.21850E-03   688   0.572E-03 0.239E-05
CGA:  12    -0.484601298615E+03   -0.99528E-04   -0.99527E-04   688   0.422E-03-0.821E-06
  47 F= -.48813851E+03 E0= -.48811210E+03  d E =-.103372E-01  mag=     2.0006
       N       E                     dE             d eps       ncg     rms          ort
SDA:   1    -0.484366586763E+03    0.23461E+00    0.00000E+00   688   0.594E+00 0.000E+00
CGA:   2    -0.484550441705E+03   -0.18385E+00   -0.18398E+00   688   0.212E+00-0.858E-03
CGA:   3    -0.484588982093E+03   -0.38540E-01   -0.38523E-01   688   0.108E+00 0.310E-02
CGA:   4    -0.484599304480E+03   -0.10322E-01   -0.10535E-01   688   0.457E-01-0.957E-03
CGA:   5    -0.484604852686E+03   -0.55482E-02   -0.55666E-02   688   0.955E-02 0.324E-04
CGA:   6    -0.484606975733E+03   -0.21230E-02   -0.21229E-02   688   0.279E-02 0.240E-05
CGA:   7    -0.484607577616E+03   -0.60188E-03   -0.60201E-03   688   0.306E-02-0.259E-05
CGA:   8    -0.484607860951E+03   -0.28334E-03   -0.28424E-03   688   0.922E-03-0.690E-05
CGA:   9    -0.484608112192E+03   -0.25124E-03   -0.25070E-03   688   0.531E-03 0.486E-05
CGA:  10    -0.484608227540E+03   -0.11535E-03   -0.11537E-03   688   0.351E-03-0.193E-06
CGA:  11    -0.484608267793E+03   -0.40253E-04   -0.40230E-04   688   0.244E-03 0.352E-06
  48 F= -.48814518E+03 E0= -.48811890E+03  d E =-.667618E-02  mag=     2.0006
       N       E                     dE             d eps       ncg     rms          ort
SDA:   1    -0.483131280670E+03    0.14769E+01    0.00000E+00   688   0.365E+01 0.000E+00
CGA:   2    -0.484263477855E+03   -0.11322E+01   -0.11336E+01   688   0.127E+01-0.935E-02
CGA:   3    -0.484513238983E+03   -0.24976E+00   -0.24880E+00   688   0.431E+00 0.394E-01
CGA:   4    -0.484573560394E+03   -0.60321E-01   -0.60183E-01   688   0.239E+00-0.539E-03
CGA:   5    -0.484595645289E+03   -0.22085E-01   -0.21710E-01   688   0.601E-01 0.184E-02
CGA:   6    -0.484607838127E+03   -0.12193E-01   -0.12192E-01   688   0.163E-01 0.257E-04
CGA:   7    -0.484612012120E+03   -0.41740E-02   -0.41812E-02   688   0.114E-01-0.753E-04
CGA:   8    -0.484613152847E+03   -0.11407E-02   -0.11305E-02   688   0.704E-02 0.409E-04
CGA:   9    -0.484614486220E+03   -0.13334E-02   -0.13338E-02   688   0.311E-02-0.186E-04
CGA:  10    -0.484615256513E+03   -0.77029E-03   -0.77015E-03   688   0.122E-02 0.224E-05
CGA:  11    -0.484615625171E+03   -0.36866E-03   -0.36810E-03   688   0.467E-03 0.418E-05
CGA:  12    -0.484615745281E+03   -0.12011E-03   -0.12016E-03   688   0.259E-03-0.525E-06
CGA:  13    -0.484615788865E+03   -0.43584E-04   -0.43591E-04   688   0.256E-03 0.274E-06
  49 F= -.48815196E+03 E0= -.48812594E+03  d E =-.134546E-01  mag=     2.0005
       N       E                     dE             d eps       ncg     rms          ort
SDA:   1    -0.484163931067E+03    0.45181E+00    0.00000E+00   688   0.113E+01 0.000E+00
CGA:   2    -0.484517161287E+03   -0.35323E+00   -0.35332E+00   688   0.377E+00-0.612E-03
CGA:   3    -0.484593604837E+03   -0.76444E-01   -0.76446E-01   688   0.145E+00-0.103E-03
CGA:   4    -0.484610221648E+03   -0.16617E-01   -0.16544E-01   688   0.789E-01 0.104E-03
CGA:   5    -0.484618181585E+03   -0.79599E-02   -0.79715E-02   688   0.183E-01-0.603E-04
CGA:   6    -0.484621819777E+03   -0.36382E-02   -0.36351E-02   688   0.513E-02 0.126E-03
CGA:   7    -0.484622963054E+03   -0.11433E-02   -0.11429E-02   688   0.524E-02 0.620E-05
CGA:   8    -0.484623438317E+03   -0.47526E-03   -0.47269E-03   688   0.161E-02 0.156E-04
CGA:   9    -0.484623910484E+03   -0.47217E-03   -0.47231E-03   688   0.875E-03-0.943E-06
CGA:  10    -0.484624089650E+03   -0.17917E-03   -0.17914E-03   688   0.724E-03 0.116E-05
CGA:  11    -0.484624167699E+03   -0.78049E-04   -0.78167E-04   688   0.385E-03-0.116E-05
  50 F= -.48816002E+03 E0= -.48813418E+03  d E =-.805520E-02  mag=     2.0005
       N       E                     dE             d eps       ncg     rms          ort
SDA:   1    -0.480496136589E+03    0.41280E+01    0.00000E+00   688   0.101E+02 0.000E+00
CGA:   2    -0.483677329204E+03   -0.31812E+01   -0.31838E+01   688   0.339E+01-0.177E-01
CGA:   3    -0.484358633044E+03   -0.68130E+00   -0.68114E+00   688   0.134E+01 0.973E-02
CGA:   4    -0.484510635032E+03   -0.15200E+00   -0.15026E+00   688   0.705E+00-0.311E-02
CGA:   5    -0.484580853577E+03   -0.70219E-01   -0.70853E-01   688   0.179E+00-0.370E-02
CGA:   6    -0.484614763297E+03   -0.33910E-01   -0.33866E-01   688   0.457E-01 0.344E-02
CGA:   7    -0.484626805111E+03   -0.12042E-01   -0.12033E-01   688   0.351E-01 0.958E-04
CGA:   8    -0.484630062217E+03   -0.32571E-02   -0.31861E-02   688   0.163E-01 0.414E-03
CGA:   9    -0.484634292046E+03   -0.42298E-02   -0.42354E-02   688   0.746E-02-0.573E-04
CGA:  10    -0.484636016755E+03   -0.17247E-02   -0.17236E-02   688   0.440E-02 0.182E-04
CGA:  11    -0.484636719543E+03   -0.70279E-03   -0.70307E-03   688   0.396E-02 0.330E-05
CGA:  12    -0.484637144917E+03   -0.42537E-03   -0.42539E-03   688   0.943E-03 0.199E-05
CGA:  13    -0.484637418425E+03   -0.27351E-03   -0.27353E-03   688   0.466E-03-0.114E-06
CGA:  14    -0.484637493641E+03   -0.75216E-04   -0.75217E-04   688   0.470E-03 0.144E-06
  51 F= -.48817236E+03 E0= -.48814719E+03  d E =-.203953E-01  mag=     2.0004
       N       E                     dE             d eps       ncg     rms          ort
SDA:   1    -0.483976292025E+03    0.66113E+00    0.00000E+00   688   0.163E+01 0.000E+00
CGA:   2    -0.484490794094E+03   -0.51450E+00   -0.51477E+00   688   0.557E+00-0.186E-02
CGA:   3    -0.484605503541E+03   -0.11471E+00   -0.11456E+00   688   0.172E+00 0.532E-02
CGA:   4    -0.484632730746E+03   -0.27227E-01   -0.27265E-01   688   0.807E-01 0.308E-03
CGA:   5    -0.484639735912E+03   -0.70052E-02   -0.72121E-02   688   0.313E-01-0.131E-02
CGA:   6    -0.484644762231E+03   -0.50263E-02   -0.50348E-02   688   0.721E-02 0.156E-03
CGA:   7    -0.484646854332E+03   -0.20921E-02   -0.20938E-02   688   0.330E-02-0.146E-04
CGA:   8    -0.484647403740E+03   -0.54941E-03   -0.54914E-03   688   0.404E-02-0.326E-05
CGA:   9    -0.484647916965E+03   -0.51323E-03   -0.51299E-03   688   0.130E-02 0.726E-06
CGA:  10    -0.484648218726E+03   -0.30176E-03   -0.30169E-03   688   0.635E-03 0.101E-05
CGA:  11    -0.484648352985E+03   -0.13426E-03   -0.13428E-03   688   0.555E-03-0.883E-06
CGA:  12    -0.484648403424E+03   -0.50439E-04   -0.50344E-04   688   0.177E-03 0.105E-05
  52 F= -.48818294E+03 E0= -.48815801E+03  d E =-.105884E-01  mag=     2.0003
       N       E                     dE             d eps       ncg     rms          ort
SDA:   1    -0.483826651280E+03    0.82170E+00    0.00000E+00   688   0.200E+01 0.000E+00
CGA:   2    -0.484461351062E+03   -0.63470E+00   -0.63500E+00   688   0.665E+00-0.207E-02
CGA:   3    -0.484602355612E+03   -0.14100E+00   -0.14082E+00   688   0.198E+00 0.585E-02
CGA:   4    -0.484633796770E+03   -0.31441E-01   -0.31484E-01   688   0.996E-01 0.278E-03
CGA:   5    -0.484642305260E+03   -0.85085E-02   -0.88082E-02   688   0.364E-01-0.198E-02
CGA:   6    -0.484648212529E+03   -0.59073E-02   -0.59195E-02   688   0.892E-02 0.212E-03
CGA:   7    -0.484650745457E+03   -0.25329E-02   -0.25351E-02   688   0.408E-02-0.194E-04
CGA:   8    -0.484651387876E+03   -0.64242E-03   -0.64159E-03   688   0.495E-02-0.566E-05
CGA:   9    -0.484652057909E+03   -0.67003E-03   -0.66973E-03   688   0.144E-02 0.441E-06
CGA:  10    -0.484652414395E+03   -0.35649E-03   -0.35642E-03   688   0.790E-03 0.872E-06
CGA:  11    -0.484652557426E+03   -0.14303E-03   -0.14302E-03   688   0.684E-03-0.779E-06
CGA:  12    -0.484652623037E+03   -0.65611E-04   -0.65534E-04   688   0.199E-03 0.909E-06
  53 F= -.48818680E+03 E0= -.48816212E+03  d E =-.144455E-01  mag=     2.0002
       N       E                     dE             d eps       ncg     rms          ort
SDA:   1    -0.484154605397E+03    0.49795E+00    0.00000E+00   688   0.123E+01 0.000E+00
CGA:   2    -0.484542043370E+03   -0.38744E+00   -0.38766E+00   688   0.420E+00-0.162E-02
CGA:   3    -0.484629050238E+03   -0.87007E-01   -0.86878E-01   688   0.118E+00 0.623E-02
CGA:   4    -0.484651505251E+03   -0.22455E-01   -0.22426E-01   688   0.300E-01-0.132E-02
CGA:   5    -0.484656541533E+03   -0.50363E-02   -0.50350E-02   688   0.216E-01-0.136E-04
CGA:   6    -0.484658378407E+03   -0.18369E-02   -0.18504E-02   688   0.608E-02-0.101E-03
CGA:   7    -0.484659898931E+03   -0.15205E-02   -0.15204E-02   688   0.223E-02 0.875E-06
CGA:   8    -0.484660435366E+03   -0.53643E-03   -0.53658E-03   688   0.275E-02-0.187E-05
CGA:   9    -0.484660706097E+03   -0.27073E-03   -0.26942E-03   688   0.995E-03 0.868E-05
CGA:  10    -0.484660928940E+03   -0.22284E-03   -0.22291E-03   688   0.457E-03-0.142E-05
CGA:  11    -0.484661023334E+03   -0.94393E-04   -0.94379E-04   688   0.363E-03 0.590E-06
  54 F= -.48819493E+03 E0= -.48817040E+03  d E =-.813029E-02  mag=     2.0001
       N       E                     dE             d eps       ncg     rms          ort
SDA:   1    -0.480115791113E+03    0.45451E+01    0.00000E+00   688   0.111E+02 0.000E+00
CGA:   2    -0.483592685929E+03   -0.34769E+01   -0.34848E+01   688   0.394E+01-0.561E-01
CGA:   3    -0.484374318616E+03   -0.78163E+00   -0.77992E+00   688   0.105E+01 0.172E+00
CGA:   4    -0.484585683149E+03   -0.21136E+00   -0.21128E+00   688   0.268E+00-0.320E-01
CGA:   5    -0.484636989594E+03   -0.51306E-01   -0.51308E-01   688   0.140E+00-0.209E-03
CGA:   6    -0.484649499792E+03   -0.12510E-01   -0.11856E-01   688   0.582E-01 0.464E-02
CGA:   7    -0.484662798618E+03   -0.13299E-01   -0.13302E-01   688   0.189E-01-0.667E-04
CGA:   8    -0.484668602155E+03   -0.58035E-02   -0.57510E-02   688   0.123E-01 0.401E-03
CGA:   9    -0.484670550449E+03   -0.19483E-02   -0.19536E-02   688   0.125E-01 0.332E-04
CGA:  10    -0.484671942796E+03   -0.13923E-02   -0.13917E-02   688   0.377E-02 0.569E-05
CGA:  11    -0.484672900003E+03   -0.95721E-03   -0.95584E-03   688   0.127E-02 0.165E-04
CGA:  12    -0.484673210610E+03   -0.31061E-03   -0.31056E-03   688   0.134E-02 0.920E-06
CGA:  13    -0.484673326317E+03   -0.11571E-03   -0.11618E-03   688   0.450E-03-0.391E-05
CGA:  14    -0.484673440955E+03   -0.11464E-03   -0.11448E-03   688   0.216E-03 0.193E-05
CGA:  15    -0.484673499738E+03   -0.58783E-04   -0.58800E-04   688   0.197E-03-0.197E-06
  55 F= -.48820659E+03 E0= -.48818239E+03  d E =-.197870E-01  mag=     2.0000
       N       E                     dE             d eps       ncg     rms          ort
SDA:   1    -0.484319095539E+03    0.35435E+00    0.00000E+00   688   0.884E+00 0.000E+00
CGA:   2    -0.484594027341E+03   -0.27493E+00   -0.27522E+00   688   0.327E+00-0.215E-02
CGA:   3    -0.484657509771E+03   -0.63482E-01   -0.63527E-01   688   0.116E+00 0.607E-02
CGA:   4    -0.484671145703E+03   -0.13636E-01   -0.13925E-01   688   0.764E-01-0.678E-03
CGA:   5    -0.484678704796E+03   -0.75591E-02   -0.75634E-02   688   0.133E-01-0.327E-04
CGA:   6    -0.484681889989E+03   -0.31852E-02   -0.31820E-02   688   0.370E-02 0.456E-04
CGA:   7    -0.484683000376E+03   -0.11104E-02   -0.11116E-02   688   0.159E-02-0.104E-04
CGA:   8    -0.484683460687E+03   -0.46031E-03   -0.45924E-03   688   0.106E-02 0.998E-05
CGA:   9    -0.484683605822E+03   -0.14513E-03   -0.14537E-03   688   0.108E-02-0.330E-06
CGA:  10    -0.484683744669E+03   -0.13885E-03   -0.13888E-03   688   0.273E-03-0.147E-06
CGA:  11    -0.484683822013E+03   -0.77344E-04   -0.77346E-04   688   0.109E-03-0.981E-07
  56 F= -.48821680E+03 E0= -.48819266E+03  d E =-.102098E-01  mag=     2.0000
       N       E                     dE             d eps       ncg     rms          ort
SDA:   1    -0.483913070763E+03    0.77067E+00    0.00000E+00   688   0.188E+01 0.000E+00
CGA:   2    -0.484497856869E+03   -0.58479E+00   -0.58571E+00   688   0.707E+00-0.723E-02
CGA:   3    -0.484633630189E+03   -0.13577E+00   -0.13629E+00   688   0.238E+00 0.175E-01
CGA:   4    -0.484663255349E+03   -0.29625E-01   -0.30463E-01   688   0.166E+00-0.159E-02
CGA:   5    -0.484678786092E+03   -0.15531E-01   -0.15505E-01   688   0.282E-01 0.473E-04
CGA:   6    -0.484685567935E+03   -0.67818E-02   -0.67724E-02   688   0.848E-02 0.150E-03
CGA:   7    -0.484687532404E+03   -0.19645E-02   -0.19636E-02   688   0.969E-02 0.154E-04
CGA:   8    -0.484688351784E+03   -0.81938E-03   -0.81117E-03   688   0.309E-02 0.623E-04
CGA:   9    -0.484689195688E+03   -0.84390E-03   -0.84307E-03   688   0.145E-02 0.915E-05
CGA:  10    -0.484689583455E+03   -0.38777E-03   -0.38809E-03   688   0.862E-03-0.370E-05
CGA:  11    -0.484689678991E+03   -0.95536E-04   -0.95266E-04   688   0.712E-03 0.118E-05
CGA:  12    -0.484689789586E+03   -0.11059E-03   -0.11055E-03   688   0.171E-03-0.673E-06
CGA:  13    -0.484689840103E+03   -0.50518E-04   -0.50491E-04   688   0.727E-04 0.267E-06
  57 F= -.48822264E+03 E0= -.48819863E+03  d E =-.160539E-01  mag=     2.0000
       N       E                     dE             d eps       ncg     rms          ort
SDA:   1    -0.484241731667E+03    0.44806E+00    0.00000E+00   688   0.110E+01 0.000E+00
CGA:   2    -0.484583124622E+03   -0.34139E+00   -0.34186E+00   688   0.426E+00-0.374E-02
CGA:   3    -0.484667076076E+03   -0.83951E-01   -0.84178E-01   688   0.109E+00 0.761E-02
CGA:   4    -0.484689873222E+03   -0.22797E-01   -0.22787E-01   688   0.262E-01-0.976E-03
CGA:   5    -0.484694134762E+03   -0.42615E-02   -0.42488E-02   688   0.239E-01-0.524E-04
CGA:   6    -0.484696190528E+03   -0.20558E-02   -0.20643E-02   688   0.520E-02-0.672E-04
CGA:   7    -0.484697645813E+03   -0.14553E-02   -0.14554E-02   688   0.218E-02-0.217E-05
CGA:   8    -0.484698100399E+03   -0.45459E-03   -0.45459E-03   688   0.298E-02 0.228E-06
CGA:   9    -0.484698397853E+03   -0.29745E-03   -0.29606E-03   688   0.827E-03 0.105E-04
CGA:  10    -0.484698614003E+03   -0.21615E-03   -0.21628E-03   688   0.392E-03-0.191E-05
CGA:  11    -0.484698677700E+03   -0.63696E-04   -0.63682E-04   688   0.405E-03-0.510E-08
  58 F= -.48823150E+03 E0= -.48820762E+03  d E =-.885440E-02  mag=     2.0000
       N       E                     dE             d eps       ncg     rms          ort
SDA:   1    -0.484561429891E+03    0.13718E+00    0.00000E+00   688   0.333E+00 0.000E+00
CGA:   2    -0.484664966129E+03   -0.10354E+00   -0.10362E+00   688   0.127E+00-0.645E-03
CGA:   3    -0.484690354110E+03   -0.25388E-01   -0.25395E-01   688   0.355E-01 0.110E-02
CGA:   4    -0.484696330040E+03   -0.59759E-02   -0.59757E-02   688   0.230E-01-0.447E-06
CGA:   5    -0.484698043407E+03   -0.17134E-02   -0.17531E-02   688   0.538E-02-0.364E-03
CGA:   6    -0.484699230056E+03   -0.11866E-02   -0.11859E-02   688   0.158E-02 0.163E-04
CGA:   7    -0.484699602500E+03   -0.37244E-03   -0.37238E-03   688   0.182E-02 0.145E-06
CGA:   8    -0.484699759898E+03   -0.15740E-03   -0.15676E-03   688   0.578E-03 0.436E-05
CGA:   9    -0.484699926757E+03   -0.16686E-03   -0.16676E-03   688   0.276E-03 0.112E-05
CGA:  10    -0.484699985338E+03   -0.58581E-04   -0.58585E-04   688   0.304E-03-0.267E-06
  59 F= -.48823281E+03 E0= -.48820901E+03  d E =-.101684E-01  mag=     2.0000
       N       E                     dE             d eps       ncg     rms          ort
SDA:   1    -0.484411530343E+03    0.28840E+00    0.00000E+00   688   0.715E+00 0.000E+00
CGA:   2    -0.484633291287E+03   -0.22176E+00   -0.22195E+00   688   0.284E+00-0.147E-02
CGA:   3    -0.484681828356E+03   -0.48537E-01   -0.48563E-01   688   0.164E+00 0.274E-03
CGA:   4    -0.484695590875E+03   -0.13763E-01   -0.13117E-01   688   0.477E-01 0.520E-02
CGA:   5    -0.484704022106E+03   -0.84312E-02   -0.84218E-02   688   0.104E-01-0.177E-03
CGA:   6    -0.484706490896E+03   -0.24688E-02   -0.24644E-02   688   0.489E-02 0.641E-04
CGA:   7    -0.484707020991E+03   -0.53010E-03   -0.53384E-03   688   0.392E-02-0.145E-04
CGA:   8    -0.484707671713E+03   -0.65072E-03   -0.65077E-03   688   0.107E-02 0.336E-06
CGA:   9    -0.484708009009E+03   -0.33730E-03   -0.33720E-03   688   0.868E-03 0.756E-06
CGA:  10    -0.484708095299E+03   -0.86290E-04   -0.86084E-04   688   0.551E-03 0.191E-05
CGA:  11    -0.484708199778E+03   -0.10448E-03   -0.10448E-03   688   0.172E-03-0.359E-06
CGA:  12    -0.484708239620E+03   -0.39842E-04   -0.39821E-04   688   0.149E-03 0.441E-06
  60 F= -.48824119E+03 E0= -.48821755E+03  d E =-.838002E-02  mag=     2.0000
       N       E                     dE             d eps       ncg     rms          ort
SDA:   1    -0.482048676265E+03    0.26595E+01    0.00000E+00   688   0.644E+01 0.000E+00
CGA:   2    -0.484032812379E+03   -0.19841E+01   -0.19920E+01   688   0.269E+01-0.594E-01
CGA:   3    -0.484495107881E+03   -0.46230E+00   -0.46393E+00   688   0.112E+01 0.346E-01
CGA:   4    -0.484608148885E+03   -0.11304E+00   -0.10468E+00   688   0.502E+00 0.414E-01
CGA:   5    -0.484679536340E+03   -0.71387E-01   -0.71350E-01   688   0.102E+00-0.616E-04
CGA:   6    -0.484700956619E+03   -0.21420E-01   -0.21432E-01   688   0.737E-01-0.286E-03
CGA:   7    -0.484707177345E+03   -0.62207E-02   -0.63689E-02   688   0.277E-01-0.988E-03
CGA:   8    -0.484713726284E+03   -0.65489E-02   -0.65486E-02   688   0.121E-01 0.405E-05
CGA:   9    -0.484715457939E+03   -0.17317E-02   -0.17362E-02   688   0.131E-01 0.260E-04
CGA:  10    -0.484717512923E+03   -0.20550E-02   -0.20533E-02   688   0.353E-02-0.180E-04
CGA:  11    -0.484718246659E+03   -0.73374E-03   -0.73297E-03   688   0.422E-02 0.174E-04
CGA:  12    -0.484718682857E+03   -0.43620E-03   -0.43498E-03   688   0.100E-02 0.561E-05
CGA:  13    -0.484718918559E+03   -0.23570E-03   -0.23573E-03   688   0.896E-03-0.225E-06
CGA:  14    -0.484719005249E+03   -0.86690E-04   -0.86456E-04   688   0.344E-03 0.217E-05
  61 F= -.48825230E+03 E0= -.48822920E+03  d E =-.194892E-01  mag=     2.0000
       N       E                     dE             d eps       ncg     rms          ort
SDA:   1    -0.484315424408E+03    0.40349E+00    0.00000E+00   688   0.100E+01 0.000E+00
CGA:   2    -0.484618863997E+03   -0.30344E+00   -0.30364E+00   688   0.480E+00-0.148E-02
CGA:   3    -0.484675884279E+03   -0.57020E-01   -0.58152E-01   688   0.321E+00-0.133E-02
CGA:   4    -0.484710033475E+03   -0.34149E-01   -0.33388E-01   688   0.611E-01 0.216E-02
CGA:   5    -0.484722331749E+03   -0.12298E-01   -0.12309E-01   688   0.163E-01-0.305E-03
CGA:   6    -0.484724572931E+03   -0.22412E-02   -0.22307E-02   688   0.148E-01-0.467E-04
CGA:   7    -0.484726263951E+03   -0.16910E-02   -0.16911E-02   688   0.320E-02-0.163E-05
CGA:   8    -0.484727176278E+03   -0.91233E-03   -0.91243E-03   688   0.247E-02-0.104E-05
CGA:   9    -0.484727423323E+03   -0.24704E-03   -0.24812E-03   688   0.154E-02-0.473E-05
CGA:  10    -0.484727763101E+03   -0.33978E-03   -0.33949E-03   688   0.570E-03 0.524E-05
CGA:  11    -0.484727877391E+03   -0.11429E-03   -0.11427E-03   688   0.642E-03 0.366E-06
CGA:  12    -0.484727941176E+03   -0.63785E-04   -0.63736E-04   688   0.169E-03 0.245E-06
  62 F= -.48826122E+03 E0= -.48823841E+03  d E =-.891650E-02  mag=     2.0000
       N       E                     dE             d eps       ncg     rms          ort
SDA:   1    -0.484169727070E+03    0.55815E+00    0.00000E+00   688   0.137E+01 0.000E+00
CGA:   2    -0.484582997168E+03   -0.41327E+00   -0.41376E+00   688   0.639E+00-0.371E-02
CGA:   3    -0.484663664445E+03   -0.80667E-01   -0.81989E-01   688   0.419E+00 0.998E-04
CGA:   4    -0.484707141856E+03   -0.43477E-01   -0.41884E-01   688   0.836E-01 0.583E-02
CGA:   5    -0.484723931493E+03   -0.16790E-01   -0.16803E-01   688   0.215E-01-0.412E-03
CGA:   6    -0.484727089608E+03   -0.31581E-02   -0.31453E-02   688   0.204E-01-0.106E-03
CGA:   7    -0.484729335438E+03   -0.22458E-02   -0.22477E-02   688   0.433E-02-0.505E-05
CGA:   8    -0.484730578713E+03   -0.12433E-02   -0.12434E-02   688   0.317E-02-0.989E-06
CGA:   9    -0.484730907488E+03   -0.32877E-03   -0.33035E-03   688   0.208E-02-0.548E-05
CGA:  10    -0.484731351981E+03   -0.44449E-03   -0.44422E-03   688   0.742E-03 0.595E-05
CGA:  11    -0.484731503650E+03   -0.15167E-03   -0.15162E-03   688   0.810E-03 0.934E-06
CGA:  12    -0.484731583764E+03   -0.80114E-04   -0.80032E-04   688   0.217E-03 0.438E-06
  63 F= -.48826483E+03 E0= -.48824239E+03  d E =-.125292E-01  mag=     2.0000
       N       E                     dE             d eps       ncg     rms          ort
SDA:   1    -0.484371897117E+03    0.35961E+00    0.00000E+00   688   0.897E+00 0.000E+00
CGA:   2    -0.484637828925E+03   -0.26593E+00   -0.26615E+00   688   0.489E+00-0.166E-02
CGA:   3    -0.484689731351E+03   -0.51902E-01   -0.53832E-01   688   0.293E+00-0.556E-02
CGA:   4    -0.484724005252E+03   -0.34274E-01   -0.33835E-01   688   0.552E-01 0.249E-03
CGA:   5    -0.484735149058E+03   -0.11144E-01   -0.11151E-01   688   0.158E-01-0.197E-03
CGA:   6    -0.484737103770E+03   -0.19547E-02   -0.19387E-02   688   0.128E-01-0.870E-05
CGA:   7    -0.484738830454E+03   -0.17267E-02   -0.17267E-02   688   0.291E-02 0.654E-06
CGA:   8    -0.484739645352E+03   -0.81490E-03   -0.81526E-03   688   0.262E-02-0.335E-05
CGA:   9    -0.484739892569E+03   -0.24722E-03   -0.24875E-03   688   0.127E-02-0.833E-05
CGA:  10    -0.484740207058E+03   -0.31449E-03   -0.31407E-03   688   0.528E-03 0.515E-05
CGA:  11    -0.484740300350E+03   -0.93292E-04   -0.93295E-04   688   0.571E-03-0.189E-06
  64 F= -.48827348E+03 E0= -.48825140E+03  d E =-.865462E-02  mag=     2.0000
       N       E                     dE             d eps       ncg     rms          ort
SDA:   1    -0.482472047292E+03    0.22682E+01    0.00000E+00   688   0.553E+01 0.000E+00
CGA:   2    -0.484126587398E+03   -0.16545E+01   -0.16583E+01   688   0.276E+01-0.279E-01
CGA:   3    -0.484473741925E+03   -0.34715E+00   -0.35957E+00   688   0.150E+01 0.885E-02
CGA:   4    -0.484650369907E+03   -0.17663E+00   -0.16109E+00   688   0.331E+00 0.353E-01
CGA:   5    -0.484715532078E+03   -0.65162E-01   -0.65159E-01   688   0.952E-01 0.130E-03
CGA:   6    -0.484728701239E+03   -0.13169E-01   -0.12979E-01   688   0.782E-01-0.946E-03
CGA:   7    -0.484738571611E+03   -0.98704E-02   -0.98815E-02   688   0.185E-01 0.262E-04
CGA:   8    -0.484743577304E+03   -0.50057E-02   -0.50078E-02   688   0.155E-01-0.190E-04
CGA:   9    -0.484745128932E+03   -0.15516E-02   -0.15744E-02   688   0.784E-02-0.748E-04
CGA:  10    -0.484746998381E+03   -0.18694E-02   -0.18680E-02   688   0.329E-02 0.184E-04
CGA:  11    -0.484747540716E+03   -0.54234E-03   -0.54279E-03   688   0.322E-02 0.146E-04
CGA:  12    -0.484747950240E+03   -0.40952E-03   -0.40923E-03   688   0.845E-03-0.110E-05
CGA:  13    -0.484748150875E+03   -0.20064E-03   -0.20054E-03   688   0.705E-03 0.126E-05
CGA:  14    -0.484748222903E+03   -0.72027E-04   -0.71863E-04   688   0.283E-03 0.167E-05
  65 F= -.48828123E+03 E0= -.48826024E+03  d E =-.163980E-01  mag=     2.0000
       N       E                     dE             d eps       ncg     rms          ort
[...]
CGA:   7    -0.487699726215E+03   -0.51524E-03   -0.51510E-03   688   0.728E-03 0.381E-05
CGA:   8    -0.487699965502E+03   -0.23929E-03   -0.23931E-03   688   0.274E-03-0.490E-06
CGA:   9    -0.487700050781E+03   -0.85279E-04   -0.85264E-04   688   0.815E-04 0.543E-06
 283 F= -.49127092E+03 E0= -.49127092E+03  d E =-.625065E-02  mag=     2.0000
       N       E                     dE             d eps       ncg     rms          ort
SDA:   1    -0.487441505684E+03    0.25846E+00    0.00000E+00   688   0.641E+00 0.000E+00
CGA:   2    -0.487643967835E+03   -0.20246E+00   -0.20246E+00   688   0.195E+00-0.115E-04
CGA:   3    -0.487690550774E+03   -0.46583E-01   -0.46585E-01   688   0.449E-01 0.119E-04
CGA:   4    -0.487699919296E+03   -0.93685E-02   -0.93684E-02   688   0.966E-02 0.568E-05
CGA:   5    -0.487702135338E+03   -0.22160E-02   -0.22161E-02   688   0.286E-02 0.172E-05
CGA:   6    -0.487702890206E+03   -0.75487E-03   -0.75482E-03   688   0.106E-02-0.324E-05
CGA:   7    -0.487703228332E+03   -0.33813E-03   -0.33802E-03   688   0.485E-03 0.268E-05
CGA:   8    -0.487703382287E+03   -0.15396E-03   -0.15396E-03   688   0.191E-03-0.200E-06
CGA:   9    -0.487703439409E+03   -0.57122E-04   -0.57115E-04   688   0.578E-04 0.411E-06
 284 F= -.49127431E+03 E0= -.49127431E+03  d E =-.338943E-02  mag=     2.0000
       N       E                     dE             d eps       ncg     rms          ort
SDA:   1    -0.487434822963E+03    0.26856E+00    0.00000E+00   688   0.660E+00 0.000E+00
CGA:   2    -0.487643363676E+03   -0.20854E+00   -0.20854E+00   688   0.200E+00-0.979E-05
CGA:   3    -0.487691437618E+03   -0.48074E-01   -0.48076E-01   688   0.454E-01 0.128E-04
CGA:   4    -0.487701058848E+03   -0.96212E-02   -0.96212E-02   688   0.954E-02 0.543E-05
CGA:   5    -0.487703297032E+03   -0.22382E-02   -0.22383E-02   688   0.287E-02 0.227E-05
CGA:   6    -0.487704044936E+03   -0.74790E-03   -0.74784E-03   688   0.110E-02-0.388E-05
CGA:   7    -0.487704384585E+03   -0.33965E-03   -0.33955E-03   688   0.504E-03 0.326E-05
CGA:   8    -0.487704542884E+03   -0.15830E-03   -0.15831E-03   688   0.196E-03-0.405E-06
CGA:   9    -0.487704601988E+03   -0.59104E-04   -0.59095E-04   688   0.586E-04 0.409E-06
 285 F= -.49127547E+03 E0= -.49127547E+03  d E =-.454787E-02  mag=     2.0000
       N       E                     dE             d eps       ncg     rms          ort
SDA:   1    -0.487539380949E+03    0.16516E+00    0.00000E+00   688   0.410E+00 0.000E+00
CGA:   2    -0.487669681045E+03   -0.13030E+00   -0.13030E+00   688   0.124E+00-0.182E-04
CGA:   3    -0.487699434622E+03   -0.29754E-01   -0.29754E-01   688   0.276E-01 0.460E-05
CGA:   4    -0.487705433116E+03   -0.59985E-02   -0.59987E-02   688   0.561E-02 0.545E-05
CGA:   5    -0.487706786085E+03   -0.13530E-02   -0.13530E-02   688   0.177E-02 0.195E-05
CGA:   6    -0.487707240773E+03   -0.45469E-03   -0.45463E-03   688   0.714E-03-0.289E-05
CGA:   7    -0.487707457395E+03   -0.21662E-03   -0.21655E-03   688   0.322E-03 0.264E-05
CGA:   8    -0.487707559710E+03   -0.10231E-03   -0.10232E-03   688   0.122E-03-0.220E-06
CGA:   9    -0.487707596606E+03   -0.36897E-04   -0.36894E-04   688   0.367E-04 0.117E-06
 286 F= -.49127851E+03 E0= -.49127851E+03  d E =-.304300E-02  mag=     2.0000
       N       E                     dE             d eps       ncg     rms          ort
SDA:   1    -0.486453124820E+03    0.12544E+01    0.00000E+00   688   0.307E+01 0.000E+00
CGA:   2    -0.487427083148E+03   -0.97396E+00   -0.97399E+00   688   0.928E+00-0.539E-03
CGA:   3    -0.487649627325E+03   -0.22254E+00   -0.22257E+00   688   0.208E+00 0.229E-03
CGA:   4    -0.487694603518E+03   -0.44976E-01   -0.44974E-01   688   0.432E-01 0.869E-05
CGA:   5    -0.487704843768E+03   -0.10240E-01   -0.10240E-01   688   0.137E-01 0.923E-05
CGA:   6    -0.487708290822E+03   -0.34471E-02   -0.34469E-02   688   0.538E-02-0.851E-05
CGA:   7    -0.487709929157E+03   -0.16383E-02   -0.16381E-02   688   0.237E-02 0.885E-05
CGA:   8    -0.487710697164E+03   -0.76801E-03   -0.76800E-03   688   0.868E-03 0.273E-07
CGA:   9    -0.487710967370E+03   -0.27021E-03   -0.27019E-03   688   0.256E-03 0.652E-06
CGA:  10    -0.487711047903E+03   -0.80533E-04   -0.80480E-04   688   0.827E-04 0.155E-05
 287 F= -.49128208E+03 E0= -.49128208E+03  d E =-.660591E-02  mag=     2.0000
       N       E                     dE             d eps       ncg     rms          ort
SDA:   1    -0.487529034691E+03    0.18193E+00    0.00000E+00   688   0.450E+00 0.000E+00
CGA:   2    -0.487671265218E+03   -0.14223E+00   -0.14223E+00   688   0.138E+00-0.119E-04
CGA:   3    -0.487704501290E+03   -0.33236E-01   -0.33237E-01   688   0.306E-01 0.143E-05
CGA:   4    -0.487711213782E+03   -0.67125E-02   -0.67128E-02   688   0.647E-02 0.966E-05
CGA:   5    -0.487712775250E+03   -0.15615E-02   -0.15614E-02   688   0.196E-02-0.301E-05
CGA:   6    -0.487713304085E+03   -0.52884E-03   -0.52885E-03   688   0.792E-03 0.188E-05
CGA:   7    -0.487713550703E+03   -0.24662E-03   -0.24663E-03   688   0.380E-03-0.274E-06
CGA:   8    -0.487713665599E+03   -0.11490E-03   -0.11488E-03   688   0.144E-03 0.751E-06
CGA:   9    -0.487713708931E+03   -0.43332E-04   -0.43329E-04   688   0.432E-04 0.161E-06
 288 F= -.49128498E+03 E0= -.49128498E+03  d E =-.289947E-02  mag=     2.0000
       N       E                     dE             d eps       ncg     rms          ort
SDA:   1    -0.487477545707E+03    0.23612E+00    0.00000E+00   688   0.577E+00 0.000E+00
CGA:   2    -0.487660144533E+03   -0.18260E+00   -0.18260E+00   688   0.177E+00-0.198E-04
CGA:   3    -0.487702814859E+03   -0.42670E-01   -0.42672E-01   688   0.390E-01 0.642E-05
CGA:   4    -0.487711462022E+03   -0.86472E-02   -0.86474E-02   688   0.804E-02 0.926E-05
CGA:   5    -0.487713440886E+03   -0.19789E-02   -0.19788E-02   688   0.248E-02-0.182E-05
CGA:   6    -0.487714112846E+03   -0.67196E-03   -0.67197E-03   688   0.992E-03 0.888E-06
CGA:   7    -0.487714428746E+03   -0.31590E-03   -0.31587E-03   688   0.452E-03 0.829E-06
CGA:   8    -0.487714571625E+03   -0.14288E-03   -0.14287E-03   688   0.167E-03 0.252E-06
CGA:   9    -0.487714621915E+03   -0.50289E-04   -0.50284E-04   688   0.506E-04 0.293E-06
 289 F= -.49128615E+03 E0= -.49128615E+03  d E =-.407572E-02  mag=     2.0000
       N       E                     dE             d eps       ncg     rms          ort
SDA:   1    -0.487599808587E+03    0.11476E+00    0.00000E+00   688   0.285E+00 0.000E+00
CGA:   2    -0.487689706122E+03   -0.89898E-01   -0.89897E-01   688   0.881E-01 0.429E-05
CGA:   3    -0.487710946893E+03   -0.21241E-01   -0.21241E-01   688   0.196E-01 0.206E-06
CGA:   4    -0.487715167541E+03   -0.42206E-02   -0.42207E-02   688   0.428E-02 0.273E-05
CGA:   5    -0.487716175170E+03   -0.10076E-02   -0.10075E-02   688   0.129E-02-0.258E-05
CGA:   6    -0.487716520822E+03   -0.34565E-03   -0.34566E-03   688   0.507E-03 0.275E-06
CGA:   7    -0.487716677515E+03   -0.15669E-03   -0.15668E-03   688   0.242E-03 0.530E-06
CGA:   8    -0.487716750073E+03   -0.72558E-04   -0.72557E-04   688   0.939E-04 0.438E-07
 290 F= -.49128841E+03 E0= -.49128841E+03  d E =-.226090E-02  mag=     2.0000
       N       E                     dE             d eps       ncg     rms          ort
SDA:   1    -0.487532512719E+03    0.18416E+00    0.00000E+00   688   0.451E+00 0.000E+00
CGA:   2    -0.487674792668E+03   -0.14228E+00   -0.14228E+00   688   0.139E+00 0.120E-04
CGA:   3    -0.487708362587E+03   -0.33570E-01   -0.33571E-01   688   0.311E-01 0.285E-05
CGA:   4    -0.487715080787E+03   -0.67182E-02   -0.67182E-02   688   0.656E-02 0.315E-05
CGA:   5    -0.487716694957E+03   -0.16142E-02   -0.16141E-02   688   0.195E-02-0.272E-05
CGA:   6    -0.487717230939E+03   -0.53598E-03   -0.53598E-03   688   0.793E-03 0.225E-06
CGA:   7    -0.487717470072E+03   -0.23913E-03   -0.23911E-03   688   0.390E-03 0.869E-06
CGA:   8    -0.487717582731E+03   -0.11266E-03   -0.11266E-03   688   0.148E-03-0.226E-07
CGA:   9    -0.487717627330E+03   -0.44600E-04   -0.44595E-04   688   0.418E-04 0.189E-06
 291 F= -.49128945E+03 E0= -.49128945E+03  d E =-.330205E-02  mag=     2.0000
       N       E                     dE             d eps       ncg     rms          ort
SDA:   1    -0.487618831027E+03    0.98752E-01    0.00000E+00   688   0.246E+00 0.000E+00
CGA:   2    -0.487696609577E+03   -0.77779E-01   -0.77779E-01   688   0.753E-01-0.993E-05
CGA:   3    -0.487714816983E+03   -0.18207E-01   -0.18208E-01   688   0.163E-01-0.284E-05
CGA:   4    -0.487718436470E+03   -0.36195E-02   -0.36196E-02   688   0.337E-02 0.400E-05
CGA:   5    -0.487719262987E+03   -0.82652E-03   -0.82647E-03   688   0.105E-02-0.144E-05
CGA:   6    -0.487719539918E+03   -0.27693E-03   -0.27694E-03   688   0.431E-03 0.666E-06
CGA:   7    -0.487719669500E+03   -0.12958E-03   -0.12958E-03   688   0.204E-03 0.281E-06
CGA:   8    -0.487719730837E+03   -0.61337E-04   -0.61341E-04   688   0.774E-04-0.170E-06
 292 F= -.49129155E+03 E0= -.49129155E+03  d E =-.209213E-02  mag=     2.0000
       N       E                     dE             d eps       ncg     rms          ort
SDA:   1    -0.487082397868E+03    0.63727E+00    0.00000E+00   688   0.156E+01 0.000E+00
CGA:   2    -0.487575215538E+03   -0.49282E+00   -0.49283E+00   688   0.477E+00-0.184E-03
CGA:   3    -0.487690495419E+03   -0.11528E+00   -0.11529E+00   688   0.104E+00 0.603E-04
CGA:   4    -0.487713521058E+03   -0.23026E-01   -0.23025E-01   688   0.210E-01 0.469E-05
CGA:   5    -0.487718853788E+03   -0.53327E-02   -0.53328E-02   688   0.621E-02 0.107E-05
CGA:   6    -0.487720599728E+03   -0.17459E-02   -0.17459E-02   688   0.254E-02-0.129E-05
CGA:   7    -0.487721382449E+03   -0.78272E-03   -0.78260E-03   688   0.122E-02 0.384E-05
CGA:   8    -0.487721737770E+03   -0.35532E-03   -0.35534E-03   688   0.463E-03-0.177E-05
CGA:   9    -0.487721873065E+03   -0.13529E-03   -0.13528E-03   688   0.134E-03 0.768E-06
CGA:  10    -0.487721915729E+03   -0.42664E-04   -0.42631E-04   688   0.429E-04 0.828E-06
 293 F= -.49129369E+03 E0= -.49129369E+03  d E =-.423523E-02  mag=     2.0000
       N       E                     dE             d eps       ncg     rms          ort
SDA:   1    -0.487511050477E+03    0.21082E+00    0.00000E+00   688   0.521E+00 0.000E+00
CGA:   2    -0.487676253412E+03   -0.16520E+00   -0.16520E+00   688   0.159E+00-0.814E-05
CGA:   3    -0.487714529243E+03   -0.38276E-01   -0.38276E-01   688   0.342E-01-0.417E-05
CGA:   4    -0.487722051978E+03   -0.75227E-02   -0.75229E-02   688   0.705E-02 0.664E-05
CGA:   5    -0.487723791160E+03   -0.17392E-02   -0.17391E-02   688   0.207E-02-0.326E-05
CGA:   6    -0.487724355732E+03   -0.56457E-03   -0.56459E-03   688   0.836E-03 0.335E-05
CGA:   7    -0.487724614177E+03   -0.25844E-03   -0.25849E-03   688   0.404E-03-0.148E-05
CGA:   8    -0.487724733557E+03   -0.11938E-03   -0.11936E-03   688   0.152E-03 0.109E-05
CGA:   9    -0.487724779200E+03   -0.45643E-04   -0.45646E-04   688   0.452E-04-0.169E-06
 294 F= -.49129646E+03 E0= -.49129646E+03  d E =-.277283E-02  mag=     2.0000
       N       E                     dE             d eps       ncg     rms          ort
SDA:   1    -0.487054316292E+03    0.67042E+00    0.00000E+00   688   0.164E+01 0.000E+00
CGA:   2    -0.487574082841E+03   -0.51977E+00   -0.51977E+00   688   0.499E+00-0.746E-04
CGA:   3    -0.487694607718E+03   -0.12052E+00   -0.12053E+00   688   0.107E+00 0.362E-04
CGA:   4    -0.487718378825E+03   -0.23771E-01   -0.23770E-01   688   0.219E-01 0.505E-05
CGA:   5    -0.487723819121E+03   -0.54403E-02   -0.54403E-02   688   0.649E-02 0.118E-06
CGA:   6    -0.487725598100E+03   -0.17790E-02   -0.17790E-02   688   0.259E-02 0.142E-05
CGA:   7    -0.487726414919E+03   -0.81682E-03   -0.81675E-03   688   0.120E-02 0.194E-05
CGA:   8    -0.487726781801E+03   -0.36688E-03   -0.36690E-03   688   0.458E-03-0.579E-06
CGA:   9    -0.487726915646E+03   -0.13385E-03   -0.13384E-03   688   0.137E-03 0.678E-06
CGA:  10    -0.487726958706E+03   -0.43060E-04   -0.43042E-04   688   0.432E-04 0.568E-06
 295 F= -.49129847E+03 E0= -.49129847E+03  d E =-.478039E-02  mag=     2.0000
       N       E                     dE             d eps       ncg     rms          ort
SDA:   1    -0.487367882192E+03    0.35903E+00    0.00000E+00   688   0.884E+00 0.000E+00
CGA:   2    -0.487645914342E+03   -0.27803E+00   -0.27803E+00   688   0.271E+00 0.856E-04
CGA:   3    -0.487711392039E+03   -0.65478E-01   -0.65477E-01   688   0.602E-01-0.298E-05
CGA:   4    -0.487724171649E+03   -0.12780E-01   -0.12779E-01   688   0.128E-01 0.413E-06
CGA:   5    -0.487727225362E+03   -0.30537E-02   -0.30536E-02   688   0.356E-02-0.247E-05
CGA:   6    -0.487728213541E+03   -0.98818E-03   -0.98818E-03   688   0.131E-02 0.801E-06
CGA:   7    -0.487728652288E+03   -0.43875E-03   -0.43869E-03   688   0.586E-03 0.103E-05
CGA:   8    -0.487728843051E+03   -0.19076E-03   -0.19078E-03   688   0.226E-03-0.386E-06
CGA:   9    -0.487728909613E+03   -0.66562E-04   -0.66557E-04   688   0.711E-04 0.576E-06
 296 F= -.49130029E+03 E0= -.49130029E+03  d E =-.182180E-02  mag=     2.0000
       N       E                     dE             d eps       ncg     rms          ort
SDA:   1    -0.487718939676E+03    0.99034E-02    0.00000E+00   688   0.246E-01 0.000E+00
CGA:   2    -0.487726675777E+03   -0.77361E-02   -0.77361E-02   688   0.758E-02 0.161E-05
CGA:   3    -0.487728492137E+03   -0.18164E-02   -0.18164E-02   688   0.180E-02 0.129E-05
CGA:   4    -0.487728853437E+03   -0.36130E-03   -0.36128E-03   688   0.416E-03-0.301E-06
CGA:   5    -0.487728944453E+03   -0.91015E-04   -0.91074E-04   688   0.128E-03 0.954E-06
 297 F= -.49130035E+03 E0= -.49130035E+03  d E =-.187864E-02  mag=     2.0000
       N       E                     dE             d eps       ncg     rms          ort
SDA:   1    -0.487538066769E+03    0.19079E+00    0.00000E+00   688   0.474E+00 0.000E+00
CGA:   2    -0.487687301485E+03   -0.14923E+00   -0.14923E+00   688   0.143E+00-0.903E-05
CGA:   3    -0.487722258074E+03   -0.34957E-01   -0.34957E-01   688   0.305E-01-0.169E-05
CGA:   4    -0.487728911694E+03   -0.66536E-02   -0.66537E-02   688   0.641E-02 0.411E-05
CGA:   5    -0.487730407208E+03   -0.14955E-02   -0.14955E-02   688   0.207E-02-0.916E-06
CGA:   6    -0.487730893708E+03   -0.48650E-03   -0.48652E-03   688   0.807E-03 0.632E-06
CGA:   7    -0.487731128645E+03   -0.23494E-03   -0.23492E-03   688   0.354E-03 0.775E-06
CGA:   8    -0.487731244777E+03   -0.11613E-03   -0.11614E-03   688   0.135E-03-0.226E-06
CGA:   9    -0.487731287484E+03   -0.42707E-04   -0.42697E-04   688   0.415E-04 0.249E-06
 298 F= -.49130268E+03 E0= -.49130268E+03  d E =-.233019E-02  mag=     2.0000
       N       E                     dE             d eps       ncg     rms          ort
SDA:   1    -0.487577051135E+03    0.15419E+00    0.00000E+00   688   0.380E+00 0.000E+00
CGA:   2    -0.487696634712E+03   -0.11958E+00   -0.11958E+00   688   0.115E+00-0.668E-05
CGA:   3    -0.487724561296E+03   -0.27927E-01   -0.27927E-01   688   0.249E-01-0.254E-05
CGA:   4    -0.487730036668E+03   -0.54754E-02   -0.54754E-02   688   0.517E-02 0.365E-05
CGA:   5    -0.487731276219E+03   -0.12396E-02   -0.12395E-02   688   0.166E-02-0.864E-06
CGA:   6    -0.487731685633E+03   -0.40941E-03   -0.40943E-03   688   0.682E-03 0.647E-06
CGA:   7    -0.487731885135E+03   -0.19950E-03   -0.19949E-03   688   0.313E-03 0.618E-06
CGA:   8    -0.487731984578E+03   -0.99443E-04   -0.99453E-04   688   0.119E-03-0.232E-06
 299 F= -.49130336E+03 E0= -.49130336E+03  d E =-.301285E-02  mag=     2.0000
       N       E                     dE             d eps       ncg     rms          ort
SDA:   1    -0.487612976850E+03    0.11891E+00    0.00000E+00   688   0.297E+00 0.000E+00
CGA:   2    -0.487705953298E+03   -0.92976E-01   -0.92977E-01   688   0.900E-01-0.429E-05
CGA:   3    -0.487727823560E+03   -0.21870E-01   -0.21870E-01   688   0.196E-01-0.214E-05
CGA:   4    -0.487732121422E+03   -0.42979E-02   -0.42981E-02   688   0.390E-02 0.526E-05
CGA:   5    -0.487733105271E+03   -0.98385E-03   -0.98381E-03   688   0.113E-02-0.180E-05
CGA:   6    -0.487733415171E+03   -0.30990E-03   -0.30990E-03   688   0.466E-03 0.214E-05
CGA:   7    -0.487733555709E+03   -0.14054E-03   -0.14056E-03   688   0.234E-03-0.789E-06
CGA:   8    -0.487733624676E+03   -0.68968E-04   -0.68956E-04   688   0.893E-04 0.576E-06
 300 F= -.49130523E+03 E0= -.49130523E+03  d E =-.186820E-02  mag=     2.0000
       N       E                     dE             d eps       ncg     rms          ort
SDA:   1    -0.487558302155E+03    0.17525E+00    0.00000E+00   688   0.433E+00 0.000E+00
CGA:   2    -0.487693779851E+03   -0.13548E+00   -0.13548E+00   688   0.131E+00-0.132E-04
CGA:   3    -0.487725668093E+03   -0.31888E-01   -0.31889E-01   688   0.285E-01 0.106E-05
CGA:   4    -0.487731921060E+03   -0.62530E-02   -0.62531E-02   688   0.575E-02 0.515E-05
CGA:   5    -0.487733343008E+03   -0.14219E-02   -0.14219E-02   688   0.173E-02-0.751E-06
CGA:   6    -0.487733794065E+03   -0.45106E-03   -0.45107E-03   688   0.714E-03 0.110E-05
CGA:   7    -0.487734004354E+03   -0.21029E-03   -0.21028E-03   688   0.342E-03 0.433E-06
CGA:   8    -0.487734109614E+03   -0.10526E-03   -0.10526E-03   688   0.131E-03 0.455E-07
CGA:   9    -0.487734150125E+03   -0.40511E-04   -0.40501E-04   688   0.396E-04 0.311E-06
 301 F= -.49130603E+03 E0= -.49130603E+03  d E =-.266511E-02  mag=     2.0000
       N       E                     dE             d eps       ncg     rms          ort
SDA:   1    -0.487649862495E+03    0.84247E-01    0.00000E+00   688   0.212E+00 0.000E+00
CGA:   2    -0.487715723764E+03   -0.65861E-01   -0.65861E-01   688   0.636E-01-0.222E-05
CGA:   3    -0.487731197351E+03   -0.15474E-01   -0.15474E-01   688   0.141E-01-0.156E-05
CGA:   4    -0.487734202254E+03   -0.30049E-02   -0.30050E-02   688   0.301E-02 0.175E-05
CGA:   5    -0.487734895845E+03   -0.69359E-03   -0.69351E-03   688   0.873E-03-0.189E-05
CGA:   6    -0.487735122542E+03   -0.22670E-03   -0.22671E-03   688   0.319E-03 0.674E-06
CGA:   7    -0.487735223908E+03   -0.10137E-03   -0.10138E-03   688   0.150E-03-0.249E-06
CGA:   8    -0.487735271394E+03   -0.47486E-04   -0.47476E-04   688   0.600E-04 0.216E-06
 302 F= -.49130729E+03 E0= -.49130729E+03  d E =-.126010E-02  mag=     2.0000
       N       E                     dE             d eps       ncg     rms          ort
SDA:   1    -0.487698736903E+03    0.36487E-01    0.00000E+00   688   0.909E-01 0.000E+00
CGA:   2    -0.487727039479E+03   -0.28303E-01   -0.28303E-01   688   0.273E-01 0.216E-06
CGA:   3    -0.487733668937E+03   -0.66295E-02   -0.66294E-02   688   0.611E-02-0.166E-05
CGA:   4    -0.487734968523E+03   -0.12996E-02   -0.12996E-02   688   0.126E-02 0.107E-05
CGA:   5    -0.487735268451E+03   -0.29993E-03   -0.29988E-03   688   0.388E-03-0.131E-05
CGA:   6    -0.487735363999E+03   -0.95548E-04   -0.95560E-04   688   0.156E-03 0.485E-06
 303 F= -.49130747E+03 E0= -.49130747E+03  d E =-.144265E-02  mag=     2.0000
       N       E                     dE             d eps       ncg     rms          ort
SDA:   1    -0.487648171802E+03    0.87097E-01    0.00000E+00   688   0.220E+00 0.000E+00
CGA:   2    -0.487716625328E+03   -0.68454E-01   -0.68454E-01   688   0.652E-01-0.684E-05
CGA:   3    -0.487732469085E+03   -0.15844E-01   -0.15844E-01   688   0.143E-01-0.304E-05
CGA:   4    -0.487735559769E+03   -0.30907E-02   -0.30909E-02   688   0.328E-02 0.500E-05
CGA:   5    -0.487736272685E+03   -0.71292E-03   -0.71289E-03   688   0.110E-02-0.799E-06
CGA:   6    -0.487736531135E+03   -0.25845E-03   -0.25846E-03   688   0.395E-03 0.411E-06
CGA:   7    -0.487736657026E+03   -0.12589E-03   -0.12588E-03   688   0.179E-03 0.161E-06
CGA:   8    -0.487736717217E+03   -0.60192E-04   -0.60212E-04   688   0.705E-04-0.308E-06
 304 F= -.49130889E+03 E0= -.49130889E+03  d E =-.141809E-02  mag=     2.0000
