       N       E                     dE             d eps       ncg     rms          ort
DAV:   1     0.263544227813E+04    0.26354E+04   -0.97233E+04   688   0.109E+03
DAV:   2     0.222519978928E+03   -0.24129E+04   -0.22982E+04   688   0.256E+02
DAV:   3    -0.474302170021E+03   -0.69682E+03   -0.68986E+03   688   0.148E+02
DAV:   4    -0.513156661292E+03   -0.38854E+02   -0.37642E+02   688   0.475E+01
DAV:   5    -0.514774018716E+03   -0.16174E+01   -0.15901E+01   688   0.907E+00
SDA:   6    -0.401505731251E+03    0.11327E+03   -0.15901E+01   688   0.493E+03 0.000E+00
CGA:   7    -0.434848097093E+03   -0.33342E+02   -0.44366E+02   688   0.168E+03 0.392E+02
CGA:   8    -0.456449383447E+03   -0.21601E+02   -0.16480E+02   688   0.256E+03-0.203E+03
CGA:   9    -0.456672985279E+03   -0.22360E+00   -0.15944E+02   688   0.227E+03-0.152E+03
CGA:  10    -0.446318115878E+03    0.10355E+02   -0.15892E+02   688   0.170E+03-0.991E+02
CGA:  11    -0.470794256290E+03   -0.24476E+02   -0.42390E+01   688   0.143E+03 0.359E+03
CGA:  12    -0.463640486344E+03    0.71538E+01   -0.84907E+01   688   0.308E+03-0.612E+02
CGA:  13    -0.458210253508E+03    0.54302E+01   -0.12301E+02   688   0.345E+03-0.106E+03
CGA:  14    -0.459479229142E+03   -0.12690E+01   -0.13448E+02   688   0.469E+03-0.207E+03
CGA:  15    -0.450887164228E+03    0.85921E+01   -0.32079E+02   688   0.221E+03-0.144E+03
CGA:  16    -0.466724347135E+03   -0.15837E+02   -0.77888E+01   688   0.319E+03-0.271E+03
CGA:  17    -0.459797334074E+03    0.69270E+01   -0.17688E+02   688   0.155E+03-0.793E+02
CGA:  18    -0.469520080783E+03   -0.97227E+01   -0.41263E+01   688   0.391E+03-0.452E+03
CGA:  19    -0.459244120458E+03    0.10276E+02   -0.22323E+02   688   0.280E+03-0.103E+03
CGA:  20    -0.465252705144E+03   -0.60086E+01   -0.92788E+01   688   0.511E+03-0.392E+03
CGA:  21    -0.458651960432E+03    0.66007E+01   -0.27251E+02   688   0.191E+03-0.134E+03
CGA:  22    -0.467889436819E+03   -0.92375E+01   -0.59597E+01   688   0.375E+03-0.469E+03
CGA:  23    -0.457658706152E+03    0.10231E+02   -0.18901E+02   688   0.200E+03-0.117E+03
CGA:  24    -0.474464308845E+03   -0.16806E+02   -0.43692E+01   688   0.642E+02-0.191E+03
CGA:  25    -0.474359983097E+03    0.10433E+00   -0.18586E+01   688   0.925E+02-0.755E+02
CGA:  26    -0.474422690883E+03   -0.62708E-01   -0.23732E+01   688   0.796E+02-0.768E+02
CGA:  27    -0.474236424693E+03    0.18627E+00   -0.21161E+01   688   0.108E+03-0.968E+02
CGA:  28    -0.474172743043E+03    0.63682E-01   -0.27873E+01   688   0.101E+03-0.966E+02
CGA:  29    -0.473946813319E+03    0.22593E+00   -0.26912E+01   688   0.131E+03-0.119E+03
CGA:  30    -0.473970037063E+03   -0.23224E-01   -0.33687E+01   688   0.116E+03-0.115E+03
CGA:  31    -0.474034957499E+03   -0.64920E-01   -0.29919E+01   688   0.124E+03-0.124E+03
CGA:  32    -0.474484568290E+03   -0.44961E+00   -0.29940E+01   688   0.842E+02-0.971E+02
CGA:  33    -0.475223961461E+03   -0.73939E+00   -0.17922E+01   688   0.362E+02-0.570E+02
CGA:  34    -0.475631352586E+03   -0.40739E+00   -0.63766E+00   688   0.520E+01-0.127E+02
CGA:  35    -0.475712168280E+03   -0.80816E-01   -0.82116E-01   688   0.458E+00-0.535E-01
CGA:  36    -0.475772256845E+03   -0.60089E-01   -0.59108E-01   688   0.319E+01 0.160E-01
CGA:  37    -0.475906524448E+03   -0.13427E+00   -0.76738E-01   688   0.237E+01 0.234E+01
CGA:  38    -0.475952575149E+03   -0.46051E-01   -0.50553E-01   688   0.943E+00-0.171E+00
CGA:  39    -0.476380701033E+03   -0.42813E+00    0.59548E+02   688   0.113E+01 0.150E+00
CGA:  40    -0.476461758382E+03   -0.81057E-01   -0.76758E-01   688   0.152E+01 0.539E-01
CGA:  41    -0.476662323559E+03   -0.20057E+00   -0.19916E+00   688   0.468E+01-0.297E+00
CGA:  42    -0.476768542244E+03   -0.10622E+00   -0.83019E-01   688   0.432E+01 0.111E+01
CGA:  43    -0.476924479808E+03   -0.15594E+00   -0.14595E+00   688   0.250E+01 0.276E+00
CGA:  44    -0.476997482579E+03   -0.73003E-01   -0.10198E+00   688   0.260E+01-0.570E+00
CGA:  45    -0.477055938145E+03   -0.58456E-01   -0.88384E-01   688   0.207E+01-0.455E+00
CGA:  46    -0.477118906851E+03   -0.62969E-01   -0.78618E-01   688   0.165E+01-0.216E+00
CGA:  47    -0.477207595165E+03   -0.88688E-01   -0.83892E-01   688   0.112E+01 0.572E-01
CGA:  48    -0.477262266896E+03   -0.54672E-01   -0.56488E-01   688   0.893E+00-0.403E-01
CGA:  49    -0.477309753443E+03   -0.47487E-01   -0.48558E-01   688   0.100E+01 0.406E-02
CGA:  50    -0.477380022326E+03   -0.70269E-01   -0.73619E-01   688   0.859E+00 0.236E-01
   1 F= -.48075438E+03 E0= -.48071562E+03  d E =-.480754E+03  mag=    -0.3725
       N       E                     dE             d eps       ncg     rms          ort
SDA:   1    -0.450086069480E+03    0.27224E+02    0.00000E+00   688   0.760E+02 0.000E+00
CGA:   2    -0.463364542627E+03   -0.13278E+02   -0.11343E+02   688   0.258E+02 0.255E+02
CGA:   3    -0.461492363144E+03    0.18722E+01    0.57687E+02   688   0.612E+02-0.355E+02
CGA:   4    -0.473270916989E+03   -0.11779E+02   -0.11699E+02   688   0.102E+02 0.358E+01
CGA:   5    -0.475571042734E+03   -0.23001E+01   -0.22670E+01   688   0.835E+01 0.746E+00
CGA:   6    -0.476390257351E+03   -0.81921E+00   -0.75914E+00   688   0.203E+01-0.356E+00
CGA:   7    -0.476727813409E+03   -0.33756E+00   -0.33595E+00   688   0.134E+01-0.220E+00
CGA:   8    -0.476844001433E+03   -0.11619E+00   -0.13097E+00   688   0.244E+00-0.283E-02
CGA:   9    -0.476897872291E+03   -0.53871E-01   -0.53694E-01   688   0.994E-01 0.260E-02
CGA:  10    -0.476914920388E+03   -0.17048E-01   -0.17027E-01   688   0.573E-01-0.160E-02
CGA:  11    -0.476922370335E+03   -0.74499E-02   -0.74790E-02   688   0.388E-01 0.116E-03
CGA:  12    -0.476927708912E+03   -0.53386E-02   -0.54489E-02   688   0.148E-01 0.993E-03
CGA:  13    -0.476931760084E+03   -0.40512E-02   -0.42155E-02   688   0.118E-01-0.146E-02
CGA:  14    -0.476933400204E+03   -0.16401E-02   -0.16428E-02   688   0.892E-02 0.538E-04
CGA:  15    -0.476934749398E+03   -0.13492E-02   -0.13505E-02   688   0.593E-02 0.702E-05
CGA:  16    -0.476935672223E+03   -0.92282E-03   -0.91844E-03   688   0.247E-02-0.750E-04
CGA:  17    -0.476936295845E+03   -0.62362E-03   -0.62183E-03   688   0.160E-02 0.164E-04
CGA:  18    -0.476936582047E+03   -0.28620E-03   -0.28620E-03   688   0.144E-02 0.103E-06
CGA:  19    -0.476936781868E+03   -0.19982E-03   -0.19943E-03   688   0.738E-03-0.123E-04
CGA:  20    -0.476936909239E+03   -0.12737E-03   -0.12738E-03   688   0.589E-03 0.273E-05
CGA:  21    -0.476937032332E+03   -0.12309E-03   -0.12329E-03   688   0.255E-03-0.645E-05
CGA:  22    -0.476937089343E+03   -0.57011E-04   -0.56876E-04   688   0.244E-03 0.235E-05
   2 F= -.48032321E+03 E0= -.48029510E+03  d E =0.431165E+00  mag=    -0.0002
       N       E                     dE             d eps       ncg     rms          ort
SDA:   1    -0.464929861397E+03    0.12007E+02    0.00000E+00   688   0.439E+02 0.000E+00
CGA:   2    -0.472646828066E+03   -0.77170E+01   -0.77377E+01   688   0.929E+01 0.956E+01
CGA:   3    -0.476605007801E+03   -0.39582E+01   -0.39365E+01   688   0.400E+01 0.227E+00
CGA:   4    -0.477113169619E+03   -0.50816E+00   -0.35608E+00   688   0.165E+01 0.106E+01
CGA:   5    -0.477340387670E+03   -0.22722E+00   -0.22296E+00   688   0.177E+01-0.416E-02
CGA:   6    -0.477443305884E+03   -0.10292E+00   -0.10389E+00   688   0.623E+00-0.113E-01
CGA:   7    -0.477487020523E+03   -0.43715E-01   -0.46570E-01   688   0.532E+00-0.243E-01
CGA:   8    -0.477538173175E+03   -0.51153E-01   -0.51078E-01   688   0.371E+00 0.201E-03
CGA:   9    -0.477560390635E+03   -0.22217E-01   -0.21792E-01   688   0.163E+00 0.378E-02
CGA:  10    -0.477579969801E+03   -0.19579E-01   -0.19662E-01   688   0.209E+00 0.383E-03
CGA:  11    -0.477595270882E+03   -0.15301E-01   -0.15452E-01   688   0.704E-01-0.117E-02
CGA:  12    -0.477600810120E+03   -0.55392E-02   -0.54736E-02   688   0.640E-01 0.435E-03
CGA:  13    -0.477610358021E+03   -0.95479E-02   -0.95479E-02   688   0.678E-01 0.168E-03
CGA:  14    -0.477614412103E+03   -0.40541E-02   -0.41721E-02   688   0.198E-01-0.132E-02
CGA:  15    -0.477616644198E+03   -0.22321E-02   -0.22330E-02   688   0.254E-01-0.144E-04
CGA:  16    -0.477619520765E+03   -0.28766E-02   -0.28759E-02   688   0.124E-01 0.280E-05
CGA:  17    -0.477620377038E+03   -0.85627E-03   -0.85841E-03   688   0.622E-02 0.115E-05
CGA:  18    -0.477621374233E+03   -0.99720E-03   -0.99811E-03   688   0.863E-02-0.303E-04
CGA:  19    -0.477622026977E+03   -0.65274E-03   -0.65211E-03   688   0.260E-02-0.203E-04
CGA:  20    -0.477622338724E+03   -0.31175E-03   -0.31191E-03   688   0.368E-02 0.567E-05
CGA:  21    -0.477622818936E+03   -0.48021E-03   -0.48026E-03   688   0.184E-02 0.115E-04
CGA:  22    -0.477622955390E+03   -0.13645E-03   -0.13604E-03   688   0.110E-02-0.528E-07
CGA:  23    -0.477623171673E+03   -0.21628E-03   -0.21657E-03   688   0.140E-02-0.441E-05
CGA:  24    -0.477623268286E+03   -0.96612E-04   -0.96774E-04   688   0.397E-03 0.411E-05
   3 F= -.48100159E+03 E0= -.48097281E+03  d E =-.247210E+00  mag=    -0.0000
       N       E                     dE             d eps       ncg     rms          ort
SDA:   1    -0.477602257511E+03    0.20914E-01    0.00000E+00   688   0.118E+00 0.000E+00
CGA:   2    -0.477613205337E+03   -0.10948E-01   -0.11072E-01   688   0.732E-01 0.270E-03
CGA:   3    -0.477629371192E+03   -0.16166E-01   -0.16241E-01   688   0.174E-01-0.741E-03
CGA:   4    -0.477632745773E+03   -0.33746E-02   -0.33747E-02   688   0.821E-02 0.340E-05
CGA:   5    -0.477633440470E+03   -0.69470E-03   -0.69714E-03   688   0.218E-02-0.263E-04
CGA:   6    -0.477633892481E+03   -0.45201E-03   -0.45194E-03   688   0.707E-03 0.102E-05
CGA:   7    -0.477634020345E+03   -0.12786E-03   -0.12823E-03   688   0.653E-03-0.843E-05
CGA:   8    -0.477634090863E+03   -0.70518E-04   -0.70490E-04   688   0.208E-03-0.118E-05
   4 F= -.48101201E+03 E0= -.48098329E+03  d E =-.257634E+00  mag=    -0.0000
       N       E                     dE             d eps       ncg     rms          ort
SDA:   1    -0.477378553039E+03    0.25547E+00    0.00000E+00   688   0.104E+01 0.000E+00
CGA:   2    -0.477474608138E+03   -0.96055E-01   -0.10205E+00   688   0.605E+00-0.316E-02
CGA:   3    -0.477610522493E+03   -0.13591E+00   -0.13954E+00   688   0.183E+00-0.352E-01
CGA:   4    -0.477634307764E+03   -0.23785E-01   -0.23780E-01   688   0.101E+00-0.181E-03
CGA:   5    -0.477644832127E+03   -0.10524E-01   -0.10530E-01   688   0.190E-01-0.643E-04
CGA:   6    -0.477648458043E+03   -0.36259E-02   -0.36263E-02   688   0.117E-01-0.164E-05
CGA:   7    -0.477649790393E+03   -0.13324E-02   -0.13328E-02   688   0.510E-02-0.187E-04
CGA:   8    -0.477650786727E+03   -0.99633E-03   -0.99695E-03   688   0.272E-02-0.112E-04
CGA:   9    -0.477651176515E+03   -0.38979E-03   -0.38972E-03   688   0.212E-02-0.707E-05
CGA:  10    -0.477651542702E+03   -0.36619E-03   -0.36607E-03   688   0.885E-03 0.456E-05
CGA:  11    -0.477651698099E+03   -0.15540E-03   -0.15539E-03   688   0.810E-03 0.521E-06
CGA:  12    -0.477651817625E+03   -0.11953E-03   -0.11951E-03   688   0.285E-03-0.383E-05
CGA:  13    -0.477651871696E+03   -0.54071E-04   -0.54176E-04   688   0.271E-03-0.246E-05
   5 F= -.48102862E+03 E0= -.48100001E+03  d E =-.274244E+00  mag=    -0.0000
       N       E                     dE             d eps       ncg     rms          ort
SDA:   1    -0.477368781134E+03    0.28304E+00    0.00000E+00   688   0.106E+01 0.000E+00
CGA:   2    -0.477466018967E+03   -0.97238E-01   -0.10325E+00   688   0.643E+00-0.113E-01
CGA:   3    -0.477606568907E+03   -0.14055E+00   -0.14328E+00   688   0.180E+00-0.289E-01
CGA:   4    -0.477631633910E+03   -0.25065E-01   -0.25055E-01   688   0.105E+00-0.620E-03
CGA:   5    -0.477641957695E+03   -0.10324E-01   -0.10375E-01   688   0.190E-01-0.142E-03
CGA:   6    -0.477645662879E+03   -0.37052E-02   -0.37048E-02   688   0.105E-01 0.911E-05
CGA:   7    -0.477646871641E+03   -0.12088E-02   -0.12082E-02   688   0.556E-02-0.201E-04
CGA:   8    -0.477647862006E+03   -0.99036E-03   -0.99070E-03   688   0.241E-02-0.118E-04
CGA:   9    -0.477648269488E+03   -0.40748E-03   -0.40749E-03   688   0.228E-02 0.528E-06
CGA:  10    -0.477648602277E+03   -0.33279E-03   -0.33281E-03   688   0.806E-03 0.223E-05
CGA:  11    -0.477648779779E+03   -0.17750E-03   -0.17754E-03   688   0.814E-03-0.482E-06
CGA:  12    -0.477648875216E+03   -0.95438E-04   -0.95389E-04   688   0.279E-03-0.164E-05
   6 F= -.48102443E+03 E0= -.48099599E+03  d E =-.270054E+00  mag=    -0.0000
       N       E                     dE             d eps       ncg     rms          ort
SDA:   1    -0.477521968249E+03    0.12681E+00    0.00000E+00   688   0.488E+00 0.000E+00
CGA:   2    -0.477565435305E+03   -0.43467E-01   -0.43375E-01   688   0.309E+00-0.126E-02
CGA:   3    -0.477633268168E+03   -0.67833E-01   -0.67791E-01   688   0.709E-01 0.634E-03
CGA:   4    -0.477647588010E+03   -0.14320E-01   -0.14320E-01   688   0.287E-01-0.632E-05
CGA:   5    -0.477650308949E+03   -0.27209E-02   -0.27138E-02   688   0.971E-02 0.548E-04
CGA:   6    -0.477652112303E+03   -0.18034E-02   -0.18036E-02   688   0.284E-02-0.848E-05
CGA:   7    -0.477652762510E+03   -0.65021E-03   -0.64876E-03   688   0.148E-02 0.204E-04
CGA:   8    -0.477652957769E+03   -0.19526E-03   -0.19516E-03   688   0.121E-02-0.264E-05
CGA:   9    -0.477653154059E+03   -0.19629E-03   -0.19630E-03   688   0.407E-03-0.224E-05
CGA:  10    -0.477653230839E+03   -0.76779E-04   -0.76675E-04   688   0.434E-03 0.393E-05
   7 F= -.48102961E+03 E0= -.48100110E+03  d E =-.275228E+00  mag=    -0.0000
       N       E                     dE             d eps       ncg     rms          ort
SDA:   1    -0.476739429460E+03    0.91372E+00    0.00000E+00   688   0.222E+01 0.000E+00
CGA:   2    -0.477432661163E+03   -0.69323E+00   -0.69219E+00   688   0.115E+01 0.701E-02
CGA:   3    -0.477575215280E+03   -0.14255E+00   -0.14415E+00   688   0.802E+00 0.252E-02
CGA:   4    -0.477670040261E+03   -0.94825E-01   -0.94743E-01   688   0.111E+00-0.113E-02
CGA:   5    -0.477690874566E+03   -0.20834E-01   -0.20826E-01   688   0.728E-01 0.237E-03
CGA:   6    -0.477698015217E+03   -0.71407E-02   -0.70969E-02   688   0.192E-01 0.569E-04
CGA:   7    -0.477702565826E+03   -0.45506E-02   -0.45472E-02   688   0.719E-02 0.423E-04
CGA:   8    -0.477704215712E+03   -0.16499E-02   -0.16513E-02   688   0.864E-02-0.188E-04
CGA:   9    -0.477705223649E+03   -0.10079E-02   -0.10093E-02   688   0.287E-02 0.134E-04
CGA:  10    -0.477706015787E+03   -0.79214E-03   -0.79106E-03   688   0.242E-02 0.919E-05
CGA:  11    -0.477706260967E+03   -0.24518E-03   -0.24472E-03   688   0.111E-02-0.523E-05
CGA:  12    -0.477706523085E+03   -0.26212E-03   -0.26199E-03   688   0.435E-03 0.190E-05
CGA:  13    -0.477706593374E+03   -0.70288E-04   -0.70250E-04   688   0.430E-03-0.439E-05
   8 F= -.48108462E+03 E0= -.48105644E+03  d E =-.550124E-01  mag=    -0.0000
       N       E                     dE             d eps       ncg     rms          ort
SDA:   1    -0.477695971834E+03    0.10551E-01    0.00000E+00   688   0.270E-01 0.000E+00
CGA:   2    -0.477704233159E+03   -0.82613E-02   -0.82646E-02   688   0.169E-01-0.236E-04
CGA:   3    -0.477705997245E+03   -0.17641E-02   -0.17595E-02   688   0.918E-02 0.325E-04
CGA:   4    -0.477707321474E+03   -0.13242E-02   -0.13240E-02   688   0.147E-02-0.599E-05
CGA:   5    -0.477707580829E+03   -0.25935E-03   -0.25938E-03   688   0.963E-03-0.398E-05
CGA:   6    -0.477707678650E+03   -0.97821E-04   -0.97956E-04   688   0.303E-03 0.194E-05
   9 F= -.48108553E+03 E0= -.48105733E+03  d E =-.559250E-01  mag=    -0.0000
       N       E                     dE             d eps       ncg     rms          ort
SDA:   1    -0.477234246322E+03    0.47333E+00    0.00000E+00   688   0.120E+01 0.000E+00
CGA:   2    -0.477591035594E+03   -0.35679E+00   -0.35567E+00   688   0.751E+00 0.826E-02
CGA:   3    -0.477671013307E+03   -0.79978E-01   -0.78433E-01   688   0.406E+00-0.312E-03
CGA:   4    -0.477729421487E+03   -0.58408E-01   -0.58472E-01   688   0.565E-01 0.643E-03
CGA:   5    -0.477741897739E+03   -0.12476E-01   -0.12474E-01   688   0.233E-01 0.173E-04
CGA:   6    -0.477744448717E+03   -0.25510E-02   -0.25367E-02   688   0.126E-01 0.420E-04
CGA:   7    -0.477746540535E+03   -0.20918E-02   -0.20918E-02   688   0.358E-02-0.123E-04
CGA:   8    -0.477747434650E+03   -0.89411E-03   -0.89317E-03   688   0.369E-02 0.106E-04
CGA:   9    -0.477747817454E+03   -0.38280E-03   -0.38262E-03   688   0.139E-02 0.225E-05
CGA:  10    -0.477748207267E+03   -0.38981E-03   -0.38949E-03   688   0.678E-03 0.281E-05
CGA:  11    -0.477748326242E+03   -0.11898E-03   -0.11898E-03   688   0.684E-03 0.117E-05
CGA:  12    -0.477748417261E+03   -0.91019E-04   -0.91015E-04   688   0.184E-03-0.681E-06
  10 F= -.48112709E+03 E0= -.48109902E+03  d E =-.415607E-01  mag=    -0.0000
       N       E                     dE             d eps       ncg     rms          ort
SDA:   1    -0.477709807674E+03    0.38519E-01    0.00000E+00   688   0.952E-01 0.000E+00
CGA:   2    -0.477736735355E+03   -0.26928E-01   -0.26899E-01   688   0.745E-01 0.240E-03
CGA:   3    -0.477743744932E+03   -0.70096E-02   -0.69502E-02   688   0.296E-01 0.233E-03
CGA:   4    -0.477748751094E+03   -0.50062E-02   -0.50065E-02   688   0.460E-02 0.208E-04
CGA:   5    -0.477749727375E+03   -0.97628E-03   -0.97654E-03   688   0.228E-02-0.892E-05
CGA:   6    -0.477749949184E+03   -0.22181E-03   -0.22174E-03   688   0.944E-03 0.695E-05
CGA:   7    -0.477750140818E+03   -0.19163E-03   -0.19175E-03   688   0.327E-03-0.439E-05
CGA:   8    -0.477750216259E+03   -0.75441E-04   -0.75311E-04   688   0.375E-03 0.232E-05
  11 F= -.48112911E+03 E0= -.48110108E+03  d E =-.435802E-01  mag=    -0.0000
       N       E                     dE             d eps       ncg     rms          ort
SDA:   1    -0.477325438770E+03    0.42470E+00    0.00000E+00   688   0.105E+01 0.000E+00
CGA:   2    -0.477648934660E+03   -0.32350E+00   -0.32375E+00   688   0.780E+00-0.147E-02
CGA:   3    -0.477724979589E+03   -0.76045E-01   -0.78008E-01   688   0.315E+00-0.128E-01
CGA:   4    -0.477774686954E+03   -0.49707E-01   -0.49642E-01   688   0.491E-01-0.138E-02
CGA:   5    -0.477784266305E+03   -0.95794E-02   -0.95803E-02   688   0.368E-01-0.282E-04
CGA:   6    -0.477787686889E+03   -0.34206E-02   -0.34459E-02   688   0.896E-02-0.126E-03
CGA:   7    -0.477789887888E+03   -0.22010E-02   -0.22020E-02   688   0.527E-02-0.114E-04
CGA:   8    -0.477790561007E+03   -0.67312E-03   -0.67241E-03   688   0.364E-02 0.127E-04
CGA:   9    -0.477791248297E+03   -0.68729E-03   -0.68739E-03   688   0.122E-02-0.856E-05
CGA:  10    -0.477791564335E+03   -0.31604E-03   -0.31542E-03   688   0.121E-02 0.767E-05
CGA:  11    -0.477791695688E+03   -0.13135E-03   -0.13091E-03   688   0.369E-03-0.707E-05
CGA:  12    -0.477791795458E+03   -0.99769E-04   -0.99577E-04   688   0.188E-03 0.204E-05
  12 F= -.48117158E+03 E0= -.48114349E+03  d E =-.424687E-01  mag=    -0.0000
       N       E                     dE             d eps       ncg     rms          ort
SDA:   1    -0.476743552696E+03    0.10481E+01    0.00000E+00   688   0.241E+01 0.000E+00
CGA:   2    -0.477488732649E+03   -0.74518E+00   -0.74541E+00   688   0.176E+01-0.394E-04
CGA:   3    -0.477661294456E+03   -0.17256E+00   -0.17907E+00   688   0.740E+00-0.518E-01
CGA:   4    -0.477774740901E+03   -0.11345E+00   -0.11314E+00   688   0.114E+00-0.454E-02
CGA:   5    -0.477796314645E+03   -0.21574E-01   -0.21576E-01   688   0.819E-01-0.140E-03
CGA:   6    -0.477804189944E+03   -0.78753E-02   -0.79638E-02   688   0.206E-01-0.418E-03
CGA:   7    -0.477809114272E+03   -0.49243E-02   -0.49276E-02   688   0.113E-01-0.378E-04
CGA:   8    -0.477810698666E+03   -0.15844E-02   -0.15822E-02   688   0.868E-02 0.370E-05
CGA:   9    -0.477812143592E+03   -0.14449E-02   -0.14449E-02   688   0.283E-02-0.933E-05
CGA:  10    -0.477812883478E+03   -0.73989E-03   -0.73893E-03   688   0.271E-02 0.120E-04
CGA:  11    -0.477813174346E+03   -0.29087E-03   -0.29023E-03   688   0.877E-03-0.993E-05
CGA:  12    -0.477813409712E+03   -0.23537E-03   -0.23515E-03   688   0.432E-03 0.235E-05
CGA:  13    -0.477813466525E+03   -0.56814E-04   -0.56564E-04   688   0.309E-03-0.456E-05
  13 F= -.48119456E+03 E0= -.48116640E+03  d E =-.654539E-01  mag=    -0.0000
       N       E                     dE             d eps       ncg     rms          ort
SDA:   1    -0.477512332261E+03    0.30108E+00    0.00000E+00   688   0.773E+00 0.000E+00
CGA:   2    -0.477729193443E+03   -0.21686E+00   -0.21624E+00   688   0.743E+00 0.589E-02
CGA:   3    -0.477798949816E+03   -0.69756E-01   -0.67901E-01   688   0.185E+00 0.513E-02
CGA:   4    -0.477836044995E+03   -0.37095E-01   -0.37122E-01   688   0.353E-01-0.877E-03
CGA:   5    -0.477842112694E+03   -0.60677E-02   -0.60673E-02   688   0.281E-01-0.144E-04
CGA:   6    -0.477844973022E+03   -0.28603E-02   -0.28715E-02   688   0.582E-02-0.530E-04
CGA:   7    -0.477846522764E+03   -0.15497E-02   -0.15512E-02   688   0.365E-02-0.148E-04
CGA:   8    -0.477846992730E+03   -0.46997E-03   -0.47009E-03   688   0.253E-02 0.988E-05
CGA:   9    -0.477847436932E+03   -0.44420E-03   -0.44420E-03   688   0.892E-03-0.239E-05
CGA:  10    -0.477847669012E+03   -0.23208E-03   -0.23171E-03   688   0.793E-03 0.467E-05
CGA:  11    -0.477847751847E+03   -0.82835E-04   -0.82392E-04   688   0.263E-03-0.624E-05
  14 F= -.48122959E+03 E0= -.48120131E+03  d E =-.350267E-01  mag=    -0.0000
       N       E                     dE             d eps       ncg     rms          ort
SDA:   1    -0.474885007570E+03    0.29627E+01    0.00000E+00   688   0.700E+01 0.000E+00
CGA:   2    -0.476860184644E+03   -0.19752E+01   -0.19411E+01   688   0.536E+01 0.320E+00
CGA:   3    -0.477479541122E+03   -0.61936E+00   -0.58523E+00   688   0.189E+01-0.230E+00
CGA:   4    -0.477771817079E+03   -0.29228E+00   -0.29248E+00   688   0.729E+00 0.186E-02
CGA:   5    -0.477837475900E+03   -0.65659E-01   -0.64617E-01   688   0.226E+00-0.913E-03
CGA:   6    -0.477875951872E+03   -0.38476E-01   -0.38439E-01   688   0.126E+00-0.193E-02
CGA:   7    -0.477888424221E+03   -0.12472E-01   -0.12420E-01   688   0.508E-01 0.173E-04
CGA:   8    -0.477897425373E+03   -0.90012E-02   -0.90029E-02   688   0.384E-01-0.316E-03
CGA:   9    -0.477901866722E+03   -0.44413E-02   -0.44130E-02   688   0.170E-01 0.343E-04
CGA:  10    -0.477905015333E+03   -0.31486E-02   -0.31488E-02   688   0.124E-01-0.201E-04
CGA:  11    -0.477906412860E+03   -0.13975E-02   -0.13982E-02   688   0.612E-02 0.123E-04
CGA:  12    -0.477907559766E+03   -0.11469E-02   -0.11466E-02   688   0.416E-02 0.128E-04
CGA:  13    -0.477907994236E+03   -0.43447E-03   -0.43503E-03   688   0.143E-02-0.110E-04
CGA:  14    -0.477908291022E+03   -0.29679E-03   -0.29647E-03   688   0.141E-02 0.780E-05
CGA:  15    -0.477908445852E+03   -0.15483E-03   -0.15451E-03   688   0.452E-03-0.610E-05
CGA:  16    -0.477908528957E+03   -0.83104E-04   -0.83179E-04   688   0.492E-03-0.383E-05
  15 F= -.48129262E+03 E0= -.48126405E+03  d E =-.980534E-01  mag=    -0.0000
       N       E                     dE             d eps       ncg     rms          ort
SDA:   1    -0.477269359706E+03    0.63909E+00    0.00000E+00   688   0.149E+01 0.000E+00
CGA:   2    -0.477687548831E+03   -0.41819E+00   -0.41459E+00   688   0.134E+01 0.305E-01
CGA:   3    -0.477821392265E+03   -0.13384E+00   -0.12666E+00   688   0.353E+00 0.163E-01
CGA:   4    -0.477889088713E+03   -0.67696E-01   -0.67727E-01   688   0.113E+00-0.853E-03
CGA:   5    -0.477899938883E+03   -0.10850E-01   -0.10694E-01   688   0.497E-01 0.450E-03
CGA:   6    -0.477909000451E+03   -0.90616E-02   -0.90609E-02   688   0.120E-01 0.302E-04
CGA:   7    -0.477911169954E+03   -0.21695E-02   -0.21687E-02   688   0.127E-01 0.193E-04
CGA:   8    -0.477912824370E+03   -0.16544E-02   -0.16538E-02   688   0.364E-02 0.144E-04
CGA:   9    -0.477913626583E+03   -0.80221E-03   -0.80195E-03   688   0.383E-02 0.278E-05
CGA:  10    -0.477914044629E+03   -0.41805E-03   -0.41760E-03   688   0.135E-02 0.151E-05
CGA:  11    -0.477914380172E+03   -0.33554E-03   -0.33530E-03   688   0.797E-03 0.300E-05
CGA:  12    -0.477914469476E+03   -0.89304E-04   -0.89076E-04   688   0.416E-03-0.637E-05
  16 F= -.48129960E+03 E0= -.48127096E+03  d E =-.105035E+00  mag=    -0.0000
       N       E                     dE             d eps       ncg     rms          ort
SDA:   1    -0.477293191898E+03    0.62119E+00    0.00000E+00   688   0.155E+01 0.000E+00
CGA:   2    -0.477729488575E+03   -0.43630E+00   -0.43211E+00   688   0.138E+01 0.356E-01
CGA:   3    -0.477867136655E+03   -0.13765E+00   -0.12914E+00   688   0.358E+00 0.246E-01
CGA:   4    -0.477934895993E+03   -0.67759E-01   -0.67763E-01   688   0.139E+00-0.103E-03
CGA:   5    -0.477947198636E+03   -0.12303E-01   -0.12103E-01   688   0.475E-01 0.857E-03
CGA:   6    -0.477956671248E+03   -0.94726E-02   -0.94751E-02   688   0.134E-01-0.471E-04
CGA:   7    -0.477958718967E+03   -0.20477E-02   -0.20485E-02   688   0.131E-01 0.407E-05
CGA:   8    -0.477960626036E+03   -0.19071E-02   -0.19073E-02   688   0.400E-02 0.175E-04
CGA:   9    -0.477961289225E+03   -0.66319E-03   -0.66321E-03   688   0.424E-02 0.124E-04
CGA:  10    -0.477961881302E+03   -0.59208E-03   -0.59206E-03   688   0.125E-02-0.303E-05
CGA:  11    -0.477962181330E+03   -0.30003E-03   -0.29954E-03   688   0.110E-02 0.698E-05
CGA:  12    -0.477962298467E+03   -0.11714E-03   -0.11685E-03   688   0.360E-03-0.716E-05
CGA:  13    -0.477962382982E+03   -0.84515E-04   -0.84375E-04   688   0.315E-03 0.198E-05
  17 F= -.48134830E+03 E0= -.48131968E+03  d E =-.486958E-01  mag=    -0.0000
       N       E                     dE             d eps       ncg     rms          ort
SDA:   1    -0.471985808594E+03    0.59765E+01    0.00000E+00   688   0.141E+02 0.000E+00
CGA:   2    -0.476020805644E+03   -0.40350E+01   -0.38999E+01   688   0.863E+01 0.105E+01
CGA:   3    -0.477169080577E+03   -0.11483E+01   -0.10848E+01   688   0.488E+01-0.522E+00
CGA:   4    -0.477610728931E+03   -0.44165E+00   -0.47172E+00   688   0.334E+01-0.138E+00
CGA:   5    -0.477825578694E+03   -0.21485E+00   -0.25409E+00   688   0.122E+01-0.321E+00
CGA:   6    -0.477910163101E+03   -0.84584E-01   -0.77702E-01   688   0.403E+00 0.457E-01
CGA:   7    -0.477957480195E+03   -0.47317E-01   -0.45668E-01   688   0.280E+00-0.285E-02
CGA:   8    -0.477981417338E+03   -0.23937E-01   -0.24447E-01   688   0.159E+00-0.234E-02
CGA:   9    -0.477996131009E+03   -0.14714E-01   -0.15201E-01   688   0.975E-01-0.767E-03
CGA:  10    -0.478005223885E+03   -0.90929E-02   -0.89975E-02   688   0.689E-01 0.177E-03
CGA:  11    -0.478012501620E+03   -0.72777E-02   -0.71890E-02   688   0.370E-01-0.183E-03
CGA:  12    -0.478015875459E+03   -0.33738E-02   -0.33885E-02   688   0.263E-01-0.478E-04
CGA:  13    -0.478018953044E+03   -0.30776E-02   -0.30887E-02   688   0.179E-01 0.122E-03
CGA:  14    -0.478020687758E+03   -0.17347E-02   -0.17330E-02   688   0.116E-01 0.198E-04
CGA:  15    -0.478021761024E+03   -0.10733E-02   -0.10710E-02   688   0.623E-02 0.161E-04
CGA:  16    -0.478022451726E+03   -0.69070E-03   -0.69088E-03   688   0.492E-02-0.687E-05
CGA:  17    -0.478022891102E+03   -0.43938E-03   -0.43884E-03   688   0.224E-02-0.613E-06
CGA:  18    -0.478023147016E+03   -0.25591E-03   -0.25601E-03   688   0.187E-02 0.113E-04
CGA:  19    -0.478023335240E+03   -0.18822E-03   -0.18839E-03   688   0.124E-02 0.997E-06
CGA:  20    -0.478023473621E+03   -0.13838E-03   -0.13829E-03   688   0.819E-03-0.938E-05
CGA:  21    -0.478023548905E+03   -0.75284E-04   -0.75235E-04   688   0.570E-03 0.116E-06
  18 F= -.48141166E+03 E0= -.48138340E+03  d E =-.112057E+00  mag=    -0.0000
       N       E                     dE             d eps       ncg     rms          ort
SDA:   1    -0.476620692271E+03    0.14028E+01    0.00000E+00   688   0.339E+01 0.000E+00
CGA:   2    -0.477584438756E+03   -0.96375E+00   -0.94686E+00   688   0.263E+01 0.119E+00
CGA:   3    -0.477861210897E+03   -0.27677E+00   -0.26517E+00   688   0.105E+01-0.634E-01
CGA:   4    -0.477991884734E+03   -0.13067E+00   -0.13082E+00   688   0.560E+00 0.152E-01
CGA:   5    -0.478041185094E+03   -0.49300E-01   -0.51221E-01   688   0.125E+00 0.483E-03
CGA:   6    -0.478056849462E+03   -0.15664E-01   -0.15657E-01   688   0.104E+00-0.593E-03
CGA:   7    -0.478067059309E+03   -0.10210E-01   -0.10241E-01   688   0.293E-01 0.180E-03
CGA:   8    -0.478070740645E+03   -0.36813E-02   -0.36833E-02   688   0.218E-01 0.330E-03
CGA:   9    -0.478073673311E+03   -0.29327E-02   -0.29332E-02   688   0.151E-01-0.417E-04
CGA:  10    -0.478075161068E+03   -0.14878E-02   -0.14855E-02   688   0.550E-02 0.404E-06
CGA:  11    -0.478076184919E+03   -0.10239E-02   -0.10237E-02   688   0.595E-02-0.156E-05
CGA:  12    -0.478076770684E+03   -0.58576E-03   -0.58540E-03   688   0.238E-02 0.479E-05
CGA:  13    -0.478077078824E+03   -0.30814E-03   -0.30814E-03   688   0.152E-02 0.453E-05
CGA:  14    -0.478077303722E+03   -0.22490E-03   -0.22499E-03   688   0.871E-03-0.592E-05
CGA:  15    -0.478077385542E+03   -0.81820E-04   -0.81807E-04   688   0.440E-03 0.135E-05
  19 F= -.48146622E+03 E0= -.48143804E+03  d E =-.545666E-01  mag=    -0.0000
       N       E                     dE             d eps       ncg     rms          ort
SDA:   1    -0.477455105394E+03    0.62220E+00    0.00000E+00   688   0.147E+01 0.000E+00
CGA:   2    -0.477873443240E+03   -0.41834E+00   -0.41347E+00   688   0.121E+01 0.344E-01
CGA:   3    -0.477994204702E+03   -0.12076E+00   -0.11633E+00   688   0.427E+00-0.964E-02
CGA:   4    -0.478053025577E+03   -0.58821E-01   -0.58787E-01   688   0.221E+00 0.488E-02
CGA:   5    -0.478072883073E+03   -0.19857E-01   -0.20251E-01   688   0.451E-01-0.212E-03
CGA:   6    -0.478081038946E+03   -0.81559E-02   -0.81705E-02   688   0.336E-01-0.219E-03
CGA:   7    -0.478083821224E+03   -0.27823E-02   -0.27994E-02   688   0.103E-01-0.602E-04
CGA:   8    -0.478085675099E+03   -0.18539E-02   -0.18505E-02   688   0.872E-02 0.498E-04
CGA:   9    -0.478086796481E+03   -0.11214E-02   -0.11207E-02   688   0.296E-02-0.283E-04
CGA:  10    -0.478087265121E+03   -0.46864E-03   -0.46857E-03   688   0.347E-02-0.750E-06
CGA:  11    -0.478087696608E+03   -0.43149E-03   -0.43142E-03   688   0.107E-02-0.251E-05
CGA:  12    -0.478087866382E+03   -0.16977E-03   -0.16973E-03   688   0.830E-03 0.474E-05
CGA:  13    -0.478087992078E+03   -0.12570E-03   -0.12578E-03   688   0.369E-03-0.651E-05
CGA:  14    -0.478088030119E+03   -0.38041E-04   -0.38051E-04   688   0.224E-03 0.799E-06
  20 F= -.48147734E+03 E0= -.48144924E+03  d E =-.656787E-01  mag=    -0.0000
       N       E                     dE             d eps       ncg     rms          ort
SDA:   1    -0.476506833581E+03    0.15812E+01    0.00000E+00   688   0.381E+01 0.000E+00
CGA:   2    -0.477603910104E+03   -0.10971E+01   -0.10868E+01   688   0.300E+01 0.759E-01
CGA:   3    -0.477893993359E+03   -0.29008E+00   -0.27367E+00   688   0.112E+01-0.164E-01
CGA:   4    -0.478054951953E+03   -0.16096E+00   -0.16091E+00   688   0.553E+00 0.145E-01
CGA:   5    -0.478102412172E+03   -0.47460E-01   -0.50058E-01   688   0.131E+00-0.604E-02
CGA:   6    -0.478122573993E+03   -0.20162E-01   -0.20180E-01   688   0.104E+00-0.703E-03
CGA:   7    -0.478131265069E+03   -0.86911E-02   -0.88165E-02   688   0.277E-01-0.396E-03
CGA:   8    -0.478136105021E+03   -0.48400E-02   -0.48199E-02   688   0.235E-01 0.379E-03
CGA:   9    -0.478138989620E+03   -0.28846E-02   -0.28810E-02   688   0.110E-01-0.391E-04
CGA:  10    -0.478140262340E+03   -0.12727E-02   -0.12752E-02   688   0.790E-02 0.333E-04
CGA:  11    -0.478141498527E+03   -0.12362E-02   -0.12357E-02   688   0.374E-02 0.863E-05
CGA:  12    -0.478142004721E+03   -0.50619E-03   -0.50619E-03   688   0.295E-02 0.105E-04
CGA:  13    -0.478142361434E+03   -0.35671E-03   -0.35693E-03   688   0.139E-02 0.524E-05
CGA:  14    -0.478142521277E+03   -0.15984E-03   -0.15980E-03   688   0.657E-03-0.467E-05
CGA:  15    -0.478142642008E+03   -0.12073E-03   -0.12056E-03   688   0.523E-03 0.396E-05
CGA:  16    -0.478142692071E+03   -0.50063E-04   -0.49937E-04   688   0.212E-03-0.383E-05
  21 F= -.48153241E+03 E0= -.48150398E+03  d E =-.550692E-01  mag=    -0.0000
       N       E                     dE             d eps       ncg     rms          ort
SDA:   1    -0.477628618556E+03    0.51402E+00    0.00000E+00   688   0.121E+01 0.000E+00
CGA:   2    -0.477981189545E+03   -0.35257E+00   -0.35151E+00   688   0.101E+01 0.775E-02
CGA:   3    -0.478070774799E+03   -0.89585E-01   -0.86583E-01   688   0.336E+00 0.475E-02
CGA:   4    -0.478127824667E+03   -0.57050E-01   -0.56957E-01   688   0.114E+00 0.240E-02
CGA:   5    -0.478138358483E+03   -0.10534E-01   -0.10697E-01   688   0.395E-01-0.267E-03
CGA:   6    -0.478145971179E+03   -0.76127E-02   -0.76252E-02   688   0.976E-02-0.179E-03
CGA:   7    -0.478147760384E+03   -0.17892E-02   -0.17888E-02   688   0.111E-01 0.305E-06
CGA:   8    -0.478149029389E+03   -0.12690E-02   -0.12686E-02   688   0.318E-02 0.821E-05
CGA:   9    -0.478149563880E+03   -0.53449E-03   -0.53416E-03   688   0.317E-02 0.117E-04
CGA:  10    -0.478150019519E+03   -0.45564E-03   -0.45564E-03   688   0.952E-03-0.240E-05
CGA:  11    -0.478150264763E+03   -0.24524E-03   -0.24452E-03   688   0.695E-03 0.665E-05
CGA:  12    -0.478150343595E+03   -0.78832E-04   -0.78657E-04   688   0.295E-03-0.623E-05
  22 F= -.48154026E+03 E0= -.48151159E+03  d E =-.629219E-01  mag=    -0.0000
       N       E                     dE             d eps       ncg     rms          ort
SDA:   1    -0.477309178363E+03    0.84109E+00    0.00000E+00   688   0.205E+01 0.000E+00
CGA:   2    -0.477905163762E+03   -0.59599E+00   -0.59469E+00   688   0.167E+01 0.104E-01
CGA:   3    -0.478053255562E+03   -0.14809E+00   -0.14173E+00   688   0.570E+00 0.120E-01
CGA:   4    -0.478152576315E+03   -0.99321E-01   -0.99212E-01   688   0.142E+00 0.379E-02
CGA:   5    -0.478168106637E+03   -0.15530E-01   -0.15723E-01   688   0.740E-01 0.144E-03
CGA:   6    -0.478179932961E+03   -0.11826E-01   -0.11831E-01   688   0.154E-01-0.434E-03
CGA:   7    -0.478183692605E+03   -0.37596E-02   -0.37575E-02   688   0.123E-01 0.185E-04
CGA:   8    -0.478185039827E+03   -0.13472E-02   -0.13443E-02   688   0.621E-02 0.167E-04
CGA:   9    -0.478186173850E+03   -0.11340E-02   -0.11340E-02   688   0.352E-02-0.343E-05
CGA:  10    -0.478186617865E+03   -0.44402E-03   -0.44359E-03   688   0.246E-02-0.535E-05
CGA:  11    -0.478187084182E+03   -0.46632E-03   -0.46600E-03   688   0.658E-03 0.983E-05
CGA:  12    -0.478187228324E+03   -0.14414E-03   -0.14449E-03   688   0.706E-03-0.595E-05
CGA:  13    -0.478187312912E+03   -0.84588E-04   -0.84620E-04   688   0.163E-03 0.275E-05
  23 F= -.48157790E+03 E0= -.48154892E+03  d E =-.376431E-01  mag=    -0.0000
       N       E                     dE             d eps       ncg     rms          ort
SDA:   1    -0.475452545338E+03    0.27347E+01    0.00000E+00   688   0.645E+01 0.000E+00
CGA:   2    -0.477323571012E+03   -0.18710E+01   -0.18627E+01   688   0.492E+01 0.714E-01
CGA:   3    -0.477796118359E+03   -0.47255E+00   -0.45193E+00   688   0.193E+01-0.129E+00
CGA:   4    -0.478096843786E+03   -0.30073E+00   -0.30107E+00   688   0.485E+00 0.206E-01
CGA:   5    -0.478149745647E+03   -0.52902E-01   -0.53897E-01   688   0.242E+00-0.180E-02
CGA:   6    -0.478185126733E+03   -0.35381E-01   -0.35241E-01   688   0.677E-01-0.284E-02
CGA:   7    -0.478196233273E+03   -0.11107E-01   -0.11106E-01   688   0.529E-01 0.154E-03
CGA:   8    -0.478202030487E+03   -0.57972E-02   -0.57730E-02   688   0.215E-01 0.300E-04
CGA:   9    -0.478206506204E+03   -0.44757E-02   -0.44708E-02   688   0.133E-01 0.753E-04
CGA:  10    -0.478208069048E+03   -0.15628E-02   -0.15640E-02   688   0.721E-02-0.155E-04
CGA:  11    -0.478209764327E+03   -0.16953E-02   -0.16962E-02   688   0.321E-02-0.602E-05
CGA:  12    -0.478210155873E+03   -0.39155E-03   -0.39152E-03   688   0.222E-02-0.927E-05
CGA:  13    -0.478210537701E+03   -0.38183E-03   -0.38176E-03   688   0.952E-03 0.725E-05
CGA:  14    -0.478210658307E+03   -0.12061E-03   -0.12066E-03   688   0.646E-03-0.160E-05
CGA:  15    -0.478210772686E+03   -0.11438E-03   -0.11447E-03   688   0.243E-03-0.531E-05
CGA:  16    -0.478210817292E+03   -0.44606E-04   -0.44533E-04   688   0.242E-03 0.335E-05
  24 F= -.48160248E+03 E0= -.48157293E+03  d E =-.622259E-01  mag=    -0.0000
       N       E                     dE             d eps       ncg     rms          ort
SDA:   1    -0.476591026518E+03    0.16197E+01    0.00000E+00   688   0.389E+01 0.000E+00
CGA:   2    -0.477737145051E+03   -0.11461E+01   -0.11432E+01   688   0.287E+01 0.253E-01
CGA:   3    -0.478011129457E+03   -0.27398E+00   -0.26257E+00   688   0.110E+01-0.136E-01
CGA:   4    -0.478190271895E+03   -0.17914E+00   -0.17915E+00   688   0.254E+00 0.137E-02
CGA:   5    -0.478220231127E+03   -0.29959E-01   -0.29752E-01   688   0.145E+00-0.778E-03
CGA:   6    -0.478240152069E+03   -0.19921E-01   -0.19897E-01   688   0.344E-01-0.311E-03
CGA:   7    -0.478247334029E+03   -0.71820E-02   -0.71752E-02   688   0.204E-01 0.102E-03
CGA:   8    -0.478249903469E+03   -0.25694E-02   -0.25647E-02   688   0.142E-01-0.271E-06
CGA:   9    -0.478252239653E+03   -0.23362E-02   -0.23362E-02   688   0.527E-02-0.225E-04
CGA:  10    -0.478253072992E+03   -0.83334E-03   -0.83319E-03   688   0.549E-02-0.188E-04
CGA:  11    -0.478253906030E+03   -0.83304E-03   -0.83322E-03   688   0.123E-02 0.122E-04
CGA:  12    -0.478254206021E+03   -0.29999E-03   -0.30039E-03   688   0.116E-02-0.493E-05
CGA:  13    -0.478254330182E+03   -0.12416E-03   -0.12421E-03   688   0.362E-03 0.465E-05
CGA:  14    -0.478254423550E+03   -0.93368E-04   -0.94106E-04   688   0.197E-03-0.767E-05
  25 F= -.48164589E+03 E0= -.48161643E+03  d E =-.434042E-01  mag=    -0.0000
       N       E                     dE             d eps       ncg     rms          ort
SDA:   1    -0.476457614104E+03    0.17967E+01    0.00000E+00   688   0.425E+01 0.000E+00
CGA:   2    -0.477697186437E+03   -0.12396E+01   -0.12349E+01   688   0.318E+01 0.397E-01
CGA:   3    -0.478004372353E+03   -0.30719E+00   -0.29208E+00   688   0.119E+01-0.125E-01
CGA:   4    -0.478197649003E+03   -0.19328E+00   -0.19334E+00   688   0.315E+00 0.558E-02
CGA:   5    -0.478231143887E+03   -0.33495E-01   -0.33421E-01   688   0.153E+00-0.781E-03
CGA:   6    -0.478254618847E+03   -0.23475E-01   -0.23453E-01   688   0.398E-01-0.878E-03
CGA:   7    -0.478261594338E+03   -0.69755E-02   -0.69725E-02   688   0.318E-01 0.130E-03
CGA:   8    -0.478265069171E+03   -0.34748E-02   -0.34685E-02   688   0.136E-01 0.308E-04
CGA:   9    -0.478267761235E+03   -0.26921E-02   -0.26902E-02   688   0.836E-02 0.329E-04
CGA:  10    -0.478268740576E+03   -0.97934E-03   -0.97843E-03   688   0.458E-02-0.143E-04
CGA:  11    -0.478269820218E+03   -0.10796E-02   -0.10793E-02   688   0.176E-02 0.694E-05
CGA:  12    -0.478270069271E+03   -0.24905E-03   -0.24902E-03   688   0.146E-02-0.682E-05
CGA:  13    -0.478270300118E+03   -0.23085E-03   -0.23087E-03   688   0.522E-03 0.539E-05
CGA:  14    -0.478270371529E+03   -0.71412E-04   -0.71353E-04   688   0.429E-03-0.318E-05
  26 F= -.48166153E+03 E0= -.48163223E+03  d E =-.590419E-01  mag=    -0.0000
       N       E                     dE             d eps       ncg     rms          ort
SDA:   1    -0.476915456835E+03    0.13548E+01    0.00000E+00   688   0.330E+01 0.000E+00
CGA:   2    -0.477850226876E+03   -0.93477E+00   -0.92941E+00   688   0.254E+01 0.445E-01
CGA:   3    -0.478093581976E+03   -0.24336E+00   -0.22948E+00   688   0.874E+00 0.170E-01
CGA:   4    -0.478241481307E+03   -0.14790E+00   -0.14785E+00   688   0.281E+00 0.628E-02
CGA:   5    -0.478268834993E+03   -0.27354E-01   -0.27500E-01   688   0.113E+00-0.129E-02
CGA:   6    -0.478287831368E+03   -0.18996E-01   -0.19008E-01   688   0.306E-01-0.721E-03
CGA:   7    -0.478292514825E+03   -0.46835E-02   -0.46850E-02   688   0.249E-01 0.849E-04
CGA:   8    -0.478295431856E+03   -0.29170E-02   -0.29133E-02   688   0.982E-02 0.151E-04
CGA:   9    -0.478297264106E+03   -0.18323E-02   -0.18313E-02   688   0.720E-02 0.227E-04
CGA:  10    -0.478298116581E+03   -0.85247E-03   -0.85297E-03   688   0.303E-02-0.115E-04
CGA:  11    -0.478298915082E+03   -0.79850E-03   -0.79755E-03   688   0.161E-02 0.958E-05
CGA:  12    -0.478299105988E+03   -0.19091E-03   -0.19090E-03   688   0.989E-03-0.748E-05
CGA:  13    -0.478299294614E+03   -0.18863E-03   -0.18851E-03   688   0.539E-03 0.401E-05
CGA:  14    -0.478299352051E+03   -0.57437E-04   -0.57426E-04   688   0.275E-03-0.170E-05
  27 F= -.48169000E+03 E0= -.48166102E+03  d E =-.284760E-01  mag=    -0.0000
       N       E                     dE             d eps       ncg     rms          ort
SDA:   1    -0.478254475008E+03    0.44820E-01    0.00000E+00   688   0.108E+00 0.000E+00
CGA:   2    -0.478286094813E+03   -0.31620E-01   -0.31615E-01   688   0.835E-01 0.409E-04
CGA:   3    -0.478293416599E+03   -0.73218E-02   -0.72417E-02   688   0.299E-01 0.451E-03
CGA:   4    -0.478298545794E+03   -0.51292E-02   -0.51291E-02   688   0.652E-02 0.237E-05
CGA:   5    -0.478299341215E+03   -0.79542E-03   -0.79512E-03   688   0.408E-02-0.614E-05
CGA:   6    -0.478299899661E+03   -0.55845E-03   -0.55862E-03   688   0.737E-03 0.593E-05
CGA:   7    -0.478300088726E+03   -0.18907E-03   -0.18950E-03   688   0.566E-03-0.456E-05
CGA:   8    -0.478300153556E+03   -0.64830E-04   -0.64845E-04   688   0.350E-03-0.861E-06
  28 F= -.48169070E+03 E0= -.48166175E+03  d E =-.291745E-01  mag=    -0.0000
       N       E                     dE             d eps       ncg     rms          ort
SDA:   1    -0.477517898674E+03    0.78219E+00    0.00000E+00   688   0.192E+01 0.000E+00
CGA:   2    -0.478046649442E+03   -0.52875E+00   -0.52694E+00   688   0.164E+01 0.160E-01
CGA:   3    -0.478193285973E+03   -0.14664E+00   -0.13954E+00   688   0.490E+00 0.213E-01
CGA:   4    -0.478283978143E+03   -0.90692E-01   -0.90655E-01   688   0.117E+00 0.131E-02
CGA:   5    -0.478299085514E+03   -0.15107E-01   -0.15149E-01   688   0.680E-01 0.140E-03
CGA:   6    -0.478307786400E+03   -0.87009E-02   -0.86765E-02   688   0.167E-01-0.146E-03
CGA:   7    -0.478311180562E+03   -0.33942E-02   -0.33952E-02   688   0.817E-02-0.163E-04
CGA:   8    -0.478312286765E+03   -0.11062E-02   -0.11077E-02   688   0.704E-02 0.956E-05
CGA:   9    -0.478313293630E+03   -0.10069E-02   -0.10067E-02   688   0.202E-02-0.104E-05
CGA:  10    -0.478313765586E+03   -0.47196E-03   -0.47218E-03   688   0.232E-02-0.449E-05
CGA:  11    -0.478314027390E+03   -0.26180E-03   -0.26203E-03   688   0.590E-03 0.107E-04
CGA:  12    -0.478314187679E+03   -0.16029E-03   -0.16064E-03   688   0.500E-03-0.325E-05
CGA:  13    -0.478314234393E+03   -0.46714E-04   -0.46764E-04   688   0.205E-03 0.165E-05
  29 F= -.48170365E+03 E0= -.48167465E+03  d E =-.129521E-01  mag=    -0.0000
       N       E                     dE             d eps       ncg     rms          ort
SDA:   1    -0.478300588447E+03    0.13599E-01    0.00000E+00   688   0.332E-01 0.000E+00
CGA:   2    -0.478309739963E+03   -0.91515E-02   -0.91524E-02   688   0.324E-01-0.463E-05
CGA:   3    -0.478312309751E+03   -0.25698E-02   -0.25981E-02   688   0.876E-02-0.238E-03
CGA:   4    -0.478313988923E+03   -0.16792E-02   -0.16792E-02   688   0.157E-02-0.170E-05
CGA:   5    -0.478314235417E+03   -0.24649E-03   -0.24655E-03   688   0.120E-02 0.424E-05
CGA:   6    -0.478314366935E+03   -0.13152E-03   -0.13146E-03   688   0.248E-03 0.214E-06
CGA:   7    -0.478314414899E+03   -0.47964E-04   -0.47951E-04   688   0.199E-03 0.450E-06
  30 F= -.48170398E+03 E0= -.48167498E+03  d E =-.132839E-01  mag=    -0.0000
       N       E                     dE             d eps       ncg     rms          ort
SDA:   1    -0.477880497834E+03    0.43387E+00    0.00000E+00   688   0.108E+01 0.000E+00
CGA:   2    -0.478161421256E+03   -0.28092E+00   -0.27938E+00   688   0.114E+01 0.150E-01
CGA:   3    -0.478261670698E+03   -0.10025E+00   -0.94236E-01   688   0.248E+00 0.293E-01
CGA:   4    -0.478314181659E+03   -0.52511E-01   -0.52495E-01   688   0.459E-01 0.269E-03
CGA:   5    -0.478323913968E+03   -0.97323E-02   -0.97342E-02   688   0.202E-01-0.403E-04
CGA:   6    -0.478326181480E+03   -0.22675E-02   -0.22714E-02   688   0.107E-01 0.112E-04
CGA:   7    -0.478327680444E+03   -0.14990E-02   -0.14983E-02   688   0.398E-02-0.320E-05
CGA:   8    -0.478328396126E+03   -0.71568E-03   -0.71578E-03   688   0.365E-02-0.984E-05
CGA:   9    -0.478328796180E+03   -0.40005E-03   -0.39998E-03   688   0.104E-02 0.731E-05
CGA:  10    -0.478329115587E+03   -0.31941E-03   -0.31986E-03   688   0.560E-03-0.317E-05
CGA:  11    -0.478329185933E+03   -0.70346E-04   -0.70464E-04   688   0.480E-03 0.331E-05
  31 F= -.48171789E+03 E0= -.48168882E+03  d E =-.139082E-01  mag=    -0.0000
       N       E                     dE             d eps       ncg     rms          ort
SDA:   1    -0.478183867534E+03    0.14525E+00    0.00000E+00   688   0.354E+00 0.000E+00
CGA:   2    -0.478277905461E+03   -0.94038E-01   -0.93836E-01   688   0.381E+00 0.188E-02
CGA:   3    -0.478309235240E+03   -0.31330E-01   -0.30219E-01   688   0.828E-01 0.706E-02
CGA:   4    -0.478326550779E+03   -0.17316E-01   -0.17312E-01   688   0.157E-01 0.651E-04
CGA:   5    -0.478329348297E+03   -0.27975E-02   -0.27969E-02   688   0.108E-01 0.334E-04
CGA:   6    -0.478330481047E+03   -0.11327E-02   -0.11272E-02   688   0.266E-02 0.249E-04
CGA:   7    -0.478331083088E+03   -0.60204E-03   -0.60207E-03   688   0.167E-02 0.271E-07
CGA:   8    -0.478331275433E+03   -0.19235E-03   -0.19223E-03   688   0.119E-02-0.536E-05
CGA:   9    -0.478331471417E+03   -0.19598E-03   -0.19599E-03   688   0.375E-03 0.155E-05
CGA:  10    -0.478331573625E+03   -0.10221E-03   -0.10251E-03   688   0.360E-03-0.287E-05
CGA:  11    -0.478331609521E+03   -0.35896E-04   -0.36118E-04   688   0.126E-03 0.365E-05
  32 F= -.48171981E+03 E0= -.48169069E+03  d E =-.158227E-01  mag=    -0.0000
       N       E                     dE             d eps       ncg     rms          ort
SDA:   1    -0.477902452152E+03    0.42912E+00    0.00000E+00   688   0.108E+01 0.000E+00
CGA:   2    -0.478167094069E+03   -0.26464E+00   -0.26259E+00   688   0.126E+01 0.237E-01
CGA:   3    -0.478283090855E+03   -0.11600E+00   -0.10792E+00   688   0.224E+00 0.399E-01
CGA:   4    -0.478332922519E+03   -0.49832E-01   -0.49801E-01   688   0.467E-01 0.478E-03
CGA:   5    -0.478341761715E+03   -0.88392E-02   -0.88419E-02   688   0.250E-01-0.106E-03
CGA:   6    -0.478344318998E+03   -0.25573E-02   -0.25736E-02   688   0.102E-01-0.860E-04
CGA:   7    -0.478346007474E+03   -0.16885E-02   -0.16885E-02   688   0.483E-02 0.781E-05
CGA:   8    -0.478346647925E+03   -0.64045E-03   -0.64120E-03   688   0.372E-02 0.488E-05
CGA:   9    -0.478347203773E+03   -0.55585E-03   -0.55565E-03   688   0.104E-02-0.820E-05
CGA:  10    -0.478347496560E+03   -0.29279E-03   -0.29269E-03   688   0.965E-03 0.831E-06
CGA:  11    -0.478347586709E+03   -0.90149E-04   -0.89986E-04   688   0.351E-03 0.110E-05
  33 F= -.48173495E+03 E0= -.48170585E+03  d E =-.151411E-01  mag=    -0.0000
       N       E                     dE             d eps       ncg     rms          ort
SDA:   1    -0.474911074852E+03    0.34364E+01    0.00000E+00   688   0.876E+01 0.000E+00
CGA:   2    -0.476905237298E+03   -0.19942E+01   -0.19575E+01   688   0.747E+01 0.527E+00
CGA:   3    -0.477820190390E+03   -0.91495E+00   -0.82499E+00   688   0.259E+01-0.265E+00
CGA:   4    -0.478201723148E+03   -0.38153E+00   -0.38163E+00   688   0.631E+00 0.123E-03
CGA:   5    -0.478303486323E+03   -0.10176E+00   -0.10163E+00   688   0.257E+00-0.652E-02
CGA:   6    -0.478330231523E+03   -0.26745E-01   -0.27400E-01   688   0.992E-01-0.120E-02
CGA:   7    -0.478348509104E+03   -0.18278E-01   -0.18284E-01   688   0.436E-01-0.205E-03
CGA:   8    -0.478353546182E+03   -0.50371E-02   -0.50664E-02   688   0.313E-01 0.142E-04
CGA:   9    -0.478358903984E+03   -0.53578E-02   -0.53584E-02   688   0.103E-01-0.588E-04
CGA:  10    -0.478360624742E+03   -0.17208E-02   -0.17208E-02   688   0.976E-02-0.169E-04
CGA:  11    -0.478362137948E+03   -0.15132E-02   -0.15132E-02   688   0.278E-02-0.478E-05
CGA:  12    -0.478362604559E+03   -0.46661E-03   -0.46659E-03   688   0.290E-02 0.404E-05
CGA:  13    -0.478362967375E+03   -0.36282E-03   -0.36293E-03   688   0.832E-03 0.548E-05
CGA:  14    -0.478363126530E+03   -0.15915E-03   -0.15937E-03   688   0.819E-03-0.808E-05
CGA:  15    -0.478363234725E+03   -0.10820E-03   -0.10829E-03   688   0.236E-03 0.348E-05
CGA:  16    -0.478363291963E+03   -0.57237E-04   -0.57427E-04   688   0.320E-03-0.244E-05
  34 F= -.48174834E+03 E0= -.48171919E+03  d E =-.285295E-01  mag=    -0.0000
       N       E                     dE             d eps       ncg     rms          ort
SDA:   1    -0.478075503885E+03    0.28773E+00    0.00000E+00   688   0.731E+00 0.000E+00
CGA:   2    -0.478250188052E+03   -0.17468E+00   -0.17365E+00   688   0.930E+00 0.119E-01
CGA:   3    -0.478333223088E+03   -0.83035E-01   -0.79852E-01   688   0.146E+00 0.128E-01
CGA:   4    -0.478365718943E+03   -0.32496E-01   -0.32464E-01   688   0.307E-01 0.426E-03
CGA:   5    -0.478370733964E+03   -0.50150E-02   -0.50145E-02   688   0.219E-01-0.827E-04
CGA:   6    -0.478372726417E+03   -0.19925E-02   -0.20002E-02   688   0.581E-02-0.523E-04
CGA:   7    -0.478373920131E+03   -0.11937E-02   -0.11935E-02   688   0.246E-02 0.677E-05
CGA:   8    -0.478374369690E+03   -0.44956E-03   -0.44969E-03   688   0.236E-02-0.859E-05
CGA:   9    -0.478374617199E+03   -0.24751E-03   -0.24760E-03   688   0.687E-03 0.370E-05
CGA:  10    -0.478374799823E+03   -0.18262E-03   -0.18251E-03   688   0.591E-03 0.106E-05
CGA:  11    -0.478374856258E+03   -0.56436E-04   -0.56361E-04   688   0.206E-03-0.798E-06
  35 F= -.48175935E+03 E0= -.48173021E+03  d E =-.110114E-01  mag=    -0.0000
       N       E                     dE             d eps       ncg     rms          ort
SDA:   1    -0.475678413583E+03    0.26964E+01    0.00000E+00   688   0.690E+01 0.000E+00
CGA:   2    -0.477244389238E+03   -0.15660E+01   -0.15413E+01   688   0.652E+01 0.346E+00
CGA:   3    -0.477984006130E+03   -0.73962E+00   -0.68491E+00   688   0.192E+01-0.173E+00
CGA:   4    -0.478276186797E+03   -0.29218E+00   -0.29222E+00   688   0.497E+00 0.922E-03
CGA:   5    -0.478353546620E+03   -0.77360E-01   -0.77326E-01   688   0.225E+00-0.134E-02
CGA:   6    -0.478374450269E+03   -0.20904E-01   -0.21048E-01   688   0.738E-01-0.903E-03
CGA:   7    -0.478388863800E+03   -0.14414E-01   -0.14432E-01   688   0.365E-01-0.358E-03
CGA:   8    -0.478392995210E+03   -0.41314E-02   -0.41477E-02   688   0.210E-01 0.197E-04
CGA:   9    -0.478396996873E+03   -0.40017E-02   -0.40029E-02   688   0.797E-02-0.293E-04
CGA:  10    -0.478398184783E+03   -0.11879E-02   -0.11883E-02   688   0.769E-02 0.640E-05
CGA:  11    -0.478399335910E+03   -0.11511E-02   -0.11510E-02   688   0.212E-02-0.781E-06
CGA:  12    -0.478399704834E+03   -0.36892E-03   -0.36898E-03   688   0.205E-02-0.558E-05
CGA:  13    -0.478399970003E+03   -0.26517E-03   -0.26536E-03   688   0.588E-03 0.671E-05
CGA:  14    -0.478400085010E+03   -0.11501E-03   -0.11511E-03   688   0.631E-03-0.329E-05
CGA:  15    -0.478400157739E+03   -0.72729E-04   -0.72683E-04   688   0.174E-03-0.681E-06
  36 F= -.48178321E+03 E0= -.48175404E+03  d E =-.348739E-01  mag=    -0.0000
       N       E                     dE             d eps       ncg     rms          ort
SDA:   1    -0.467076904915E+03    0.11323E+02    0.00000E+00   688   0.336E+02 0.000E+00
CGA:   2    -0.473018739263E+03   -0.59418E+01   -0.59062E+01   688   0.210E+02 0.182E+01
CGA:   3    -0.476361525952E+03   -0.33428E+01   -0.33297E+01   688   0.123E+02-0.913E+00
CGA:   4    -0.477773154759E+03   -0.14116E+01   -0.13392E+01   688   0.238E+01-0.404E+00
CGA:   5    -0.478228247249E+03   -0.45509E+00   -0.45353E+00   688   0.456E+00 0.291E-01
CGA:   6    -0.478328149119E+03   -0.99902E-01   -0.10023E+00   688   0.319E+00-0.449E-02
CGA:   7    -0.478359787493E+03   -0.31638E-01   -0.33036E-01   688   0.129E+00-0.257E-02
CGA:   8    -0.478387069413E+03   -0.27282E-01   -0.27312E-01   688   0.408E-01-0.426E-03
CGA:   9    -0.478397193851E+03   -0.10124E-01   -0.10118E-01   688   0.367E-01 0.622E-04
CGA:  10    -0.478400595467E+03   -0.34016E-02   -0.33938E-02   688   0.143E-01 0.524E-04
CGA:  11    -0.478403695459E+03   -0.31000E-02   -0.30991E-02   688   0.721E-02 0.146E-04
CGA:  12    -0.478404547544E+03   -0.85208E-03   -0.85505E-03   688   0.442E-02-0.534E-05
CGA:  13    -0.478405465748E+03   -0.91820E-03   -0.91808E-03   688   0.132E-02 0.359E-05
CGA:  14    -0.478405788602E+03   -0.32285E-03   -0.32301E-03   688   0.158E-02-0.213E-05
CGA:  15    -0.478405944632E+03   -0.15603E-03   -0.15618E-03   688   0.467E-03-0.127E-05
CGA:  16    -0.478406058585E+03   -0.11395E-03   -0.11362E-03   688   0.476E-03 0.443E-05
CGA:  17    -0.478406111638E+03   -0.53053E-04   -0.52831E-04   688   0.166E-03-0.430E-05
  37 F= -.48178720E+03 E0= -.48175797E+03  d E =-.388685E-01  mag=    -0.0000
       N       E                     dE             d eps       ncg     rms          ort
SDA:   1    -0.476508133764E+03    0.18979E+01    0.00000E+00   688   0.471E+01 0.000E+00
CGA:   2    -0.477638600322E+03   -0.11305E+01   -0.11224E+01   688   0.505E+01 0.106E+00
CGA:   3    -0.478118247544E+03   -0.47965E+00   -0.50252E+00   688   0.154E+01-0.291E+00
CGA:   4    -0.478318723679E+03   -0.20048E+00   -0.19928E+00   688   0.364E+00-0.830E-02
CGA:   5    -0.478378388925E+03   -0.59665E-01   -0.59673E-01   688   0.149E+00 0.422E-03
CGA:   6    -0.478392477547E+03   -0.14089E-01   -0.13895E-01   688   0.533E-01 0.678E-03
CGA:   7    -0.478403221951E+03   -0.10744E-01   -0.10742E-01   688   0.222E-01 0.531E-04
CGA:   8    -0.478406081895E+03   -0.28599E-02   -0.28590E-02   688   0.163E-01 0.238E-04
CGA:   9    -0.478408767108E+03   -0.26852E-02   -0.26852E-02   688   0.533E-02-0.793E-05
CGA:  10    -0.478409756858E+03   -0.98975E-03   -0.98995E-03   688   0.554E-02-0.637E-05
CGA:  11    -0.478410395749E+03   -0.63889E-03   -0.63927E-03   688   0.152E-02-0.576E-05
CGA:  12    -0.478410740381E+03   -0.34463E-03   -0.34432E-03   688   0.115E-02 0.540E-05
CGA:  13    -0.478410858764E+03   -0.11838E-03   -0.11865E-03   688   0.449E-03 0.240E-05
CGA:  14    -0.478410958951E+03   -0.10019E-03   -0.10002E-03   688   0.276E-03 0.297E-05
CGA:  15    -0.478410989591E+03   -0.30641E-04   -0.30483E-04   688   0.144E-03-0.273E-05
  38 F= -.48179278E+03 E0= -.48176357E+03  d E =-.444414E-01  mag=    -0.0000
       N       E                     dE             d eps       ncg     rms          ort
SDA:   1    -0.476886389694E+03    0.15246E+01    0.00000E+00   688   0.391E+01 0.000E+00
CGA:   2    -0.477807528988E+03   -0.92114E+00   -0.91115E+00   688   0.412E+01 0.127E+00
CGA:   3    -0.478220737276E+03   -0.41321E+00   -0.39013E+00   688   0.932E+00-0.242E-01
CGA:   4    -0.478384086085E+03   -0.16335E+00   -0.16334E+00   688   0.269E+00 0.642E-03
CGA:   5    -0.478422587564E+03   -0.38501E-01   -0.38447E-01   688   0.129E+00-0.800E-03
CGA:   6    -0.478434578336E+03   -0.11991E-01   -0.12073E-01   688   0.388E-01-0.454E-03
CGA:   7    -0.478442619036E+03   -0.80407E-02   -0.80474E-02   688   0.163E-01-0.104E-03
CGA:   8    -0.478444673857E+03   -0.20548E-02   -0.20589E-02   688   0.122E-01 0.205E-04
CGA:   9    -0.478446634171E+03   -0.19603E-02   -0.19602E-02   688   0.377E-02-0.113E-04
CGA:  10    -0.478447329097E+03   -0.69493E-03   -0.69502E-03   688   0.409E-02-0.609E-05
CGA:  11    -0.478447822824E+03   -0.49373E-03   -0.49373E-03   688   0.104E-02 0.631E-05
CGA:  12    -0.478448056968E+03   -0.23414E-03   -0.23423E-03   688   0.947E-03-0.159E-05
CGA:  13    -0.478448150919E+03   -0.93950E-04   -0.94066E-04   688   0.304E-03 0.284E-05
  39 F= -.48182974E+03 E0= -.48180032E+03  d E =-.369654E-01  mag=    -0.0000
       N       E                     dE             d eps       ncg     rms          ort
SDA:   1    -0.463625753878E+03    0.14822E+02    0.00000E+00   688   0.482E+02 0.000E+00
CGA:   2    -0.471228492183E+03   -0.76027E+01   -0.76380E+01   688   0.263E+02 0.205E+01
CGA:   3    -0.475718105126E+03   -0.44896E+01   -0.44913E+01   688   0.152E+02 0.258E+00
CGA:   4    -0.477612658514E+03   -0.18946E+01   -0.17506E+01   688   0.351E+01-0.886E+00
CGA:   5    -0.478213323488E+03   -0.60066E+00   -0.60141E+00   688   0.975E+00-0.238E-01
CGA:   6    -0.478332918423E+03   -0.11959E+00   -0.12025E+00   688   0.592E+00 0.115E-02
CGA:   7    -0.478408497884E+03   -0.75579E-01   -0.75140E-01   688   0.213E+00-0.336E-02
CGA:   8    -0.478448829078E+03   -0.40331E-01   -0.40299E-01   688   0.116E+00 0.741E-03
CGA:   9    -0.478461705074E+03   -0.12876E-01   -0.12805E-01   688   0.664E-01-0.357E-04
CGA:  10    -0.478473296057E+03   -0.11591E-01   -0.11587E-01   688   0.244E-01 0.133E-03
CGA:  11    -0.478477635331E+03   -0.43393E-02   -0.43404E-02   688   0.221E-01-0.320E-04
CGA:  12    -0.478480071418E+03   -0.24361E-02   -0.24374E-02   688   0.687E-02-0.140E-04
CGA:  13    -0.478481513138E+03   -0.14417E-02   -0.14421E-02   688   0.553E-02-0.325E-05
CGA:  14    -0.478482098106E+03   -0.58497E-03   -0.58596E-03   688   0.238E-02 0.345E-05
CGA:  15    -0.478482621282E+03   -0.52318E-03   -0.52324E-03   688   0.127E-02-0.105E-05
CGA:  16    -0.478482777834E+03   -0.15655E-03   -0.15656E-03   688   0.930E-03-0.170E-05
CGA:  17    -0.478482941366E+03   -0.16353E-03   -0.16351E-03   688   0.372E-03 0.130E-05
CGA:  18    -0.478483002869E+03   -0.61503E-04   -0.61515E-04   688   0.371E-03-0.249E-05
  40 F= -.48186441E+03 E0= -.48183428E+03  d E =-.716318E-01  mag=    -0.0000
       N       E                     dE             d eps       ncg     rms          ort
SDA:   1    -0.477913481252E+03    0.56946E+00    0.00000E+00   688   0.139E+01 0.000E+00
CGA:   2    -0.478263307419E+03   -0.34983E+00   -0.34913E+00   688   0.172E+01 0.813E-02
CGA:   3    -0.478402113008E+03   -0.13881E+00   -0.14256E+00   688   0.360E+00-0.444E-01
CGA:   4    -0.478460685324E+03   -0.58572E-01   -0.58580E-01   688   0.114E+00-0.565E-03
CGA:   5    -0.478474882979E+03   -0.14198E-01   -0.14143E-01   688   0.501E-01-0.356E-03
CGA:   6    -0.478480305501E+03   -0.54225E-02   -0.54250E-02   688   0.145E-01-0.325E-04
CGA:   7    -0.478483010362E+03   -0.27049E-02   -0.27036E-02   688   0.102E-01 0.314E-04
CGA:   8    -0.478483985792E+03   -0.97543E-03   -0.97586E-03   688   0.358E-02 0.235E-04
CGA:   9    -0.478484846762E+03   -0.86097E-03   -0.86142E-03   688   0.179E-02-0.529E-05
CGA:  10    -0.478485078339E+03   -0.23158E-03   -0.23169E-03   688   0.135E-02 0.469E-05
CGA:  11    -0.478485305263E+03   -0.22692E-03   -0.22700E-03   688   0.519E-03-0.734E-05
CGA:  12    -0.478485373911E+03   -0.68648E-04   -0.68676E-04   688   0.400E-03 0.141E-05
  41 F= -.48186682E+03 E0= -.48183683E+03  d E =-.740398E-01  mag=    -0.0000
       N       E                     dE             d eps       ncg     rms          ort
SDA:   1    -0.476867906432E+03    0.16174E+01    0.00000E+00   688   0.418E+01 0.000E+00
CGA:   2    -0.477831536076E+03   -0.96363E+00   -0.94908E+00   688   0.429E+01 0.175E+00
CGA:   3    -0.478272472008E+03   -0.44094E+00   -0.41226E+00   688   0.104E+01-0.329E-01
CGA:   4    -0.478448694403E+03   -0.17622E+00   -0.17623E+00   688   0.307E+00-0.164E-03
CGA:   5    -0.478492310452E+03   -0.43616E-01   -0.43573E-01   688   0.153E+00-0.123E-02
CGA:   6    -0.478506048062E+03   -0.13738E-01   -0.13819E-01   688   0.415E-01-0.430E-03
CGA:   7    -0.478514605158E+03   -0.85571E-02   -0.85663E-02   688   0.211E-01-0.127E-03
CGA:   8    -0.478516866164E+03   -0.22610E-02   -0.22649E-02   688   0.118E-01 0.110E-04
CGA:   9    -0.478519114861E+03   -0.22487E-02   -0.22498E-02   688   0.467E-02-0.204E-04
CGA:  10    -0.478519758853E+03   -0.64399E-03   -0.64403E-03   688   0.421E-02-0.416E-05
CGA:  11    -0.478520410549E+03   -0.65170E-03   -0.65170E-03   688   0.117E-02 0.176E-05
CGA:  12    -0.478520620080E+03   -0.20953E-03   -0.20960E-03   688   0.122E-02-0.296E-05
CGA:  13    -0.478520764966E+03   -0.14489E-03   -0.14499E-03   688   0.326E-03 0.370E-05
CGA:  14    -0.478520832240E+03   -0.67274E-04   -0.67354E-04   688   0.360E-03-0.159E-05
  42 F= -.48190247E+03 E0= -.48187241E+03  d E =-.356550E-01  mag=    -0.0000
       N       E                     dE             d eps       ncg     rms          ort
SDA:   1    -0.470784055326E+03    0.77367E+01    0.00000E+00   688   0.222E+02 0.000E+00
CGA:   2    -0.474980011636E+03   -0.41960E+01   -0.41282E+01   688   0.151E+02 0.144E+01
CGA:   3    -0.477164829977E+03   -0.21848E+01   -0.21405E+01   688   0.877E+01-0.120E+01
CGA:   4    -0.478123361876E+03   -0.95853E+00   -0.94010E+00   688   0.159E+01-0.151E+00
CGA:   5    -0.478431754638E+03   -0.30839E+00   -0.30721E+00   688   0.408E+00 0.193E-01
CGA:   6    -0.478479571220E+03   -0.47817E-01   -0.47509E-01   688   0.290E+00-0.168E-02
CGA:   7    -0.478520102511E+03   -0.40531E-01   -0.40530E-01   688   0.850E-01-0.694E-04
CGA:   8    -0.478532077963E+03   -0.11975E-01   -0.11988E-01   688   0.801E-01 0.438E-03
CGA:   9    -0.478542495360E+03   -0.10417E-01   -0.10402E-01   688   0.183E-01-0.205E-03
CGA:  10    -0.478548256086E+03   -0.57607E-02   -0.57635E-02   688   0.885E-02-0.175E-04
CGA:  11    -0.478549391939E+03   -0.11359E-02   -0.11365E-02   688   0.905E-02 0.148E-07
CGA:  12    -0.478550713181E+03   -0.13212E-02   -0.13211E-02   688   0.194E-02-0.339E-05
CGA:  13    -0.478551288868E+03   -0.57569E-03   -0.57554E-03   688   0.178E-02 0.101E-05
CGA:  14    -0.478551444570E+03   -0.15570E-03   -0.15557E-03   688   0.723E-03-0.279E-05
CGA:  15    -0.478551630867E+03   -0.18630E-03   -0.18637E-03   688   0.445E-03-0.815E-06
CGA:  16    -0.478551677186E+03   -0.46319E-04   -0.46531E-04   688   0.268E-03 0.351E-05
  43 F= -.48193345E+03 E0= -.48190322E+03  d E =-.666366E-01  mag=     0.0000
       N       E                     dE             d eps       ncg     rms          ort
SDA:   1    -0.476838467641E+03    0.17132E+01    0.00000E+00   688   0.444E+01 0.000E+00
CGA:   2    -0.477843893692E+03   -0.10054E+01   -0.98990E+00   688   0.457E+01 0.216E+00
CGA:   3    -0.478318561902E+03   -0.47467E+00   -0.43393E+00   688   0.111E+01-0.614E-02
CGA:   4    -0.478510041932E+03   -0.19148E+00   -0.19147E+00   688   0.342E+00 0.948E-03
CGA:   5    -0.478555856729E+03   -0.45815E-01   -0.45655E-01   688   0.184E+00-0.154E-02
CGA:   6    -0.478572250732E+03   -0.16394E-01   -0.16518E-01   688   0.439E-01-0.721E-03
CGA:   7    -0.478581782448E+03   -0.95317E-02   -0.95411E-02   688   0.244E-01-0.122E-03
CGA:   8    -0.478584179118E+03   -0.23967E-02   -0.24066E-02   688   0.132E-01-0.268E-04
CGA:   9    -0.478586783620E+03   -0.26045E-02   -0.26052E-02   688   0.515E-02-0.108E-04
CGA:  10    -0.478587503984E+03   -0.72036E-03   -0.72050E-03   688   0.497E-02-0.203E-05
CGA:  11    -0.478588258998E+03   -0.75501E-03   -0.75495E-03   688   0.139E-02-0.116E-05
CGA:  12    -0.478588494421E+03   -0.23542E-03   -0.23540E-03   688   0.151E-02 0.191E-05
CGA:  13    -0.478588680370E+03   -0.18595E-03   -0.18595E-03   688   0.391E-03 0.785E-06
CGA:  14    -0.478588763116E+03   -0.82746E-04   -0.82820E-04   688   0.475E-03-0.149E-05
  44 F= -.48197023E+03 E0= -.48193992E+03  d E =-.367749E-01  mag=    -0.0000
       N       E                     dE             d eps       ncg     rms          ort
SDA:   1    -0.472543751174E+03    0.60449E+01    0.00000E+00   688   0.167E+02 0.000E+00
CGA:   2    -0.475873827385E+03   -0.33301E+01   -0.32645E+01   688   0.121E+02 0.125E+01
CGA:   3    -0.477540987978E+03   -0.16672E+01   -0.15740E+01   688   0.666E+01-0.120E+01
CGA:   4    -0.478284306155E+03   -0.74332E+00   -0.73753E+00   688   0.125E+01-0.568E-01
CGA:   5    -0.478509891552E+03   -0.22559E+00   -0.22491E+00   688   0.456E+00 0.172E-01
CGA:   6    -0.478553783304E+03   -0.43892E-01   -0.42767E-01   688   0.184E+00 0.221E-02
CGA:   7    -0.478587963406E+03   -0.34180E-01   -0.34181E-01   688   0.915E-01-0.534E-05
CGA:   8    -0.478596383843E+03   -0.84204E-02   -0.84675E-02   688   0.532E-01-0.234E-03
CGA:   9    -0.478606707627E+03   -0.10324E-01   -0.10326E-01   688   0.142E-01-0.421E-04
CGA:  10    -0.478611031238E+03   -0.43236E-02   -0.43189E-02   688   0.106E-01 0.322E-04
CGA:  11    -0.478612092948E+03   -0.10617E-02   -0.10605E-02   688   0.485E-02 0.278E-04
CGA:  12    -0.478613186463E+03   -0.10935E-02   -0.10938E-02   688   0.318E-02-0.486E-05
CGA:  13    -0.478613453379E+03   -0.26692E-03   -0.26686E-03   688   0.144E-02-0.550E-05
CGA:  14    -0.478613822400E+03   -0.36902E-03   -0.36881E-03   688   0.513E-03 0.215E-05
CGA:  15    -0.478613925127E+03   -0.10273E-03   -0.10283E-03   688   0.637E-03-0.330E-05
CGA:  16    -0.478614013228E+03   -0.88101E-04   -0.88219E-04   688   0.144E-03 0.526E-05
  45 F= -.48199453E+03 E0= -.48196411E+03  d E =-.610785E-01  mag=    -0.0000
       N       E                     dE             d eps       ncg     rms          ort
SDA:   1    -0.477218256656E+03    0.13957E+01    0.00000E+00   688   0.362E+01 0.000E+00
CGA:   2    -0.478010204367E+03   -0.79195E+00   -0.78248E+00   688   0.408E+01 0.167E+00
CGA:   3    -0.478424087577E+03   -0.41388E+00   -0.37839E+00   688   0.856E+00 0.221E-01
CGA:   4    -0.478580925806E+03   -0.15684E+00   -0.15681E+00   688   0.303E+00 0.187E-02
CGA:   5    -0.478614720960E+03   -0.33795E-01   -0.33776E-01   688   0.154E+00-0.489E-03
CGA:   6    -0.478631125508E+03   -0.16405E-01   -0.16416E-01   688   0.369E-01-0.981E-04
CGA:   7    -0.478638134300E+03   -0.70088E-02   -0.70109E-02   688   0.297E-01-0.487E-04
CGA:   8    -0.478640924371E+03   -0.27901E-02   -0.27956E-02   688   0.955E-02-0.344E-04
CGA:   9    -0.478643137065E+03   -0.22127E-02   -0.22128E-02   688   0.659E-02-0.656E-06
CGA:  10    -0.478643771168E+03   -0.63410E-03   -0.63493E-03   688   0.323E-02-0.287E-05
CGA:  11    -0.478644501503E+03   -0.73034E-03   -0.73064E-03   688   0.157E-02-0.461E-05
CGA:  12    -0.478644676510E+03   -0.17501E-03   -0.17518E-03   688   0.108E-02 0.150E-05
CGA:  13    -0.478644876302E+03   -0.19979E-03   -0.19976E-03   688   0.421E-03 0.172E-05
CGA:  14    -0.478644932676E+03   -0.56374E-04   -0.56310E-04   688   0.378E-03-0.224E-05
  46 F= -.48202489E+03 E0= -.48199423E+03  d E =-.303528E-01  mag=    -0.0000
       N       E                     dE             d eps       ncg     rms          ort
SDA:   1    -0.472118396912E+03    0.65265E+01    0.00000E+00   688   0.181E+02 0.000E+00
CGA:   2    -0.475682745201E+03   -0.35643E+01   -0.34934E+01   688   0.124E+02 0.160E+01
CGA:   3    -0.477486277634E+03   -0.18035E+01   -0.16612E+01   688   0.766E+01-0.166E+01
CGA:   4    -0.478299795557E+03   -0.81352E+00   -0.80669E+00   688   0.151E+01-0.482E-01
CGA:   5    -0.478510072139E+03   -0.21028E+00   -0.21071E+00   688   0.100E+01 0.636E-02
CGA:   6    -0.478594210750E+03   -0.84139E-01   -0.84699E-01   688   0.235E+00-0.823E-02
CGA:   7    -0.478625888062E+03   -0.31677E-01   -0.31569E-01   688   0.216E+00-0.178E-02
CGA:   8    -0.478648420080E+03   -0.22532E-01   -0.22788E-01   688   0.503E-01 0.360E-04
CGA:   9    -0.478659984977E+03   -0.11565E-01   -0.11563E-01   688   0.540E-01 0.240E-04
CGA:  10    -0.478663992113E+03   -0.40071E-02   -0.40254E-02   688   0.157E-01-0.155E-03
CGA:  11    -0.478668146186E+03   -0.41541E-02   -0.41508E-02   688   0.102E-01 0.276E-04
CGA:  12    -0.478669124314E+03   -0.97813E-03   -0.98024E-03   688   0.492E-02 0.183E-04
CGA:  13    -0.478670144288E+03   -0.10200E-02   -0.10199E-02   688   0.404E-02-0.176E-06
CGA:  14    -0.478670467036E+03   -0.32275E-03   -0.32379E-03   688   0.134E-02-0.198E-04
CGA:  15    -0.478670851741E+03   -0.38470E-03   -0.38434E-03   688   0.696E-03 0.267E-05
CGA:  16    -0.478670937670E+03   -0.85929E-04   -0.85744E-04   688   0.623E-03-0.454E-05
CGA:  17    -0.478671049879E+03   -0.11221E-03   -0.11217E-03   688   0.355E-03 0.164E-05
CGA:  18    -0.478671082140E+03   -0.32261E-04   -0.32404E-04   688   0.170E-03 0.299E-05
  47 F= -.48204955E+03 E0= -.48201850E+03  d E =-.550145E-01  mag=    -0.0000
       N       E                     dE             d eps       ncg     rms          ort
SDA:   1    -0.478121277318E+03    0.54977E+00    0.00000E+00   688   0.143E+01 0.000E+00
CGA:   2    -0.478450411191E+03   -0.32913E+00   -0.32760E+00   688   0.185E+01 0.208E-01
CGA:   3    -0.478604873514E+03   -0.15446E+00   -0.14896E+00   688   0.314E+00 0.784E-02
CGA:   4    -0.478674374131E+03   -0.69501E-01   -0.69468E-01   688   0.864E-01 0.450E-03
CGA:   5    -0.478684154720E+03   -0.97806E-02   -0.98848E-02   688   0.516E-01 0.257E-04
CGA:   6    -0.478690348321E+03   -0.61936E-02   -0.61766E-02   688   0.144E-01-0.557E-04
CGA:   7    -0.478692437482E+03   -0.20892E-02   -0.20893E-02   688   0.115E-01 0.107E-04
CGA:   8    -0.478693753150E+03   -0.13157E-02   -0.13148E-02   688   0.393E-02-0.807E-05
CGA:   9    -0.478694671242E+03   -0.91809E-03   -0.91787E-03   688   0.218E-02 0.198E-05
CGA:  10    -0.478694921551E+03   -0.25031E-03   -0.25018E-03   688   0.170E-02-0.401E-05
CGA:  11    -0.478695229558E+03   -0.30801E-03   -0.30803E-03   688   0.677E-03-0.851E-06
CGA:  12    -0.478695307279E+03   -0.77721E-04   -0.77852E-04   688   0.453E-03 0.440E-05
  48 F= -.48207369E+03 E0= -.48204234E+03  d E =-.241452E-01  mag=    -0.0000
       N       E                     dE             d eps       ncg     rms          ort
SDA:   1    -0.476198405516E+03    0.24968E+01    0.00000E+00   688   0.635E+01 0.000E+00
CGA:   2    -0.477645065547E+03   -0.14467E+01   -0.14174E+01   688   0.632E+01 0.400E+00
CGA:   3    -0.478300276854E+03   -0.65521E+00   -0.58721E+00   688   0.169E+01-0.180E+00
CGA:   4    -0.478592769463E+03   -0.29249E+00   -0.29263E+00   688   0.630E+00-0.375E-02
CGA:   5    -0.478656350733E+03   -0.63581E-01   -0.65548E-01   688   0.267E+00-0.323E-02
CGA:   6    -0.478688531808E+03   -0.32181E-01   -0.31975E-01   688   0.781E-01-0.117E-02
CGA:   7    -0.478699910342E+03   -0.11379E-01   -0.11377E-01   688   0.643E-01-0.929E-04
CGA:   8    -0.478707126576E+03   -0.72162E-02   -0.72214E-02   688   0.185E-01 0.887E-05
CGA:   9    -0.478711004691E+03   -0.38781E-02   -0.38737E-02   688   0.181E-01 0.646E-04
CGA:  10    -0.478712905378E+03   -0.19007E-02   -0.19010E-02   688   0.609E-02-0.132E-04
CGA:  11    -0.478714116906E+03   -0.12115E-02   -0.12115E-02   688   0.630E-02-0.155E-05
CGA:  12    -0.478714762164E+03   -0.64526E-03   -0.64482E-03   688   0.172E-02 0.766E-05
CGA:  13    -0.478715132991E+03   -0.37083E-03   -0.37076E-03   688   0.165E-02-0.101E-06
CGA:  14    -0.478715307515E+03   -0.17452E-03   -0.17466E-03   688   0.563E-03 0.543E-05
CGA:  15    -0.478715421071E+03   -0.11356E-03   -0.11364E-03   688   0.603E-03-0.200E-05
CGA:  16    -0.478715485316E+03   -0.64245E-04   -0.64144E-04   688   0.184E-03-0.232E-05
  49 F= -.48209357E+03 E0= -.48206160E+03  d E =-.440232E-01  mag=    -0.0000
       N       E                     dE             d eps       ncg     rms          ort
SDA:   1    -0.478317265750E+03    0.39816E+00    0.00000E+00   688   0.105E+01 0.000E+00
CGA:   2    -0.478552645348E+03   -0.23538E+00   -0.23502E+00   688   0.141E+01 0.591E-02
CGA:   3    -0.478665721888E+03   -0.11308E+00   -0.11152E+00   688   0.241E+00-0.441E-02
CGA:   4    -0.478719855143E+03   -0.54133E-01   -0.54101E-01   688   0.548E-01 0.373E-03
CGA:   5    -0.478727108160E+03   -0.72530E-02   -0.72788E-02   688   0.412E-01 0.242E-03
CGA:   6    -0.478731516531E+03   -0.44084E-02   -0.43925E-02   688   0.894E-02 0.175E-04
CGA:   7    -0.478732983448E+03   -0.14669E-02   -0.14668E-02   688   0.863E-02 0.155E-04
CGA:   8    -0.478733945624E+03   -0.96218E-03   -0.96129E-03   688   0.267E-02-0.830E-05
CGA:   9    -0.478734570746E+03   -0.62512E-03   -0.62514E-03   688   0.155E-02-0.712E-06
CGA:  10    -0.478734766133E+03   -0.19539E-03   -0.19531E-03   688   0.135E-02-0.267E-05
CGA:  11    -0.478734973471E+03   -0.20734E-03   -0.20734E-03   688   0.436E-03-0.751E-07
CGA:  12    -0.478735034009E+03   -0.60539E-04   -0.60583E-04   688   0.396E-03 0.300E-05
  50 F= -.48211336E+03 E0= -.48208128E+03  d E =-.197847E-01  mag=    -0.0000
       N       E                     dE             d eps       ncg     rms          ort
SDA:   1    -0.476820578207E+03    0.19144E+01    0.00000E+00   688   0.487E+01 0.000E+00
CGA:   2    -0.477929599756E+03   -0.11090E+01   -0.10962E+01   688   0.549E+01 0.178E+00
CGA:   3    -0.478424399807E+03   -0.49480E+00   -0.47124E+00   688   0.127E+01-0.176E+00
CGA:   4    -0.478661169191E+03   -0.23677E+00   -0.23699E+00   688   0.473E+00-0.359E-02
CGA:   5    -0.478704774942E+03   -0.43606E-01   -0.45282E-01   688   0.194E+00-0.528E-02
CGA:   6    -0.478730884246E+03   -0.26109E-01   -0.26068E-01   688   0.639E-01-0.820E-03
CGA:   7    -0.478738758748E+03   -0.78745E-02   -0.78727E-02   688   0.447E-01-0.127E-04
CGA:   8    -0.478744642142E+03   -0.58834E-02   -0.58834E-02   688   0.151E-01 0.569E-05
CGA:   9    -0.478747543136E+03   -0.29010E-02   -0.28979E-02   688   0.141E-01 0.564E-04
CGA:  10    -0.478749090183E+03   -0.15470E-02   -0.15468E-02   688   0.486E-02-0.136E-04
CGA:  11    -0.478750022905E+03   -0.93272E-03   -0.93264E-03   688   0.506E-02-0.917E-06
CGA:  12    -0.478750557757E+03   -0.53485E-03   -0.53468E-03   688   0.133E-02 0.669E-05
CGA:  13    -0.478750838859E+03   -0.28110E-03   -0.28115E-03   688   0.133E-02-0.188E-05
CGA:  14    -0.478750982718E+03   -0.14386E-03   -0.14397E-03   688   0.431E-03 0.407E-05
CGA:  15    -0.478751066104E+03   -0.83386E-04   -0.83496E-04   688   0.463E-03-0.275E-05
  51 F= -.48212977E+03 E0= -.48209747E+03  d E =-.362035E-01  mag=    -0.0000
       N       E                     dE             d eps       ncg     rms          ort
SDA:   1    -0.478180146037E+03    0.57084E+00    0.00000E+00   688   0.150E+01 0.000E+00
CGA:   2    -0.478517088863E+03   -0.33694E+00   -0.33741E+00   688   0.199E+01-0.218E-02
CGA:   3    -0.478671536091E+03   -0.15445E+00   -0.15526E+00   688   0.361E+00-0.324E-01
CGA:   4    -0.478751956634E+03   -0.80421E-01   -0.80342E-01   688   0.750E-01 0.871E-03
CGA:   5    -0.478762443410E+03   -0.10487E-01   -0.10491E-01   688   0.666E-01 0.917E-04
CGA:   6    -0.478768926232E+03   -0.64828E-02   -0.64783E-02   688   0.112E-01-0.495E-06
CGA:   7    -0.478771749429E+03   -0.28232E-02   -0.28219E-02   688   0.780E-02 0.132E-04
CGA:   8    -0.478772590974E+03   -0.84155E-03   -0.84149E-03   688   0.515E-02-0.639E-05
CGA:   9    -0.478773426389E+03   -0.83541E-03   -0.83541E-03   688   0.194E-02-0.284E-05
CGA:  10    -0.478773789035E+03   -0.36265E-03   -0.36250E-03   688   0.215E-02 0.523E-05
CGA:  11    -0.478774018660E+03   -0.22963E-03   -0.22976E-03   688   0.527E-03-0.417E-05
CGA:  12    -0.478774150588E+03   -0.13193E-03   -0.13197E-03   688   0.554E-03-0.484E-06
CGA:  13    -0.478774198216E+03   -0.47628E-04   -0.47569E-04   688   0.157E-03-0.125E-05
  52 F= -.48215330E+03 E0= -.48212100E+03  d E =-.235212E-01  mag=    -0.0000
       N       E                     dE             d eps       ncg     rms          ort
SDA:   1    -0.473462319495E+03    0.53118E+01    0.00000E+00   688   0.137E+02 0.000E+00
CGA:   2    -0.476564662986E+03   -0.31023E+01   -0.30271E+01   688   0.120E+02 0.108E+01
CGA:   3    -0.477824687234E+03   -0.12600E+01   -0.12230E+01   688   0.493E+01-0.174E+01
CGA:   4    -0.478531397107E+03   -0.70671E+00   -0.70850E+00   688   0.116E+01-0.123E+00
CGA:   5    -0.478674681286E+03   -0.14328E+00   -0.14579E+00   688   0.608E+00 0.177E-01
CGA:   6    -0.478739906800E+03   -0.65226E-01   -0.64024E-01   688   0.189E+00-0.437E-03
CGA:   7    -0.478767456881E+03   -0.27550E-01   -0.27554E-01   688   0.127E+00 0.175E-03
CGA:   8    -0.478781764433E+03   -0.14308E-01   -0.14260E-01   688   0.473E-01-0.171E-03
CGA:   9    -0.478791751893E+03   -0.99875E-02   -0.99654E-02   688   0.344E-01 0.305E-03
CGA:  10    -0.478795398638E+03   -0.36467E-02   -0.36425E-02   688   0.159E-01-0.219E-04
CGA:  11    -0.478798455765E+03   -0.30571E-02   -0.30542E-02   688   0.126E-01 0.528E-04
CGA:  12    -0.478799740235E+03   -0.12845E-02   -0.12816E-02   688   0.430E-02 0.164E-04
CGA:  13    -0.478800653782E+03   -0.91355E-03   -0.91226E-03   688   0.315E-02 0.150E-04
CGA:  14    -0.478801002341E+03   -0.34856E-03   -0.34839E-03   688   0.138E-02 0.568E-05
CGA:  15    -0.478801260609E+03   -0.25827E-03   -0.25831E-03   688   0.113E-02-0.230E-05
CGA:  16    -0.478801382513E+03   -0.12190E-03   -0.12175E-03   688   0.453E-03-0.323E-05
CGA:  17    -0.478801482538E+03   -0.10002E-03   -0.99737E-04   688   0.391E-03 0.413E-05
CGA:  18    -0.478801529093E+03   -0.46555E-04   -0.46464E-04   688   0.171E-03-0.217E-05
  53 F= -.48218137E+03 E0= -.48214913E+03  d E =-.515996E-01  mag=    -0.0000
       N       E                     dE             d eps       ncg     rms          ort
SDA:   1    -0.477349899881E+03    0.14516E+01    0.00000E+00   688   0.383E+01 0.000E+00
CGA:   2    -0.478170954855E+03   -0.82105E+00   -0.82305E+00   688   0.501E+01-0.881E-02
CGA:   3    -0.478568569626E+03   -0.39761E+00   -0.40741E+00   688   0.994E+00-0.223E+00
CGA:   4    -0.478771019829E+03   -0.20245E+00   -0.20219E+00   688   0.281E+00 0.373E-02
CGA:   5    -0.478798260939E+03   -0.27241E-01   -0.27681E-01   688   0.166E+00-0.132E-02
CGA:   6    -0.478821236970E+03   -0.22976E-01   -0.22972E-01   688   0.350E-01-0.106E-03
CGA:   7    -0.478827051964E+03   -0.58150E-02   -0.58133E-02   688   0.334E-01 0.974E-04
CGA:   8    -0.478830830089E+03   -0.37781E-02   -0.37745E-02   688   0.115E-01-0.146E-04
CGA:   9    -0.478833149990E+03   -0.23199E-02   -0.23179E-02   688   0.848E-02 0.271E-04
CGA:  10    -0.478834021471E+03   -0.87148E-03   -0.87020E-03   688   0.419E-02 0.485E-05
CGA:  11    -0.478834956150E+03   -0.93468E-03   -0.93413E-03   688   0.188E-02 0.592E-05
CGA:  12    -0.478835164132E+03   -0.20798E-03   -0.20802E-03   688   0.132E-02 0.189E-05
CGA:  13    -0.478835417023E+03   -0.25289E-03   -0.25289E-03   688   0.490E-03-0.431E-06
CGA:  14    -0.478835479769E+03   -0.62746E-04   -0.62651E-04   688   0.406E-03-0.323E-05
  54 F= -.48221602E+03 E0= -.48218381E+03  d E =-.346455E-01  mag=    -0.0000
       N       E                     dE             d eps       ncg     rms          ort
SDA:   1    -0.468006344028E+03    0.10829E+02    0.00000E+00   688   0.282E+02 0.000E+00
CGA:   2    -0.474362995953E+03   -0.63567E+01   -0.61159E+01   688   0.192E+02 0.334E+01
CGA:   3    -0.476762221468E+03   -0.23992E+01   -0.23975E+01   688   0.111E+02-0.302E+01
CGA:   4    -0.478299146450E+03   -0.15369E+01   -0.15472E+01   688   0.255E+01-0.614E+00
CGA:   5    -0.478580766335E+03   -0.28162E+00   -0.28874E+00   688   0.134E+01 0.259E-01
CGA:   6    -0.478747065071E+03   -0.16630E+00   -0.16553E+00   688   0.358E+00-0.813E-02
CGA:   7    -0.478816943323E+03   -0.69878E-01   -0.70090E-01   688   0.194E+00-0.342E-02
CGA:   8    -0.478836215113E+03   -0.19272E-01   -0.19678E-01   688   0.131E+00-0.257E-03
CGA:   9    -0.478858048667E+03   -0.21834E-01   -0.21838E-01   688   0.639E-01-0.206E-03
CGA:  10    -0.478864865204E+03   -0.68165E-02   -0.68592E-02   688   0.324E-01 0.888E-04
CGA:  11    -0.478872311574E+03   -0.74464E-02   -0.74426E-02   688   0.115E-01 0.372E-04
CGA:  12    -0.478874371515E+03   -0.20599E-02   -0.20612E-02   688   0.108E-01-0.230E-04
CGA:  13    -0.478875821794E+03   -0.14503E-02   -0.14530E-02   688   0.324E-02 0.319E-04
CGA:  14    -0.478876400383E+03   -0.57859E-03   -0.57870E-03   688   0.398E-02-0.403E-05
[...]
CGA:   2    -0.481536685474E+03   -0.26400E+00   -0.26401E+00   688   0.281E+00-0.280E-03
CGA:   3    -0.481603432581E+03   -0.66747E-01   -0.66760E-01   688   0.655E-01 0.756E-04
CGA:   4    -0.481617059642E+03   -0.13627E-01   -0.13625E-01   688   0.135E-01 0.122E-04
CGA:   5    -0.481620270289E+03   -0.32106E-02   -0.32106E-02   688   0.375E-02-0.194E-05
CGA:   6    -0.481621205297E+03   -0.93501E-03   -0.93491E-03   688   0.137E-02-0.388E-05
CGA:   7    -0.481621610961E+03   -0.40566E-03   -0.40564E-03   688   0.606E-03 0.134E-05
CGA:   8    -0.481621797445E+03   -0.18648E-03   -0.18645E-03   688   0.241E-03 0.100E-05
CGA:   9    -0.481621870101E+03   -0.72656E-04   -0.72665E-04   688   0.743E-04-0.352E-06
 198 F= -.48498424E+03 E0= -.48498279E+03  d E =-.494748E-02  mag=    -0.0000
       N       E                     dE             d eps       ncg     rms          ort
SDA:   1    -0.480584097335E+03    0.10377E+01    0.00000E+00   688   0.264E+01 0.000E+00
CGA:   2    -0.481370062607E+03   -0.78597E+00   -0.78601E+00   688   0.840E+00-0.145E-02
CGA:   3    -0.481569205077E+03   -0.19914E+00   -0.19921E+00   688   0.196E+00 0.514E-03
CGA:   4    -0.481609932409E+03   -0.40727E-01   -0.40713E-01   688   0.405E-01 0.139E-05
CGA:   5    -0.481619537051E+03   -0.96046E-02   -0.96046E-02   688   0.112E-01 0.961E-06
CGA:   6    -0.481622383156E+03   -0.28461E-02   -0.28460E-02   688   0.410E-02-0.682E-05
CGA:   7    -0.481623629907E+03   -0.12468E-02   -0.12466E-02   688   0.184E-02 0.356E-05
CGA:   8    -0.481624200455E+03   -0.57055E-03   -0.57048E-03   688   0.761E-03 0.182E-05
CGA:   9    -0.481624426051E+03   -0.22560E-03   -0.22561E-03   688   0.244E-03-0.490E-06
CGA:  10    -0.481624500732E+03   -0.74681E-04   -0.74651E-04   688   0.757E-04 0.102E-05
 199 F= -.48498750E+03 E0= -.48498609E+03  d E =-.820703E-02  mag=    -0.0000
       N       E                     dE             d eps       ncg     rms          ort
SDA:   1    -0.481151088070E+03    0.47334E+00    0.00000E+00   688   0.121E+01 0.000E+00
CGA:   2    -0.481511667098E+03   -0.36058E+00   -0.36060E+00   688   0.390E+00-0.708E-03
CGA:   3    -0.481603756064E+03   -0.92089E-01   -0.92114E-01   688   0.904E-01 0.159E-03
CGA:   4    -0.481622738544E+03   -0.18982E-01   -0.18979E-01   688   0.187E-01 0.111E-04
CGA:   5    -0.481627164645E+03   -0.44261E-02   -0.44261E-02   688   0.503E-02 0.292E-06
CGA:   6    -0.481628472037E+03   -0.13074E-02   -0.13073E-02   688   0.179E-02-0.483E-05
CGA:   7    -0.481629035094E+03   -0.56306E-03   -0.56296E-03   688   0.815E-03 0.259E-05
CGA:   8    -0.481629285701E+03   -0.25061E-03   -0.25059E-03   688   0.355E-03 0.447E-06
CGA:   9    -0.481629385629E+03   -0.99928E-04   -0.99929E-04   688   0.119E-03-0.233E-06
 200 F= -.48499267E+03 E0= -.48499130E+03  d E =-.517287E-02  mag=    -0.0000
       N       E                     dE             d eps       ncg     rms          ort
SDA:   1    -0.480988494339E+03    0.64079E+00    0.00000E+00   688   0.163E+01 0.000E+00
CGA:   2    -0.481472848198E+03   -0.48435E+00   -0.48439E+00   688   0.524E+00-0.115E-02
CGA:   3    -0.481596579828E+03   -0.12373E+00   -0.12377E+00   688   0.121E+00 0.270E-03
CGA:   4    -0.481622084949E+03   -0.25505E-01   -0.25500E-01   688   0.250E-01 0.758E-05
CGA:   5    -0.481627958084E+03   -0.58731E-02   -0.58731E-02   688   0.701E-02 0.864E-06
CGA:   6    -0.481629720676E+03   -0.17626E-02   -0.17625E-02   688   0.256E-02-0.555E-05
CGA:   7    -0.481630490592E+03   -0.76992E-03   -0.76984E-03   688   0.118E-02 0.265E-05
CGA:   8    -0.481630845842E+03   -0.35525E-03   -0.35522E-03   688   0.502E-03 0.119E-05
CGA:   9    -0.481630991919E+03   -0.14608E-03   -0.14608E-03   688   0.162E-03-0.509E-06
CGA:  10    -0.481631041324E+03   -0.49405E-04   -0.49384E-04   688   0.491E-04 0.674E-06
 201 F= -.48499466E+03 E0= -.48499334E+03  d E =-.716076E-02  mag=    -0.0000
       N       E                     dE             d eps       ncg     rms          ort
SDA:   1    -0.481287309752E+03    0.34368E+00    0.00000E+00   688   0.883E+00 0.000E+00
CGA:   2    -0.481548923997E+03   -0.26161E+00   -0.26162E+00   688   0.283E+00-0.135E-03
CGA:   3    -0.481616026338E+03   -0.67102E-01   -0.67113E-01   688   0.676E-01 0.777E-04
CGA:   4    -0.481629741206E+03   -0.13715E-01   -0.13712E-01   688   0.141E-01 0.953E-05
CGA:   5    -0.481633082841E+03   -0.33416E-02   -0.33416E-02   688   0.364E-02-0.150E-05
CGA:   6    -0.481634038508E+03   -0.95567E-03   -0.95563E-03   688   0.127E-02-0.459E-05
CGA:   7    -0.481634436398E+03   -0.39789E-03   -0.39781E-03   688   0.563E-03 0.200E-05
CGA:   8    -0.481634610620E+03   -0.17422E-03   -0.17421E-03   688   0.244E-03 0.257E-06
CGA:   9    -0.481634679654E+03   -0.69035E-04   -0.69036E-04   688   0.830E-04-0.902E-07
 202 F= -.48499840E+03 E0= -.48499711E+03  d E =-.373481E-02  mag=    -0.0000
       N       E                     dE             d eps       ncg     rms          ort
SDA:   1    -0.481489874401E+03    0.14474E+00    0.00000E+00   688   0.370E+00 0.000E+00
CGA:   2    -0.481599416134E+03   -0.10954E+00   -0.10954E+00   688   0.118E+00-0.451E-04
CGA:   3    -0.481627542493E+03   -0.28126E-01   -0.28129E-01   688   0.281E-01 0.153E-04
CGA:   4    -0.481633270526E+03   -0.57280E-02   -0.57277E-02   688   0.590E-02 0.760E-05
CGA:   5    -0.481634648181E+03   -0.13777E-02   -0.13776E-02   688   0.162E-02-0.156E-05
CGA:   6    -0.481635053198E+03   -0.40502E-03   -0.40496E-03   688   0.591E-03-0.308E-05
CGA:   7    -0.481635224868E+03   -0.17167E-03   -0.17165E-03   688   0.273E-03 0.845E-06
CGA:   8    -0.481635305504E+03   -0.80637E-04   -0.80624E-04   688   0.115E-03 0.503E-06
 203 F= -.48499908E+03 E0= -.48499782E+03  d E =-.442405E-02  mag=    -0.0000
       N       E                     dE             d eps       ncg     rms          ort
SDA:   1    -0.481541230619E+03    0.93994E-01    0.00000E+00   688   0.245E+00 0.000E+00
CGA:   2    -0.481614134919E+03   -0.72904E-01   -0.72907E-01   688   0.794E-01-0.630E-04
CGA:   3    -0.481632884767E+03   -0.18750E-01   -0.18751E-01   688   0.187E-01 0.607E-05
CGA:   4    -0.481636777550E+03   -0.38928E-02   -0.38929E-02   688   0.380E-02 0.831E-05
CGA:   5    -0.481637696205E+03   -0.91865E-03   -0.91860E-03   688   0.109E-02-0.200E-05
CGA:   6    -0.481637966986E+03   -0.27078E-03   -0.27074E-03   688   0.441E-03-0.204E-05
CGA:   7    -0.481638087249E+03   -0.12026E-03   -0.12026E-03   688   0.208E-03 0.431E-06
CGA:   8    -0.481638149246E+03   -0.61997E-04   -0.61989E-04   688   0.811E-04 0.296E-06
 204 F= -.48500196E+03 E0= -.48500069E+03  d E =-.287125E-02  mag=    -0.0000
       N       E                     dE             d eps       ncg     rms          ort
SDA:   1    -0.480945564304E+03    0.69252E+00    0.00000E+00   688   0.176E+01 0.000E+00
CGA:   2    -0.481468644887E+03   -0.52308E+00   -0.52313E+00   688   0.570E+00-0.105E-02
CGA:   3    -0.481603381438E+03   -0.13474E+00   -0.13477E+00   688   0.132E+00 0.290E-03
CGA:   4    -0.481631242035E+03   -0.27861E-01   -0.27854E-01   688   0.272E-01-0.258E-05
CGA:   5    -0.481637790817E+03   -0.65488E-02   -0.65487E-02   688   0.746E-02-0.185E-05
CGA:   6    -0.481639737866E+03   -0.19470E-02   -0.19470E-02   688   0.277E-02-0.599E-05
CGA:   7    -0.481640584569E+03   -0.84670E-03   -0.84659E-03   688   0.126E-02 0.296E-05
CGA:   8    -0.481640966370E+03   -0.38180E-03   -0.38180E-03   688   0.528E-03 0.986E-07
CGA:   9    -0.481641117637E+03   -0.15127E-03   -0.15127E-03   688   0.170E-03-0.516E-06
CGA:  10    -0.481641168468E+03   -0.50832E-04   -0.50811E-04   688   0.516E-04 0.742E-06
 205 F= -.48500504E+03 E0= -.48500375E+03  d E =-.595918E-02  mag=    -0.0000
       N       E                     dE             d eps       ncg     rms          ort
SDA:   1    -0.481479053658E+03    0.16206E+00    0.00000E+00   688   0.413E+00 0.000E+00
CGA:   2    -0.481603663337E+03   -0.12461E+00   -0.12461E+00   688   0.134E+00-0.105E-03
CGA:   3    -0.481635272888E+03   -0.31610E-01   -0.31613E-01   688   0.314E-01 0.176E-04
CGA:   4    -0.481641755442E+03   -0.64826E-02   -0.64820E-02   688   0.651E-02 0.741E-05
CGA:   5    -0.481643318401E+03   -0.15630E-02   -0.15629E-02   688   0.173E-02-0.247E-05
CGA:   6    -0.481643781353E+03   -0.46295E-03   -0.46294E-03   688   0.632E-03-0.295E-05
CGA:   7    -0.481643982924E+03   -0.20157E-03   -0.20153E-03   688   0.279E-03 0.895E-06
CGA:   8    -0.481644070934E+03   -0.88010E-04   -0.88020E-04   688   0.116E-03-0.245E-06
 206 F= -.48500812E+03 E0= -.48500679E+03  d E =-.307351E-02  mag=    -0.0000
       N       E                     dE             d eps       ncg     rms          ort
SDA:   1    -0.480164227357E+03    0.14798E+01    0.00000E+00   688   0.371E+01 0.000E+00
CGA:   2    -0.481284149071E+03   -0.11199E+01   -0.11200E+01   688   0.121E+01-0.244E-02
CGA:   3    -0.481568240448E+03   -0.28409E+00   -0.28421E+00   688   0.282E+00 0.950E-03
CGA:   4    -0.481627003882E+03   -0.58763E-01   -0.58737E-01   688   0.585E-01-0.402E-04
CGA:   5    -0.481641030668E+03   -0.14027E-01   -0.14027E-01   688   0.164E-01 0.586E-06
CGA:   6    -0.481645217156E+03   -0.41865E-02   -0.41865E-02   688   0.629E-02-0.704E-05
CGA:   7    -0.481647037902E+03   -0.18207E-02   -0.18207E-02   688   0.296E-02 0.352E-05
CGA:   8    -0.481647881729E+03   -0.84383E-03   -0.84381E-03   688   0.120E-02 0.135E-05
CGA:   9    -0.481648233306E+03   -0.35158E-03   -0.35161E-03   688   0.366E-03-0.161E-05
CGA:  10    -0.481648347034E+03   -0.11373E-03   -0.11368E-03   688   0.110E-03 0.116E-05
CGA:  11    -0.481648384629E+03   -0.37594E-04   -0.37572E-04   688   0.419E-04 0.329E-06
 207 F= -.48501295E+03 E0= -.48501154E+03  d E =-.790433E-02  mag=    -0.0000
       N       E                     dE             d eps       ncg     rms          ort
SDA:   1    -0.481480351506E+03    0.16800E+00    0.00000E+00   688   0.425E+00 0.000E+00
CGA:   2    -0.481609645310E+03   -0.12929E+00   -0.12930E+00   688   0.142E+00-0.173E-03
CGA:   3    -0.481642836336E+03   -0.33191E-01   -0.33196E-01   688   0.327E-01 0.207E-04
CGA:   4    -0.481649718986E+03   -0.68826E-02   -0.68822E-02   688   0.688E-02 0.904E-05
CGA:   5    -0.481651325783E+03   -0.16068E-02   -0.16067E-02   688   0.206E-02-0.232E-05
CGA:   6    -0.481651815262E+03   -0.48948E-03   -0.48939E-03   688   0.823E-03-0.256E-05
CGA:   7    -0.481652040460E+03   -0.22520E-03   -0.22520E-03   688   0.375E-03 0.395E-06
CGA:   8    -0.481652154737E+03   -0.11428E-03   -0.11427E-03   688   0.144E-03 0.181E-06
CGA:   9    -0.481652200417E+03   -0.45680E-04   -0.45714E-04   688   0.453E-04-0.798E-06
 208 F= -.48501693E+03 E0= -.48501560E+03  d E =-.398369E-02  mag=    -0.0000
       N       E                     dE             d eps       ncg     rms          ort
SDA:   1    -0.481471200132E+03    0.18095E+00    0.00000E+00   688   0.451E+00 0.000E+00
CGA:   2    -0.481608272756E+03   -0.13707E+00   -0.13708E+00   688   0.151E+00-0.193E-03
CGA:   3    -0.481643465065E+03   -0.35192E-01   -0.35197E-01   688   0.344E-01 0.242E-04
CGA:   4    -0.481650753391E+03   -0.72883E-02   -0.72879E-02   688   0.726E-02 0.851E-05
CGA:   5    -0.481652439855E+03   -0.16865E-02   -0.16864E-02   688   0.220E-02-0.211E-05
CGA:   6    -0.481652973020E+03   -0.53316E-03   -0.53309E-03   688   0.857E-03-0.288E-05
CGA:   7    -0.481653215975E+03   -0.24295E-03   -0.24295E-03   688   0.395E-03 0.584E-06
CGA:   8    -0.481653334280E+03   -0.11831E-03   -0.11830E-03   688   0.157E-03 0.115E-06
CGA:   9    -0.481653382389E+03   -0.48109E-04   -0.48137E-04   688   0.493E-04-0.822E-06
 209 F= -.48501829E+03 E0= -.48501703E+03  d E =-.533695E-02  mag=    -0.0000
       N       E                     dE             d eps       ncg     rms          ort
SDA:   1    -0.481570511684E+03    0.82823E-01    0.00000E+00   688   0.210E+00 0.000E+00
CGA:   2    -0.481634560820E+03   -0.64049E-01   -0.64050E-01   688   0.696E-01-0.221E-04
CGA:   3    -0.481650976647E+03   -0.16416E-01   -0.16417E-01   688   0.165E-01 0.122E-05
CGA:   4    -0.481654309445E+03   -0.33328E-02   -0.33327E-02   688   0.349E-02 0.465E-05
CGA:   5    -0.481655122514E+03   -0.81307E-03   -0.81297E-03   688   0.101E-02-0.268E-05
CGA:   6    -0.481655371439E+03   -0.24892E-03   -0.24887E-03   688   0.384E-03-0.243E-05
CGA:   7    -0.481655480738E+03   -0.10930E-03   -0.10929E-03   688   0.173E-03 0.340E-06
CGA:   8    -0.481655532640E+03   -0.51902E-04   -0.51899E-04   688   0.682E-04 0.595E-07
 210 F= -.48502056E+03 E0= -.48501933E+03  d E =-.227067E-02  mag=    -0.0000
       N       E                     dE             d eps       ncg     rms          ort
SDA:   1    -0.481462972598E+03    0.19251E+00    0.00000E+00   688   0.479E+00 0.000E+00
CGA:   2    -0.481608729322E+03   -0.14576E+00   -0.14576E+00   688   0.159E+00-0.398E-04
CGA:   3    -0.481646114665E+03   -0.37385E-01   -0.37389E-01   688   0.379E-01 0.240E-04
CGA:   4    -0.481653787431E+03   -0.76728E-02   -0.76717E-02   688   0.778E-02 0.558E-05
CGA:   5    -0.481655677456E+03   -0.18900E-02   -0.18899E-02   688   0.215E-02-0.376E-05
CGA:   6    -0.481656236894E+03   -0.55944E-03   -0.55941E-03   688   0.831E-03-0.353E-05
CGA:   7    -0.481656472624E+03   -0.23573E-03   -0.23572E-03   688   0.398E-03 0.813E-06
CGA:   8    -0.481656583242E+03   -0.11062E-03   -0.11062E-03   688   0.159E-03 0.598E-07
CGA:   9    -0.481656630941E+03   -0.47699E-04   -0.47721E-04   688   0.481E-04-0.694E-06
 211 F= -.48502184E+03 E0= -.48502065E+03  d E =-.355054E-02  mag=    -0.0000
       N       E                     dE             d eps       ncg     rms          ort
SDA:   1    -0.481596122005E+03    0.60461E-01    0.00000E+00   688   0.154E+00 0.000E+00
CGA:   2    -0.481643562638E+03   -0.47441E-01   -0.47443E-01   688   0.514E-01-0.347E-04
CGA:   3    -0.481655544449E+03   -0.11982E-01   -0.11982E-01   688   0.118E-01-0.101E-05
CGA:   4    -0.481658017030E+03   -0.24726E-02   -0.24728E-02   688   0.246E-02 0.629E-05
CGA:   5    -0.481658591483E+03   -0.57445E-03   -0.57440E-03   688   0.742E-03-0.162E-05
CGA:   6    -0.481658773232E+03   -0.18175E-03   -0.18170E-03   688   0.291E-03-0.202E-05
CGA:   7    -0.481658856096E+03   -0.82864E-04   -0.82859E-04   688   0.134E-03 0.253E-06
 212 F= -.48502422E+03 E0= -.48502299E+03  d E =-.238126E-02  mag=    -0.0000
       N       E                     dE             d eps       ncg     rms          ort
SDA:   1    -0.481271651733E+03    0.38712E+00    0.00000E+00   688   0.953E+00 0.000E+00
CGA:   2    -0.481565812335E+03   -0.29416E+00   -0.29419E+00   688   0.319E+00-0.460E-03
CGA:   3    -0.481640056314E+03   -0.74244E-01   -0.74257E-01   688   0.743E-01 0.109E-03
CGA:   4    -0.481655378069E+03   -0.15322E-01   -0.15319E-01   688   0.158E-01 0.417E-05
CGA:   5    -0.481659092425E+03   -0.37144E-02   -0.37143E-02   688   0.467E-02-0.186E-05
CGA:   6    -0.481660258791E+03   -0.11664E-02   -0.11663E-02   688   0.182E-02-0.562E-05
CGA:   7    -0.481660780407E+03   -0.52162E-03   -0.52159E-03   688   0.855E-03 0.114E-05
CGA:   8    -0.481661027602E+03   -0.24719E-03   -0.24718E-03   688   0.338E-03 0.655E-06
CGA:   9    -0.481661128927E+03   -0.10132E-03   -0.10136E-03   688   0.102E-03-0.111E-05
CGA:  10    -0.481661160638E+03   -0.31711E-04   -0.31692E-04   688   0.307E-04 0.423E-06
 213 F= -.48502691E+03 E0= -.48502555E+03  d E =-.506967E-02  mag=    -0.0000
       N       E                     dE             d eps       ncg     rms          ort
SDA:   1    -0.481586315859E+03    0.74813E-01    0.00000E+00   688   0.188E+00 0.000E+00
CGA:   2    -0.481644767612E+03   -0.58452E-01   -0.58455E-01   688   0.630E-01-0.435E-04
CGA:   3    -0.481659462051E+03   -0.14694E-01   -0.14695E-01   688   0.147E-01 0.418E-06
CGA:   4    -0.481662473555E+03   -0.30115E-02   -0.30117E-02   688   0.310E-02 0.715E-05
CGA:   5    -0.481663194403E+03   -0.72085E-03   -0.72079E-03   688   0.934E-03-0.164E-05
CGA:   6    -0.481663420802E+03   -0.22640E-03   -0.22634E-03   688   0.376E-03-0.236E-05
CGA:   7    -0.481663525067E+03   -0.10427E-03   -0.10426E-03   688   0.172E-03 0.115E-06
CGA:   8    -0.481663576541E+03   -0.51473E-04   -0.51465E-04   688   0.658E-04 0.283E-06
 214 F= -.48502945E+03 E0= -.48502803E+03  d E =-.254131E-02  mag=    -0.0000
       N       E                     dE             d eps       ncg     rms          ort
SDA:   1    -0.481279055938E+03    0.38447E+00    0.00000E+00   688   0.940E+00 0.000E+00
CGA:   2    -0.481571442696E+03   -0.29239E+00   -0.29242E+00   688   0.316E+00-0.402E-03
CGA:   3    -0.481644882184E+03   -0.73439E-01   -0.73452E-01   688   0.732E-01 0.995E-04
CGA:   4    -0.481660085868E+03   -0.15204E-01   -0.15201E-01   688   0.149E-01 0.601E-05
CGA:   5    -0.481663714630E+03   -0.36288E-02   -0.36287E-02   688   0.434E-02-0.161E-05
CGA:   6    -0.481664842221E+03   -0.11276E-02   -0.11276E-02   688   0.173E-02-0.609E-05
CGA:   7    -0.481665343333E+03   -0.50111E-03   -0.50107E-03   688   0.816E-03 0.188E-05
CGA:   8    -0.481665575366E+03   -0.23203E-03   -0.23203E-03   688   0.327E-03 0.169E-06
CGA:   9    -0.481665670260E+03   -0.94894E-04   -0.94915E-04   688   0.992E-04-0.100E-05
 215 F= -.48503181E+03 E0= -.48503026E+03  d E =-.490894E-02  mag=    -0.0000
       N       E                     dE             d eps       ncg     rms          ort
SDA:   1    -0.481542740541E+03    0.12283E+00    0.00000E+00   688   0.305E+00 0.000E+00
CGA:   2    -0.481637123602E+03   -0.94383E-01   -0.94386E-01   688   0.102E+00-0.352E-04
CGA:   3    -0.481661154519E+03   -0.24031E-01   -0.24033E-01   688   0.242E-01 0.995E-05
CGA:   4    -0.481666028236E+03   -0.48737E-02   -0.48734E-02   688   0.504E-02 0.647E-05
CGA:   5    -0.481667219629E+03   -0.11914E-02   -0.11913E-02   688   0.150E-02-0.193E-05
CGA:   6    -0.481667596297E+03   -0.37667E-03   -0.37662E-03   688   0.574E-03-0.376E-05
CGA:   7    -0.481667765629E+03   -0.16933E-03   -0.16931E-03   688   0.254E-03 0.744E-06
CGA:   8    -0.481667842296E+03   -0.76668E-04   -0.76661E-04   688   0.100E-03 0.191E-06
 216 F= -.48503423E+03 E0= -.48503277E+03  d E =-.241907E-02  mag=    -0.0000
       N       E                     dE             d eps       ncg     rms          ort
SDA:   1    -0.481533670088E+03    0.13410E+00    0.00000E+00   688   0.328E+00 0.000E+00
CGA:   2    -0.481635268124E+03   -0.10160E+00   -0.10160E+00   688   0.110E+00-0.366E-04
CGA:   3    -0.481661141576E+03   -0.25873E-01   -0.25875E-01   688   0.264E-01 0.126E-04
CGA:   4    -0.481666444280E+03   -0.53027E-02   -0.53024E-02   688   0.536E-02 0.780E-05
CGA:   5    -0.481667749855E+03   -0.13056E-02   -0.13055E-02   688   0.161E-02-0.290E-05
CGA:   6    -0.481668145270E+03   -0.39542E-03   -0.39535E-03   688   0.677E-03-0.317E-05
CGA:   7    -0.481668326022E+03   -0.18075E-03   -0.18075E-03   688   0.306E-03 0.242E-06
CGA:   8    -0.481668415932E+03   -0.89910E-04   -0.89894E-04   688   0.113E-03 0.518E-06
 217 F= -.48503506E+03 E0= -.48503369E+03  d E =-.324727E-02  mag=    -0.0000
       N       E                     dE             d eps       ncg     rms          ort
SDA:   1    -0.481573460641E+03    0.94865E-01    0.00000E+00   688   0.235E+00 0.000E+00
CGA:   2    -0.481645939749E+03   -0.72479E-01   -0.72486E-01   688   0.812E-01-0.949E-04
CGA:   3    -0.481664692592E+03   -0.18753E-01   -0.18755E-01   688   0.188E-01 0.782E-05
CGA:   4    -0.481668646998E+03   -0.39544E-02   -0.39546E-02   688   0.380E-02 0.104E-04
CGA:   5    -0.481669573572E+03   -0.92657E-03   -0.92654E-03   688   0.115E-02-0.143E-05
CGA:   6    -0.481669870511E+03   -0.29694E-03   -0.29693E-03   688   0.466E-03-0.237E-05
CGA:   7    -0.481670002987E+03   -0.13248E-03   -0.13246E-03   688   0.224E-03 0.581E-06
CGA:   8    -0.481670066944E+03   -0.63957E-04   -0.63955E-04   688   0.858E-04 0.139E-06
 218 F= -.48503707E+03 E0= -.48503578E+03  d E =-.200363E-02  mag=    -0.0000
