 vasp.5.4.4.18Apr17-6-g9f103f2a35 (build Jan 14 2022 15:04:31) complex          
  
 executed on             LinuxIFC date 2023.04.05  11:31:22
 running on   48 total cores
 distrk:  each k-point on   48 cores,    1 groups
 distr:  one band on NCORES_PER_BAND=  12 cores,    4 groups


--------------------------------------------------------------------------------------------------------


 INCAR:
 POTCAR:    PAW_PBE C 08Apr2002                   
 POTCAR:    PAW_PBE N 08Apr2002                   
 POTCAR:    PAW_PBE Ge_d 03Jul2007                
 POTCAR:    PAW_PBE C 08Apr2002                   
   SHA256 =  253f7b50bb8d59471dbedb8285d89021f4a42ed1a2c5d38a03a736e69125dd95 C/
   COPYR  = (c) Copyright 08Apr2002 Georg Kresse                                
   COPYR  = This file is part of the software VASP. Any use, copying, and all ot
   COPYR  = If you do not have a valid VASP license, you may not use, copy or di
   VRHFIN =C: s2p2                                                              
   LEXCH  = PE                                                                  
   EATOM  =   147.1560 eV,   10.8157 Ry                                         
                                                                                
   TITEL  = PAW_PBE C 08Apr2002                                                 
   LULTRA =        F    use ultrasoft PP ?                                      
   IUNSCR =        1    unscreen: 0-lin 1-nonlin 2-no                           
   RPACOR =    1.200    partial core radius                                     
   POMASS =   12.011; ZVAL   =    4.000    mass and valenz                      
   RCORE  =    1.500    outmost cutoff radius                                   
   RWIGS  =    1.630; RWIGS  =    0.863    wigner-seitz radius (au A)           
   ENMAX  =  400.000; ENMIN  =  300.000 eV                                      
   ICORE  =        2    local potential                                         
   LCOR   =        T    correct aug charges                                     
   LPAW   =        T    paw PP                                                  
   EAUG   =  644.873                                                            
   DEXC   =    0.000                                                            
   RMAX   =    1.529    core radius for proj-oper                               
   RAUG   =    1.300    factor for augmentation sphere                          
   RDEP   =    1.501    radius for radial grids                                 
   RDEPT  =    1.300    core radius for aug-charge                              
                                                                                
   Atomic configuration                                                         
    4 entries                                                                   
     n  l   j            E        occ.                                          
     1  0  0.50      -273.3789   2.0000                                         
     2  0  0.50       -13.7508   2.0000                                         
     2  1  0.50        -5.2854   2.0000                                         
     3  2  1.50        -5.4423   0.0000                                         
   Description                                                                  
     l       E           TYP  RCUT    TYP  RCUT                                 
     0    -13.7508458     23  1.200                                             
     0     -8.2022199     23  1.200                                             
     1     -5.2854383     23  1.500                                             
     1     34.0145650     23  1.500                                             
     2     -5.4423304      7  1.500                                             
  local pseudopotential read in
  partial core-charges read in
  partial kinetic energy density read in
  atomic valenz-charges read in
  non local Contribution for L=           0  read in
    real space projection operators read in
  non local Contribution for L=           0  read in
    real space projection operators read in
  non local Contribution for L=           1  read in
    real space projection operators read in
  non local Contribution for L=           1  read in
    real space projection operators read in
    PAW grid and wavefunctions read in
 
   number of l-projection  operators is LMAX  =           4
   number of lm-projection operators is LMMAX =           8
 
 POTCAR:    PAW_PBE N 08Apr2002                   
   SHA256 =  e053789ff3a61a86a1b75d8a110fcc91f86041011e7b0817c7c99e4e8a6349d7 N/
   COPYR  = (c) Copyright 08Apr2002 Georg Kresse                                
   COPYR  = This file is part of the software VASP. Any use, copying, and all ot
   COPYR  = If you do not have a valid VASP license, you may not use, copy or di
   VRHFIN =N: s2p3                                                              
   LEXCH  = PE                                                                  
   EATOM  =   264.5486 eV,   19.4438 Ry                                         
                                                                                
   TITEL  = PAW_PBE N 08Apr2002                                                 
   LULTRA =        F    use ultrasoft PP ?                                      
   IUNSCR =        1    unscreen: 0-lin 1-nonlin 2-no                           
   RPACOR =    1.200    partial core radius                                     
   POMASS =   14.001; ZVAL   =    5.000    mass and valenz                      
   RCORE  =    1.500    outmost cutoff radius                                   
   RWIGS  =    1.400; RWIGS  =    0.741    wigner-seitz radius (au A)           
   ENMAX  =  400.000; ENMIN  =  300.000 eV                                      
   ICORE  =        2    local potential                                         
   LCOR   =        T    correct aug charges                                     
   LPAW   =        T    paw PP                                                  
   EAUG   =  627.112                                                            
   DEXC   =    0.000                                                            
   RMAX   =    1.529    core radius for proj-oper                               
   RAUG   =    1.300    factor for augmentation sphere                          
   RDEP   =    1.514    radius for radial grids                                 
   RDEPT  =    1.338    core radius for aug-charge                              
                                                                                
   Atomic configuration                                                         
    4 entries                                                                   
     n  l   j            E        occ.                                          
     1  0  0.50      -384.7179   2.0000                                         
     2  0  0.50       -18.5828   2.0000                                         
     2  1  0.50        -7.0898   3.0000                                         
     3  2  1.50        -6.8029   0.0000                                         
   Description                                                                  
     l       E           TYP  RCUT    TYP  RCUT                                 
     0    -18.5828119     23  1.200                                             
     0    -13.5018863     23  1.200                                             
     1     -7.0897853     23  1.500                                             
     1      9.5240782     23  1.500                                             
     2     -6.8029130      7  1.500                                             
  local pseudopotential read in
  partial core-charges read in
  partial kinetic energy density read in
  atomic valenz-charges read in
  non local Contribution for L=           0  read in
    real space projection operators read in
  non local Contribution for L=           0  read in
    real space projection operators read in
  non local Contribution for L=           1  read in
    real space projection operators read in
  non local Contribution for L=           1  read in
    real space projection operators read in
    PAW grid and wavefunctions read in
 
   number of l-projection  operators is LMAX  =           4
   number of lm-projection operators is LMMAX =           8
 
 POTCAR:    PAW_PBE Ge_d 03Jul2007                
   SHA256 =  944b26c40d2d7c4f4eb1ff3a2e8dbfdd7129146276cd341854bfd5c0e57780ed Ge
   COPYR  = (c) Copyright 03Jul2007 Georg Kresse                                
   COPYR  = This file is part of the software VASP. Any use, copying, and all ot
   COPYR  = If you do not have a valid VASP license, you may not use, copy or di
   VRHFIN =Ge: 3d4s4p                                                           
   LEXCH  = PE                                                                  
   EATOM  =  2596.2402 eV,  190.8183 Ry                                         
                                                                                
   TITEL  = PAW_PBE Ge_d 03Jul2007                                              
   LULTRA =        F    use ultrasoft PP ?                                      
   IUNSCR =        1    unscreen: 0-lin 1-nonlin 2-no                           
   RPACOR =    2.000    partial core radius                                     
   POMASS =   72.610; ZVAL   =   14.000    mass and valenz                      
   RCORE  =    2.300    outmost cutoff radius                                   
   RWIGS  =    2.300; RWIGS  =    1.217    wigner-seitz radius (au A)           
   ENMAX  =  310.294; ENMIN  =  232.720 eV                                      
   ICORE  =        3    local potential                                         
   LCOR   =        T    correct aug charges                                     
   LPAW   =        T    paw PP                                                  
   EAUG   =  531.356                                                            
   DEXC   =    0.000                                                            
   RMAX   =    2.342    core radius for proj-oper                               
   RAUG   =    1.300    factor for augmentation sphere                          
   RDEP   =    2.318    radius for radial grids                                 
   RDEPT  =    1.783    core radius for aug-charge                              
                                                                                
   Atomic configuration                                                         
    9 entries                                                                   
     n  l   j            E        occ.                                          
     1  0  0.50    -10959.8463   2.0000                                         
     2  0  0.50     -1371.6056   2.0000                                         
     2  1  1.50     -1198.4791   6.0000                                         
     3  0  0.50      -168.4733   2.0000                                         
     3  1  1.50      -115.6019   6.0000                                         
     3  2  2.50       -29.3106  10.0000                                         
     4  0  0.50       -11.7309   2.0000                                         
     4  1  0.50        -3.8952   2.0000                                         
     4  3  2.50        -4.0817   0.0000                                         
   Description                                                                  
     l       E           TYP  RCUT    TYP  RCUT                                 
     2    -29.3105938     23  2.200                                             
     2    -13.6058260     23  2.200                                             
     0    -11.7309493     23  2.300                                             
     0     -7.4578696     23  2.300                                             
     1     -3.8952261     23  2.300                                             
     1      6.1178114     23  2.300                                             
     3     -1.3605826     23  2.300                                             
  local pseudopotential read in
  partial core-charges read in
  partial kinetic energy density read in
  atomic valenz-charges read in
  non local Contribution for L=           2  read in
    real space projection operators read in
  non local Contribution for L=           2  read in
    real space projection operators read in
  non local Contribution for L=           0  read in
    real space projection operators read in
  non local Contribution for L=           0  read in
    real space projection operators read in
  non local Contribution for L=           1  read in
    real space projection operators read in
  non local Contribution for L=           1  read in
    real space projection operators read in
    PAW grid and wavefunctions read in
 
   number of l-projection  operators is LMAX  =           6
   number of lm-projection operators is LMMAX =          18
 

 ----------------------------------------------------------------------------- 
|                                                                             |
|  ADVICE TO THIS USER RUNNING 'VASP/VAMP'   (HEAR YOUR MASTER'S VOICE ...):  |
|                                                                             |
|      You have a (more or less) 'large supercell' and for larger cells       |
|      it might be more efficient to use real space projection opertators     |
|      So try LREAL= Auto  in the INCAR   file.                               |
|      Mind:          For very  accurate calculation you might also keep the  |
|      reciprocal projection scheme          (i.e. LREAL=.FALSE.)             |
|                                                                             |
 ----------------------------------------------------------------------------- 

  PAW_PBE C 08Apr2002                   :
 energy of atom  1       EATOM= -147.1560
 kinetic energy error for atom=    0.0132 (will be added to EATOM!!)
  PAW_PBE N 08Apr2002                   :
 energy of atom  2       EATOM= -264.5486
 kinetic energy error for atom=    0.0298 (will be added to EATOM!!)
  PAW_PBE Ge_d 03Jul2007                :
 energy of atom  3       EATOM=-2596.2402
 kinetic energy error for atom=    0.0090 (will be added to EATOM!!)
 
 
 POSCAR: POSCAR-c3n4                             
  positions in cartesian coordinates
  No initial velocities read in
 exchange correlation table for  LEXCH =        8
   RHO(1)=    0.500       N(1)  =     2000
   RHO(2)=  100.500       N(2)  =     4000

 VTST: version 3.2, (02/03/18)

 CHAIN: initializing optimizer
 
 OPT: Using VASP Dynamics algorithm
 CHAIN: Read ICHAIN            0
 
 POSCAR: POSCAR-c3n4                             
  positions in cartesian coordinates
  No initial velocities read in
 


--------------------------------------------------------------------------------------------------------


 ion  position               nearest neighbor table
   1  0.106  0.214  0.426-  26 1.55  46 1.56  25 1.64
   2  0.288  0.399  0.433-  29 1.53  35 1.61  25 1.66
   3  0.104  0.392  0.427-  44 1.53  39 1.60  25 1.66
   4  0.447  0.064  0.506-  30 1.53  27 1.55  48 1.63
   5  0.453  0.401  0.413-  28 1.54  29 1.55  56 1.65
   6  0.112  0.053  0.449-  26 1.53  31 1.55  32 1.62
   7  0.096  0.712  0.484-  54 1.54  34 1.57  33 1.63
   8  0.284  0.890  0.501-  27 1.55  37 1.57  33 1.64
   9  0.109  0.895  0.498-  31 1.54  52 1.56  33 1.66
  10  0.448  0.548  0.502-  38 1.54  56 1.57  35 1.58
  11  0.445  0.885  0.489-  37 1.55  36 1.55  48 1.61
  12  0.087  0.542  0.481-  34 1.53  40 1.56  39 1.57
  13  0.616  0.223  0.473-  42 1.57  30 1.57  41 1.63
  14  0.780  0.390  0.400-  45 1.56  51 1.58  41 1.63
  15  0.610  0.394  0.435-  28 1.55  55 1.56  41 1.68
  16  0.940  0.052  0.461-  46 1.53  43 1.55  32 1.62
  17  0.941  0.387  0.394-  45 1.53  44 1.56  40 1.65
  18  0.623  0.066  0.512-  42 1.54  47 1.55  48 1.63
  19  0.613  0.711  0.531-  50 1.54  38 1.58  49 1.63
  20  0.790  0.897  0.523-  43 1.54  53 1.56  49 1.68
  21  0.609  0.892  0.521-  47 1.55  36 1.56  49 1.67
  22  0.938  0.563  0.421-  51 1.52  54 1.56  40 1.65
  23  0.954  0.902  0.535-  52 1.55  53 1.56  32 1.62
  24  0.621  0.555  0.490-  55 1.53  50 1.54  56 1.64
  25  0.167  0.335  0.425-   1 1.64   3 1.66   2 1.66
  26  0.165  0.161  0.421-   6 1.53   1 1.55
  27  0.336  0.002  0.522-   8 1.55   4 1.55
  28  0.512  0.352  0.392-   5 1.54  15 1.55
  29  0.345  0.361  0.390-   2 1.53   5 1.55
  30  0.506  0.177  0.493-   4 1.53  13 1.57
  31  0.159  0.988  0.447-   9 1.54   6 1.55
  32  0.002  0.002  0.483-  16 1.62  23 1.62   6 1.62
  33  0.165  0.831  0.500-   7 1.63   8 1.64   9 1.66
  34  0.134  0.645  0.518-  12 1.53   7 1.57
  35  0.334  0.491  0.492-  10 1.58   2 1.61
  36  0.503  0.831  0.490-  11 1.55  21 1.56
  37  0.333  0.829  0.479-  11 1.55   8 1.57
  38  0.499  0.648  0.545-  10 1.54  19 1.58
  39  0.142  0.484  0.485-  12 1.57   3 1.60
  40  0.988  0.496  0.436-  12 1.56  22 1.65  17 1.65
  41  0.667  0.330  0.429-  13 1.63  14 1.63  15 1.68
  42  0.680  0.178  0.495-  18 1.54  13 1.57
  43  0.827  0.986  0.468-  20 1.54  16 1.55
  44  0.011  0.348  0.379-   3 1.53  17 1.56
  45  0.830  0.330  0.380-  17 1.53  14 1.56
  46  0.993  0.161  0.435-  16 1.53   1 1.56
  47  0.669  0.005  0.539-  21 1.55  18 1.55
  48  0.505  0.004  0.498-  11 1.61  18 1.63   4 1.63
  49  0.668  0.832  0.534-  19 1.63  21 1.67  20 1.68
  50  0.675  0.666  0.512-  19 1.54  24 1.54
  51  0.832  0.507  0.396-  22 1.52  14 1.58
  52  0.016  0.853  0.549-  23 1.55   9 1.56
  53  0.849  0.860  0.566-  20 1.56  23 1.56
  54  0.004  0.677  0.435-   7 1.54  22 1.56
  55  0.668  0.491  0.484-  24 1.53  15 1.56
  56  0.506  0.502  0.467-  10 1.57  24 1.64   5 1.65
  57  0.287  0.593  0.558-
 

IMPORTANT INFORMATION: All symmetrisations will be switched off!
NOSYMM: (Re-)initialisation of all symmetry stuff for point group C_1.

 
 
 KPOINTS: K-Points                                

Automatic generation of k-mesh.
Space group operators:
 irot       det(A)        alpha          n_x          n_y          n_z        tau_x        tau_y        tau_z
    1     1.000000     0.000000     1.000000     0.000000     0.000000     0.000000     0.000000     0.000000
 
 Subroutine IBZKPT returns following result:
 ===========================================
 
 Found      5 irreducible k-points:
 
 Following reciprocal coordinates:
            Coordinates               Weight
  0.000000  0.000000  0.000000      1.000000
  0.333333 -0.000000  0.000000      2.000000
 -0.000000  0.333333  0.000000      2.000000
  0.333333  0.333333  0.000000      2.000000
 -0.333333  0.333333  0.000000      2.000000
 
 Following cartesian coordinates:
            Coordinates               Weight
  0.000000  0.000000  0.000000      1.000000
  0.024277  0.014368  0.000000      2.000000
  0.000396  0.028736  0.000000      2.000000
  0.024673  0.043104  0.000000      2.000000
 -0.023881  0.014368  0.000000      2.000000
 
 TETIRR: Found     24 inequivalent tetrahedra from       54


--------------------------------------------------------------------------------------------------------




 Dimension of arrays:
   k-points           NKPTS =      5   k-points in BZ     NKDIM =      5   number of bands    NBANDS=    168
   number of dos      NEDOS =   4000   number of ions     NIONS =     57
   non local maximal  LDIM  =      6   non local SUM 2l+1 LMDIM =     18
   total plane-waves  NPLWV = 635040
   max r-space proj   IRMAX =      1   max aug-charges    IRDMAX=   5879
   dimension x,y,z NGX =    84 NGY =   84 NGZ =   90
   dimension x,y,z NGXF=   168 NGYF=  168 NGZF=  180
   support grid    NGXF=   168 NGYF=  168 NGZF=  180
   ions per type =              24  32   1
   NGX,Y,Z   is equivalent  to a cutoff of   8.70,  8.86,  8.60 a.u.
   NGXF,Y,Z  is equivalent  to a cutoff of  17.39, 17.72, 17.20 a.u.

 SYSTEM =  unknown system                          
 POSCAR =  POSCAR-c3n4                             

 Startparameter for this run:
   NWRITE =      2    write-flag & timer
   PREC   = normal    normal or accurate (medium, high low for compatibility)
   ISTART =      0    job   : 0-new  1-cont  2-samecut
   ICHARG =      2    charge: 1-file 2-atom 10-const
   ISPIN  =      2    spin polarized calculation?
   LNONCOLLINEAR =      F non collinear calculations
   LSORBIT =      F    spin-orbit coupling
   INIWAV =      1    electr: 0-lowe 1-rand  2-diag
   LASPH  =      F    aspherical Exc in radial PAW
   METAGGA=      F    non-selfconsistent MetaGGA calc.

 Electronic Relaxation 1
   ENCUT  =  440.0 eV  32.34 Ry    5.69 a.u.  27.47 26.96 29.76*2*pi/ulx,y,z
   ENINI  =  440.0     initial cutoff
   ENAUG  =  644.9 eV  augmentation charge cutoff
   NELM   =    100;   NELMIN=  2; NELMDL= -5     # of ELM steps 
   EDIFF  = 0.1E-03   stopping-criterion for ELM
   LREAL  =      F    real-space projection
   NLSPLINE    = F    spline interpolate recip. space projectors
   LCOMPAT=      F    compatible to vasp.4.4
   GGA_COMPAT  = T    GGA compatible to vasp.4.4-vasp.4.6
   LMAXPAW     = -100 max onsite density
   LMAXMIX     =    2 max onsite mixed and CHGCAR
   VOSKOWN=      0    Vosko Wilk Nusair interpolation
   ROPT   =    0.00000   0.00000   0.00000
 Ionic relaxation
   EDIFFG = -.1E-01   stopping-criterion for IOM
   NSW    =      0    number of steps for IOM
   NBLOCK =      1;   KBLOCK =      1    inner block; outer block 
   IBRION =     -1    ionic relax: 0-MD 1-quasi-New 2-CG
   NFREE  =      0    steps in history (QN), initial steepest desc. (CG)
   ISIF   =      2    stress and relaxation
   IWAVPR =     10    prediction:  0-non 1-charg 2-wave 3-comb
   ISYM   =      0    0-nonsym 1-usesym 2-fastsym
   LCORR  =      T    Harris-Foulkes like correction to forces

   POTIM  = 0.5000    time-step for ionic-motion
   TEIN   =    0.0    initial temperature
   TEBEG  =    0.0;   TEEND  =   0.0 temperature during run
   SMASS  =  -3.00    Nose mass-parameter (am)
   estimated Nose-frequenzy (Omega)   =  0.10E-29 period in steps =****** mass=  -0.589E-26a.u.
   SCALEE = 1.0000    scale energy and forces
   NPACO  =    256;   APACO  = 16.0  distance and # of slots for P.C.
   PSTRESS=    0.0 pullay stress

  Mass of Ions in am
   POMASS =  12.01 14.00 72.61
  Ionic Valenz
   ZVAL   =   4.00  5.00 14.00
  Atomic Wigner-Seitz radii
   RWIGS  =  -1.00 -1.00 -1.00
  virtual crystal weights 
   VCA    =   1.00  1.00  1.00
   NELECT =     270.0000    total number of electrons
   NUPDOWN=      -1.0000    fix difference up-down

 DOS related values:
   EMIN   = -14.00;   EMAX   =  6.00  energy-range for DOS
   EFERMI =   0.00
   ISMEAR =    -5;   SIGMA  =   0.20  broadening in eV -4-tet -1-fermi 0-gaus

 Electronic relaxation 2 (details)
   IALGO  =     38    algorithm
   LDIAG  =      T    sub-space diagonalisation (order eigenvalues)
   LSUBROT=      F    optimize rotation matrix (better conditioning)
   TURBO    =      0    0=normal 1=particle mesh
   IRESTART =      0    0=no restart 2=restart with 2 vectors
   NREBOOT  =      0    no. of reboots
   NMIN     =      0    reboot dimension
   EREF     =   0.00    reference energy to select bands
   IMIX   =      4    mixing-type and parameters
     AMIX     =   0.25;   BMIX     =  0.00
     AMIX_MAG =   1.00;   BMIX_MAG =  0.00
     AMIN     =   0.10
     WC   =   100.;   INIMIX=   1;  MIXPRE=   1;  MAXMIX= -45

 Intra band minimization:
   WEIMIN = 0.0000     energy-eigenvalue tresh-hold
   EBREAK =  0.15E-06  absolut break condition
   DEPER  =   0.30     relativ break condition  

   TIME   =   0.40     timestep for ELM

  volume/ion in A,a.u.               =      65.96       445.12
  Fermi-wavevector in a.u.,A,eV,Ry     =   0.680471  1.285903  6.300046  0.463040
  Thomas-Fermi vector in A             =   1.758971
 
 Write flags
   LWAVE        =      F    write WAVECAR
   LDOWNSAMPLE  =      F    k-point downsampling of WAVECAR
   LCHARG       =      F    write CHGCAR
   LVTOT        =      F    write LOCPOT, total local potential
   LVHAR        =      F    write LOCPOT, Hartree potential only
   LELF         =      F    write electronic localiz. function (ELF)
   LORBIT       =     11    0 simple, 1 ext, 2 COOP (PROOUT), +10 PAW based schemes


 Dipole corrections
   LMONO  =      F    monopole corrections only (constant potential shift)
   LDIPOL =      F    correct potential (dipole corrections)
   IDIPOL =      0    1-x, 2-y, 3-z, 4-all directions 
   EPSILON=  1.0000000 bulk dielectric constant

 Exchange correlation treatment:
   GGA     =    --    GGA type
   LEXCH   =     8    internal setting for exchange type
   VOSKOWN=      0    Vosko Wilk Nusair interpolation
   LHFCALC =     F    Hartree Fock is set to
   LHFONE  =     F    Hartree Fock one center treatment
   AEXX    =    0.0000 exact exchange contribution

 Linear response parameters
   LEPSILON=     F    determine dielectric tensor
   LRPA    =     F    only Hartree local field effects (RPA)
   LNABLA  =     F    use nabla operator in PAW spheres
   LVEL    =     F    velocity operator in full k-point grid
   LINTERFAST=   F  fast interpolation
   KINTER  =     0    interpolate to denser k-point grid
   CSHIFT  =0.1000    complex shift for real part using Kramers Kronig
   OMEGAMAX=  -1.0    maximum frequency
   DEG_THRESHOLD= 0.2000000E-02 threshold for treating states as degnerate
   RTIME   =   -0.100 relaxation time in fs
  (WPLASMAI=    0.000 imaginary part of plasma frequency in eV, 0.658/RTIME)
   DFIELD  = 0.0000000 0.0000000 0.0000000 field for delta impulse in time
 
 Orbital magnetization related:
   ORBITALMAG=     F  switch on orbital magnetization
   LCHIMAG   =     F  perturbation theory with respect to B field
   DQ        =  0.001000  dq finite difference perturbation B field
   LLRAUG    =     F  two centre corrections for induced B field



--------------------------------------------------------------------------------------------------------


 Static calculation
 charge density and potential will be updated during run
 spin polarized calculation
 Variant of blocked Davidson
 Davidson routine will perform the subspace rotation
 perform sub-space diagonalisation
    after iterative eigenvector-optimisation
 modified Broyden-mixing scheme, WC =      100.0
 initial mixing is a Kerker type mixing with AMIX =  0.2500 and BMIX =      0.0001
 Hartree-type preconditioning will be used
 using additional bands           33
 reciprocal scheme for non local part
 use partial core corrections
 calculate Harris-corrections to forces 
   (improved forces if not selfconsistent)
 use gradient corrections 
 use of overlap-Matrix (Vanderbilt PP)
 Fermi weights with tetrahedron method with Bloechl corrections


--------------------------------------------------------------------------------------------------------


  energy-cutoff  :      440.00
  volume of cell :     3759.76
      direct lattice vectors                 reciprocal lattice vectors
    16.058372112 -0.221258950  0.000000000     0.062784801  0.037158719  0.000000000
    -8.029186056 13.566421553  0.000000000     0.001023977  0.074317438  0.000000000
     0.000000000  0.000000000 17.400000000     0.000000000  0.000000000  0.057471264

  length of vectors
    16.059896339 15.764378278 17.400000000     0.072956848  0.074324493  0.057471264


 
 k-points in units of 2pi/SCALE and weight: K-Points                                
   0.00000000  0.00000000  0.00000000       0.111
   0.02427679  0.01436804  0.00000000       0.222
   0.00039594  0.02873608  0.00000000       0.222
   0.02467273  0.04310411  0.00000000       0.222
  -0.02388085  0.01436804  0.00000000       0.222
 
 k-points in reciprocal lattice and weights: K-Points                                
   0.00000000  0.00000000  0.00000000       0.111
   0.33333333 -0.00000000  0.00000000       0.222
  -0.00000000  0.33333333  0.00000000       0.222
   0.33333333  0.33333333  0.00000000       0.222
  -0.33333333  0.33333333  0.00000000       0.222
 
 position of ions in fractional coordinates (direct lattice) 
   0.10567936  0.21351909  0.42646415
   0.28750403  0.39866334  0.43315811
   0.10379301  0.39177313  0.42728737
   0.44732828  0.06383887  0.50569377
   0.45258916  0.40124889  0.41252546
   0.11203481  0.05273921  0.44868132
   0.09638015  0.71191070  0.48390127
   0.28433946  0.89006364  0.50120122
   0.10941441  0.89537413  0.49812536
   0.44792521  0.54827090  0.50190381
   0.44544784  0.88520183  0.48897001
   0.08690842  0.54210436  0.48067119
   0.61614813  0.22292684  0.47270451
   0.78023735  0.38968276  0.39988272
   0.61037743  0.39432339  0.43546161
   0.93951642  0.05229783  0.46070020
   0.94071854  0.38652888  0.39388003
   0.62278394  0.06558106  0.51203168
   0.61322902  0.71118454  0.53124878
   0.78984871  0.89727295  0.52288011
   0.60944297  0.89248269  0.52132702
   0.93832005  0.56283419  0.42050954
   0.95436023  0.90171878  0.53466451
   0.62130548  0.55465507  0.48986027
   0.16668926  0.33545237  0.42502835
   0.16473950  0.16097029  0.42095206
   0.33626584  0.00180669  0.52215766
   0.51175722  0.35246859  0.39238613
   0.34471728  0.36074551  0.38975287
   0.50565751  0.17673507  0.49315170
   0.15873210  0.98821904  0.44665654
   0.00214731  0.00186372  0.48284181
   0.16462634  0.83083069  0.50025956
   0.13400723  0.64526801  0.51778798
   0.33371346  0.49116238  0.49155062
   0.50288345  0.83078126  0.48972341
   0.33307237  0.82932770  0.47937372
   0.49902190  0.64803204  0.54483375
   0.14173676  0.48364631  0.48511610
   0.98839512  0.49595573  0.43598798
   0.66736443  0.33015381  0.42931770
   0.67970142  0.17802103  0.49523771
   0.82720183  0.98622484  0.46784919
   0.01097216  0.34809993  0.37880244
   0.83047981  0.33016544  0.37952861
   0.99296173  0.16101876  0.43513088
   0.66886761  0.00524437  0.53948092
   0.50484899  0.00388347  0.49830916
   0.66830364  0.83227641  0.53419919
   0.67536455  0.66551462  0.51246466
   0.83211404  0.50666912  0.39574663
   0.01584380  0.85299492  0.54867721
   0.84924332  0.85956436  0.56604968
   0.00424175  0.67726383  0.43455477
   0.66753141  0.49127771  0.48382075
   0.50565566  0.50179634  0.46716125
   0.28676550  0.59288202  0.55779478
 
 position of ions in cartesian coordinates  (Angst):
  -0.01734595  2.87330742  7.42047624
   1.41590452  5.34482207  7.53695117
  -1.47887266  5.29199432  7.43480025
   6.67078983  0.76708959  8.79907152
   4.04614305  5.34337223  7.17794301
   1.37564375  0.69069370  7.80705499
  -4.16835518  9.63675571  8.41988213
  -2.58045775 12.01206588  8.72090127
  -5.43210826 12.12281400  8.66738123
   2.79078069  7.33896671  8.73312626
   0.04571702 11.91046189  8.50807809
  -2.95704911  7.33518707  8.36367865
   8.10441487  2.88799121  8.22505842
   9.40050626  5.11396614  6.95795931
   6.63557196  5.21450591  7.57703206
  14.66719534  0.50161795  8.01618351
  12.00289611  5.03567137  6.85351256
   9.47433372  0.75190372  8.90935118
   4.13722686  9.51254690  9.24372873
   5.47931300 11.99802203  9.09811383
   2.62075239 11.97295163  9.07109019
  10.54879207  7.42803422  7.31686600
   8.08540377 12.02193638  9.30316254
   5.52372588  7.38721514  8.52356864
  -0.01665132  4.51400680  7.39549326
   1.35298785  2.14734067  7.32456582
   5.38537568 -0.04989154  9.08554323
   5.38795205  4.66850657  6.82751874
   2.63910550  4.81775390  6.78170000
   6.70099763  2.28578128  8.58083954
  -5.38561550 13.37147520  7.77182385
   0.01951817  0.02480889  8.40144755
  -4.02726306 11.23497429  8.70451639
  -3.02903894  8.72432751  9.00951080
   1.41526086  6.58947876  8.55298078
   1.40499230 11.15946126  8.52118742
  -1.31022637 11.17731392  8.34110278
   2.81030955  8.68106278  9.48010728
  -1.60722458  6.52998914  8.44102017
  11.88989583  6.50965328  7.58619080
   8.06591999  4.33134545  7.47012801
   9.48553441  2.26471830  8.61713614
   5.36493213 13.19651610  8.14057587
  -2.61876408  4.72004264  6.59116246
  10.68519404  4.29541245  6.60379783
  14.65249931  1.96474670  7.57127723
  10.69881706 -0.07684566  9.38696794
   8.07587187 -0.05901757  8.67057938
   4.04936647 11.14314443  9.29506597
   5.50171450  8.87922145  8.91688506
   9.29425619  6.68957422  6.88599136
  -6.59442934 11.56858311  9.54698350
   6.73586306 11.47330984  9.84926442
  -5.36976176  9.18710813  7.56125301
   6.77490756  6.51718323  8.41848100
   4.09099054  6.69569989  8.12860570
  -0.15537297  7.97983804  9.70562923
 


--------------------------------------------------------------------------------------------------------


 k-point  1 :   0.0000 0.0000 0.0000  plane waves:   78775
 k-point  2 :   0.3333-0.0000 0.0000  plane waves:   78780
 k-point  3 :  -0.0000 0.3333 0.0000  plane waves:   78881
 k-point  4 :   0.3333 0.3333 0.0000  plane waves:   78786
 k-point  5 :  -0.3333 0.3333 0.0000  plane waves:   78788

 maximum and minimum number of plane-waves per node :      6593     6539

 maximum number of plane-waves:     78881
 maximum index in each direction: 
   IXMAX=   27   IYMAX=   26   IZMAX=   29
   IXMIN=  -27   IYMIN=  -27   IZMIN=  -29


 parallel 3D FFT for wavefunctions:
    minimum data exchange during FFTs selected (reduces bandwidth)
 parallel 3D FFT for charge:
    minimum data exchange during FFTs selected (reduces bandwidth)


 total amount of memory used by VASP MPI-rank0   115370. kBytes
=======================================================================

   base      :      30000. kBytes
   nonl-proj :      20164. kBytes
   fftplans  :       5599. kBytes
   grid      :      14993. kBytes
   one-center:        155. kBytes
   wavefun   :      44459. kBytes
 
     INWAV:  cpu time    0.0000: real time    0.0001
 Broyden mixing: mesh for mixing (old mesh)
   NGX = 55   NGY = 53   NGZ = 59
  (NGX  =168   NGY  =168   NGZ  =180)
  gives a total of 171985 points

 initial charge density was supplied:
 charge density of overlapping atoms calculated
 number of electron     270.0000000 magnetization       1.0000000
 keeping initial charge density in first step


--------------------------------------------------------------------------------------------------------


 Maximum index for augmentation-charges          338 (set IRDMAX)


--------------------------------------------------------------------------------------------------------


 First call to EWALD:  gamma=   0.114
 Maximum number of real-space cells 3x 3x 3
 Maximum number of reciprocal cells 3x 3x 3

    FEWALD:  cpu time    0.0049: real time    0.0051


--------------------------------------- Iteration      1(   1)  ---------------------------------------


    POTLOK:  cpu time    0.2099: real time    0.2332
    SETDIJ:  cpu time    0.0099: real time    0.0120
     EDDAV:  cpu time   11.3656: real time   11.4892
 BZINTS: Fermi energy:  6.987003;270.000000 electrons
         Band energy:***********;  BLOECHL correction: -0.014041
       DOS:  cpu time    0.0538: real time    0.0539
    --------------------------------------------
      LOOP:  cpu time   11.6391: real time   11.7883

 eigenvalue-minimisations  :  3880
 total energy-change (2. order) : 0.2325232E+04  (-0.8766468E+04)
 number of electron     270.0000000 magnetization       1.0000000
 augmentation part      270.0000000 magnetization       1.0000000

 Free energy of the ion-electron system (eV)
  ---------------------------------------------------
  alpha Z        PSCENC =        92.42997205
  Ewald energy   TEWEN  =     23606.32290841
  -Hartree energ DENC   =    -35382.82173462
  -exchange      EXHF   =         0.00000000
  -V(xc)+E(xc)   XCENC  =       977.78849799
  PAW double counting   =     10998.91041168   -11485.61342155
  entropy T*S    EENTRO =         0.00000000
  eigenvalues    EBANDS =     -1074.04459991
  atomic energy  EATOM  =     14592.26033195
  Solvation  Ediel_sol  =         0.00000000
  ---------------------------------------------------
  free energy    TOTEN  =      2325.23236600 eV

  energy without entropy =     2325.23236600  energy(sigma->0) =     2325.23236600


--------------------------------------------------------------------------------------------------------




--------------------------------------- Iteration      1(   2)  ---------------------------------------


     EDDAV:  cpu time   14.7035: real time   14.9395
 BZINTS: Fermi energy: -0.601631;270.000000 electrons
         Band energy:***********;  BLOECHL correction:  0.000000
       DOS:  cpu time    0.0056: real time    0.0057
    --------------------------------------------
      LOOP:  cpu time   14.7092: real time   14.9452

 eigenvalue-minimisations  :  4912
 total energy-change (2. order) :-0.2141718E+04  (-0.2040609E+04)
 number of electron     270.0000000 magnetization       1.0000000
 augmentation part      270.0000000 magnetization       1.0000000

 Free energy of the ion-electron system (eV)
  ---------------------------------------------------
  alpha Z        PSCENC =        92.42997205
  Ewald energy   TEWEN  =     23606.32290841
  -Hartree energ DENC   =    -35382.82173462
  -exchange      EXHF   =         0.00000000
  -V(xc)+E(xc)   XCENC  =       977.78849799
  PAW double counting   =     10998.91041168   -11485.61342155
  entropy T*S    EENTRO =         0.00000000
  eigenvalues    EBANDS =     -3215.76220255
  atomic energy  EATOM  =     14592.26033195
  Solvation  Ediel_sol  =         0.00000000
  ---------------------------------------------------
  free energy    TOTEN  =       183.51476336 eV

  energy without entropy =      183.51476336  energy(sigma->0) =      183.51476336


--------------------------------------------------------------------------------------------------------




--------------------------------------- Iteration      1(   3)  ---------------------------------------


     EDDAV:  cpu time   12.9493: real time   13.0786
 BZINTS: Fermi energy: -3.776194;270.000000 electrons
         Band energy:***********;  BLOECHL correction:  0.000000
       DOS:  cpu time    0.0042: real time    0.0042
    --------------------------------------------
      LOOP:  cpu time   12.9534: real time   13.0827

 eigenvalue-minimisations  :  4256
 total energy-change (2. order) :-0.5886239E+03  (-0.5829094E+03)
 number of electron     270.0000000 magnetization       1.0000000
 augmentation part      270.0000000 magnetization       1.0000000

 Free energy of the ion-electron system (eV)
  ---------------------------------------------------
  alpha Z        PSCENC =        92.42997205
  Ewald energy   TEWEN  =     23606.32290841
  -Hartree energ DENC   =    -35382.82173462
  -exchange      EXHF   =         0.00000000
  -V(xc)+E(xc)   XCENC  =       977.78849799
  PAW double counting   =     10998.91041168   -11485.61342155
  entropy T*S    EENTRO =         0.00000000
  eigenvalues    EBANDS =     -3804.38613189
  atomic energy  EATOM  =     14592.26033195
  Solvation  Ediel_sol  =         0.00000000
  ---------------------------------------------------
  free energy    TOTEN  =      -405.10916598 eV

  energy without entropy =     -405.10916598  energy(sigma->0) =     -405.10916598


--------------------------------------------------------------------------------------------------------




--------------------------------------- Iteration      1(   4)  ---------------------------------------


     EDDAV:  cpu time   12.6140: real time   12.7537
 BZINTS: Fermi energy: -4.196299;270.000000 electrons
         Band energy:***********;  BLOECHL correction:  0.000000
       DOS:  cpu time    0.0044: real time    0.0044
    --------------------------------------------
      LOOP:  cpu time   12.6184: real time   12.7581

 eigenvalue-minimisations  :  4080
 total energy-change (2. order) :-0.3169815E+02  (-0.3067563E+02)
 number of electron     270.0000000 magnetization       1.0000000
 augmentation part      270.0000000 magnetization       1.0000000

 Free energy of the ion-electron system (eV)
  ---------------------------------------------------
  alpha Z        PSCENC =        92.42997205
  Ewald energy   TEWEN  =     23606.32290841
  -Hartree energ DENC   =    -35382.82173462
  -exchange      EXHF   =         0.00000000
  -V(xc)+E(xc)   XCENC  =       977.78849799
  PAW double counting   =     10998.91041168   -11485.61342155
  entropy T*S    EENTRO =         0.00000000
  eigenvalues    EBANDS =     -3836.08427702
  atomic energy  EATOM  =     14592.26033195
  Solvation  Ediel_sol  =         0.00000000
  ---------------------------------------------------
  free energy    TOTEN  =      -436.80731112 eV

  energy without entropy =     -436.80731112  energy(sigma->0) =     -436.80731112


--------------------------------------------------------------------------------------------------------




--------------------------------------- Iteration      1(   5)  ---------------------------------------


     EDDAV:  cpu time   14.7269: real time   14.8753
 BZINTS: Fermi energy: -4.236309;270.000000 electrons
         Band energy:***********;  BLOECHL correction:  0.000000
       DOS:  cpu time    0.0042: real time    0.0042
    CHARGE:  cpu time    0.2246: real time    0.2311
    MIXING:  cpu time    0.0058: real time    0.0059
    --------------------------------------------
      LOOP:  cpu time   14.9616: real time   15.1165

 eigenvalue-minimisations  :  4960
 total energy-change (2. order) :-0.1771658E+01  (-0.1748919E+01)
 number of electron     270.0000019 magnetization       0.0000001
 augmentation part       16.5396381 magnetization       0.0046401

 Broyden mixing:
  rms(total) = 0.31640E+01    rms(broyden)= 0.31598E+01
  rms(prec ) = 0.35103E+01
  weight for this iteration     100.00

 Free energy of the ion-electron system (eV)
  ---------------------------------------------------
  alpha Z        PSCENC =        92.42997205
  Ewald energy   TEWEN  =     23606.32290841
  -Hartree energ DENC   =    -35382.82173462
  -exchange      EXHF   =         0.00000000
  -V(xc)+E(xc)   XCENC  =       977.78849799
  PAW double counting   =     10998.91041168   -11485.61342155
  entropy T*S    EENTRO =         0.00000000
  eigenvalues    EBANDS =     -3837.85593458
  atomic energy  EATOM  =     14592.26033195
  Solvation  Ediel_sol  =         0.00000000
  ---------------------------------------------------
  free energy    TOTEN  =      -438.57896868 eV

  energy without entropy =     -438.57896868  energy(sigma->0) =     -438.57896868


--------------------------------------------------------------------------------------------------------




--------------------------------------- Iteration      1(   6)  ---------------------------------------


    POTLOK:  cpu time    0.1811: real time    0.1839
    SETDIJ:  cpu time    0.0104: real time    0.0105
     EDDAV:  cpu time   13.4798: real time   13.5808
 BZINTS: Fermi energy: -4.625156;270.000000 electrons
         Band energy:***********;  BLOECHL correction:  0.000000
       DOS:  cpu time    0.0041: real time    0.0041
    CHARGE:  cpu time    0.1927: real time    0.1952
    MIXING:  cpu time    0.0051: real time    0.0053
    --------------------------------------------
      LOOP:  cpu time   13.8733: real time   13.9798

 eigenvalue-minimisations  :  4712
 total energy-change (2. order) : 0.1681127E+02  (-0.7144437E+01)
 number of electron     270.0000006 magnetization       0.0000000
 augmentation part       15.1603535 magnetization      -0.0021213

 Broyden mixing:
  rms(total) = 0.17888E+01    rms(broyden)= 0.17876E+01
  rms(prec ) = 0.19179E+01
  weight for this iteration     100.00

 eigenvalues of (default mixing * dielectric matrix)
  average eigenvalue GAMMA=   1.0220
  1.0220

 Free energy of the ion-electron system (eV)
  ---------------------------------------------------
  alpha Z        PSCENC =        92.42997205
  Ewald energy   TEWEN  =     23606.32290841
  -Hartree energ DENC   =    -35494.05741902
  -exchange      EXHF   =         0.00000000
  -V(xc)+E(xc)   XCENC  =       986.49867645
  PAW double counting   =     12720.74981909   -13206.78363935
  entropy T*S    EENTRO =         0.00000000
  eigenvalues    EBANDS =     -3719.18835305
  atomic energy  EATOM  =     14592.26033195
  Solvation  Ediel_sol  =         0.00000000
  ---------------------------------------------------
  free energy    TOTEN  =      -421.76770347 eV

  energy without entropy =     -421.76770347  energy(sigma->0) =     -421.76770347


--------------------------------------------------------------------------------------------------------




--------------------------------------- Iteration      1(   7)  ---------------------------------------


    POTLOK:  cpu time    0.1655: real time    0.1677
    SETDIJ:  cpu time    0.0086: real time    0.0090
     EDDAV:  cpu time   12.6878: real time   12.8016
 BZINTS: Fermi energy: -4.491373;270.000000 electrons
         Band energy:***********;  BLOECHL correction:  0.000000
       DOS:  cpu time    0.0042: real time    0.0043
    CHARGE:  cpu time    0.2332: real time    0.2353
    MIXING:  cpu time    0.0049: real time    0.0052
    --------------------------------------------
      LOOP:  cpu time   13.1042: real time   13.2231

 eigenvalue-minimisations  :  4256
 total energy-change (2. order) : 0.6023385E+00  (-0.1620549E+01)
 number of electron     270.0000009 magnetization      -0.0000000
 augmentation part       15.1586652 magnetization       0.0000587

 Broyden mixing:
  rms(total) = 0.13149E+01    rms(broyden)= 0.13144E+01
  rms(prec ) = 0.14312E+01
  weight for this iteration     100.00

 eigenvalues of (default mixing * dielectric matrix)
  average eigenvalue GAMMA=   1.1306
  0.8321  1.4291

 Free energy of the ion-electron system (eV)
  ---------------------------------------------------
  alpha Z        PSCENC =        92.42997205
  Ewald energy   TEWEN  =     23606.32290841
  -Hartree energ DENC   =    -35555.83169286
  -exchange      EXHF   =         0.00000000
  -V(xc)+E(xc)   XCENC  =       988.92921310
  PAW double counting   =     14026.44164531   -14512.46783530
  entropy T*S    EENTRO =         0.00000000
  eigenvalues    EBANDS =     -3659.24990761
  atomic energy  EATOM  =     14592.26033195
  Solvation  Ediel_sol  =         0.00000000
  ---------------------------------------------------
  free energy    TOTEN  =      -421.16536496 eV

  energy without entropy =     -421.16536496  energy(sigma->0) =     -421.16536496


--------------------------------------------------------------------------------------------------------




--------------------------------------- Iteration      1(   8)  ---------------------------------------


    POTLOK:  cpu time    0.1720: real time    0.1748
    SETDIJ:  cpu time    0.0099: real time    0.0099
     EDDAV:  cpu time   12.5592: real time   12.6587
 BZINTS: Fermi energy: -4.460115;270.000000 electrons
         Band energy:***********;  BLOECHL correction:  0.000000
       DOS:  cpu time    0.0042: real time    0.0042
    CHARGE:  cpu time    0.2211: real time    0.2249
    MIXING:  cpu time    0.0043: real time    0.0045
    --------------------------------------------
      LOOP:  cpu time   12.9707: real time   13.0770

 eigenvalue-minimisations  :  4280
 total energy-change (2. order) : 0.4617144E+00  (-0.1503828E+01)
 number of electron     270.0000006 magnetization      -0.0000000
 augmentation part       14.9547376 magnetization       0.0001679

 Broyden mixing:
  rms(total) = 0.98745E+00    rms(broyden)= 0.98716E+00
  rms(prec ) = 0.11193E+01
  weight for this iteration     100.00

 eigenvalues of (default mixing * dielectric matrix)
  average eigenvalue GAMMA=   1.3196
  2.4257  1.0076  0.5255

 Free energy of the ion-electron system (eV)
  ---------------------------------------------------
  alpha Z        PSCENC =        92.42997205
  Ewald energy   TEWEN  =     23606.32290841
  -Hartree energ DENC   =    -35586.28678137
  -exchange      EXHF   =         0.00000000
  -V(xc)+E(xc)   XCENC  =       990.59238917
  PAW double counting   =     15186.02760981   -15672.78500094
  entropy T*S    EENTRO =         0.00000000
  eigenvalues    EBANDS =     -3629.26507959
  atomic energy  EATOM  =     14592.26033195
  Solvation  Ediel_sol  =         0.00000000
  ---------------------------------------------------
  free energy    TOTEN  =      -420.70365054 eV

  energy without entropy =     -420.70365054  energy(sigma->0) =     -420.70365054


--------------------------------------------------------------------------------------------------------




--------------------------------------- Iteration      1(   9)  ---------------------------------------


    POTLOK:  cpu time    0.1818: real time    0.1854
    SETDIJ:  cpu time    0.0417: real time    0.0428
     EDDAV:  cpu time   13.9646: real time   14.1685
 BZINTS: Fermi energy: -4.350088;270.000000 electrons
         Band energy:***********;  BLOECHL correction:  0.000000
       DOS:  cpu time    0.0040: real time    0.0041
    CHARGE:  cpu time    0.1921: real time    0.1933
    MIXING:  cpu time    0.0044: real time    0.0044
    --------------------------------------------
      LOOP:  cpu time   14.3887: real time   14.5986

 eigenvalue-minimisations  :  4872
 total energy-change (2. order) :-0.2720959E+00  (-0.2401849E+01)
 number of electron     270.0000009 magnetization      -0.0000000
 augmentation part       15.1545803 magnetization       0.0001835

 Broyden mixing:
  rms(total) = 0.71633E+00    rms(broyden)= 0.71585E+00
  rms(prec ) = 0.89444E+00
  weight for this iteration     100.00

 eigenvalues of (default mixing * dielectric matrix)
  average eigenvalue GAMMA=   1.3400
  3.3098  1.0327  0.5087  0.5087

 Free energy of the ion-electron system (eV)
  ---------------------------------------------------
  alpha Z        PSCENC =        92.42997205
  Ewald energy   TEWEN  =     23606.32290841
  -Hartree energ DENC   =    -35613.57465789
  -exchange      EXHF   =         0.00000000
  -V(xc)+E(xc)   XCENC  =       991.63457233
  PAW double counting   =     16519.28782870   -17009.24312087
  entropy T*S    EENTRO =         0.00000000
  eigenvalues    EBANDS =     -3600.09358110
  atomic energy  EATOM  =     14592.26033195
  Solvation  Ediel_sol  =         0.00000000
  ---------------------------------------------------
  free energy    TOTEN  =      -420.97574642 eV

  energy without entropy =     -420.97574642  energy(sigma->0) =     -420.97574642


--------------------------------------------------------------------------------------------------------




--------------------------------------- Iteration      1(  10)  ---------------------------------------


    POTLOK:  cpu time    0.2045: real time    0.2079
    SETDIJ:  cpu time    0.0091: real time    0.0091
     EDDAV:  cpu time   13.9425: real time   14.0943
 BZINTS: Fermi energy: -3.904976;270.000000 electrons
         Band energy:***********;  BLOECHL correction:  0.000000
       DOS:  cpu time    0.0041: real time    0.0041
    CHARGE:  cpu time    0.1930: real time    0.1943
    MIXING:  cpu time    0.0046: real time    0.0046
    --------------------------------------------
      LOOP:  cpu time   14.3579: real time   14.5144

 eigenvalue-minimisations  :  4776
 total energy-change (2. order) : 0.1083724E+01  (-0.4731970E+00)
 number of electron     270.0000008 magnetization      -0.0000000
 augmentation part       15.1519767 magnetization      -0.0000938

 Broyden mixing:
  rms(total) = 0.34307E+00    rms(broyden)= 0.34191E+00
  rms(prec ) = 0.45684E+00
  weight for this iteration     100.00

 eigenvalues of (default mixing * dielectric matrix)
  average eigenvalue GAMMA=   1.2557
  3.6285  1.0262  0.7178  0.4532  0.4532

 Free energy of the ion-electron system (eV)
  ---------------------------------------------------
  alpha Z        PSCENC =        92.42997205
  Ewald energy   TEWEN  =     23606.32290841
  -Hartree energ DENC   =    -35639.73643183
  -exchange      EXHF   =         0.00000000
  -V(xc)+E(xc)   XCENC  =       993.22230976
  PAW double counting   =     17836.04956356   -18326.34748358
  entropy T*S    EENTRO =         0.00000000
  eigenvalues    EBANDS =     -3574.09319290
  atomic energy  EATOM  =     14592.26033195
  Solvation  Ediel_sol  =         0.00000000
  ---------------------------------------------------
  free energy    TOTEN  =      -419.89202260 eV

  energy without entropy =     -419.89202260  energy(sigma->0) =     -419.89202260


--------------------------------------------------------------------------------------------------------




--------------------------------------- Iteration      1(  11)  ---------------------------------------


    POTLOK:  cpu time    0.1543: real time    0.1566
    SETDIJ:  cpu time    0.0093: real time    0.0093
     EDDAV:  cpu time   13.0818: real time   13.2033
 BZINTS: Fermi energy: -3.934984;270.000000 electrons
         Band energy:***********;  BLOECHL correction:  0.000000
       DOS:  cpu time    0.0040: real time    0.0040
    CHARGE:  cpu time    0.1929: real time    0.1944
    MIXING:  cpu time    0.0046: real time    0.0046
    --------------------------------------------
      LOOP:  cpu time   13.4467: real time   13.5721

 eigenvalue-minimisations  :  4472
 total energy-change (2. order) : 0.1367478E+00  (-0.1773620E+00)
 number of electron     270.0000008 magnetization      -0.0000000
 augmentation part       15.1382199 magnetization      -0.0001197

 Broyden mixing:
  rms(total) = 0.27716E+00    rms(broyden)= 0.27653E+00
  rms(prec ) = 0.37889E+00
  weight for this iteration     100.00

 eigenvalues of (default mixing * dielectric matrix)
  average eigenvalue GAMMA=   1.1579
  3.6351  0.9991  0.7489  0.7489  0.4079  0.4079

 Free energy of the ion-electron system (eV)
  ---------------------------------------------------
  alpha Z        PSCENC =        92.42997205
  Ewald energy   TEWEN  =     23606.32290841
  -Hartree energ DENC   =    -35648.07998847
  -exchange      EXHF   =         0.00000000
  -V(xc)+E(xc)   XCENC  =       993.69617850
  PAW double counting   =     18308.95665625   -18798.89414129
  entropy T*S    EENTRO =         0.00000000
  eigenvalues    EBANDS =     -3566.44719217
  atomic energy  EATOM  =     14592.26033195
  Solvation  Ediel_sol  =         0.00000000
  ---------------------------------------------------
  free energy    TOTEN  =      -419.75527478 eV

  energy without entropy =     -419.75527478  energy(sigma->0) =     -419.75527478


--------------------------------------------------------------------------------------------------------




--------------------------------------- Iteration      1(  12)  ---------------------------------------


    POTLOK:  cpu time    0.2217: real time    0.2251
    SETDIJ:  cpu time    0.0105: real time    0.0106
     EDDAV:  cpu time   12.1936: real time   12.2750
 BZINTS: Fermi energy: -3.891223;270.000000 electrons
         Band energy:***********;  BLOECHL correction:  0.000000
       DOS:  cpu time    0.0048: real time    0.0052
    CHARGE:  cpu time    0.2331: real time    0.2349
    MIXING:  cpu time    0.0054: real time    0.0055
    --------------------------------------------
      LOOP:  cpu time   12.6691: real time   12.7563

 eigenvalue-minimisations  :  4152
 total energy-change (2. order) : 0.1516662E+00  (-0.1281921E+00)
 number of electron     270.0000008 magnetization      -0.0000000
 augmentation part       15.0807156 magnetization      -0.0000707

 Broyden mixing:
  rms(total) = 0.12471E+00    rms(broyden)= 0.12403E+00
  rms(prec ) = 0.14533E+00
  weight for this iteration     100.00

 eigenvalues of (default mixing * dielectric matrix)
  average eigenvalue GAMMA=   1.1257
  3.5780  1.0949  1.0949  0.6550  0.6550  0.4008  0.4008

 Free energy of the ion-electron system (eV)
  ---------------------------------------------------
  alpha Z        PSCENC =        92.42997205
  Ewald energy   TEWEN  =     23606.32290841
  -Hartree energ DENC   =    -35647.57157368
  -exchange      EXHF   =         0.00000000
  -V(xc)+E(xc)   XCENC  =       993.71542466
  PAW double counting   =     18382.68539078   -18872.12830996
  entropy T*S    EENTRO =         0.00000000
  eigenvalues    EBANDS =     -3567.31775279
  atomic energy  EATOM  =     14592.26033195
  Solvation  Ediel_sol  =         0.00000000
  ---------------------------------------------------
  free energy    TOTEN  =      -419.60360859 eV

  energy without entropy =     -419.60360859  energy(sigma->0) =     -419.60360859


--------------------------------------------------------------------------------------------------------




--------------------------------------- Iteration      1(  13)  ---------------------------------------


    POTLOK:  cpu time    0.1699: real time    0.1768
    SETDIJ:  cpu time    0.0103: real time    0.0103
     EDDAV:  cpu time   12.8064: real time   12.9266
 BZINTS: Fermi energy: -3.906227;270.000000 electrons
         Band energy:***********;  BLOECHL correction:  0.000000
       DOS:  cpu time    0.0043: real time    0.0043
    CHARGE:  cpu time    0.1926: real time    0.1944
    MIXING:  cpu time    0.0054: real time    0.0054
    --------------------------------------------
      LOOP:  cpu time   13.1888: real time   13.3178

 eigenvalue-minimisations  :  4312
 total energy-change (2. order) : 0.8269719E-02  (-0.1845682E-01)
 number of electron     270.0000008 magnetization      -0.0000000
 augmentation part       15.0678326 magnetization      -0.0000994

 Broyden mixing:
  rms(total) = 0.80916E-01    rms(broyden)= 0.80871E-01
  rms(prec ) = 0.89436E-01
  weight for this iteration     100.00

 eigenvalues of (default mixing * dielectric matrix)
  average eigenvalue GAMMA=   1.1490
  3.4998  1.8252  1.0005  0.6806  0.6806  0.7137  0.3958  0.3958

 Free energy of the ion-electron system (eV)
  ---------------------------------------------------
  alpha Z        PSCENC =        92.42997205
  Ewald energy   TEWEN  =     23606.32290841
  -Hartree energ DENC   =    -35642.53369661
  -exchange      EXHF   =         0.00000000
  -V(xc)+E(xc)   XCENC  =       993.51086984
  PAW double counting   =     18402.20321712   -18891.48466491
  entropy T*S    EENTRO =         0.00000000
  eigenvalues    EBANDS =     -3572.30427672
  atomic energy  EATOM  =     14592.26033195
  Solvation  Ediel_sol  =         0.00000000
  ---------------------------------------------------
  free energy    TOTEN  =      -419.59533887 eV

  energy without entropy =     -419.59533887  energy(sigma->0) =     -419.59533887


--------------------------------------------------------------------------------------------------------




--------------------------------------- Iteration      1(  14)  ---------------------------------------


    POTLOK:  cpu time    0.1685: real time    0.1723
    SETDIJ:  cpu time    0.0080: real time    0.0089
     EDDAV:  cpu time   12.1448: real time   12.2590
 BZINTS: Fermi energy: -3.924981;270.000000 electrons
         Band energy:***********;  BLOECHL correction:  0.000000
       DOS:  cpu time    0.0044: real time    0.0044
    CHARGE:  cpu time    0.2201: real time    0.2217
    MIXING:  cpu time    0.0059: real time    0.0060
    --------------------------------------------
      LOOP:  cpu time   12.5517: real time   12.6722

 eigenvalue-minimisations  :  4040
 total energy-change (2. order) : 0.3954755E-02  (-0.7184382E-02)
 number of electron     270.0000008 magnetization      -0.0000000
 augmentation part       15.0739360 magnetization      -0.0000708

 Broyden mixing:
  rms(total) = 0.60885E-01    rms(broyden)= 0.60815E-01
  rms(prec ) = 0.73257E-01
  weight for this iteration     100.00

 eigenvalues of (default mixing * dielectric matrix)
  average eigenvalue GAMMA=   1.2116
  3.5444  2.5718  0.8983  0.8886  0.8886  0.6625  0.6625  0.3936  0.3936

 Free energy of the ion-electron system (eV)
  ---------------------------------------------------
  alpha Z        PSCENC =        92.42997205
  Ewald energy   TEWEN  =     23606.32290841
  -Hartree energ DENC   =    -35637.62732068
  -exchange      EXHF   =         0.00000000
  -V(xc)+E(xc)   XCENC  =       993.29203562
  PAW double counting   =     18432.72253907   -18921.89533267
  entropy T*S    EENTRO =         0.00000000
  eigenvalues    EBANDS =     -3577.09651786
  atomic energy  EATOM  =     14592.26033195
  Solvation  Ediel_sol  =         0.00000000
  ---------------------------------------------------
  free energy    TOTEN  =      -419.59138412 eV

  energy without entropy =     -419.59138412  energy(sigma->0) =     -419.59138412


--------------------------------------------------------------------------------------------------------




--------------------------------------- Iteration      1(  15)  ---------------------------------------


    POTLOK:  cpu time    0.1829: real time    0.1852
    SETDIJ:  cpu time    0.0087: real time    0.0088
     EDDAV:  cpu time   13.2021: real time   13.2977
 BZINTS: Fermi energy: -3.939985;270.000000 electrons
         Band energy:***********;  BLOECHL correction:  0.000000
       DOS:  cpu time    0.0039: real time    0.0039
    CHARGE:  cpu time    0.1928: real time    0.1941
    MIXING:  cpu time    0.0054: real time    0.0054
    --------------------------------------------
      LOOP:  cpu time   13.5959: real time   13.6952

 eigenvalue-minimisations  :  4608
 total energy-change (2. order) :-0.3087606E-02  (-0.1346165E-01)
 number of electron     270.0000008 magnetization      -0.0000000
 augmentation part       15.0807076 magnetization       0.0000140

 Broyden mixing:
  rms(total) = 0.72657E-01    rms(broyden)= 0.72457E-01
  rms(prec ) = 0.97831E-01
  weight for this iteration     100.00

 eigenvalues of (default mixing * dielectric matrix)
  average eigenvalue GAMMA=   1.2125
  3.6197  2.9016  1.0234  1.0234  0.7214  0.7214  0.6596  0.6596  0.4200  0.3750

 Free energy of the ion-electron system (eV)
  ---------------------------------------------------
  alpha Z        PSCENC =        92.42997205
  Ewald energy   TEWEN  =     23606.32290841
  -Hartree energ DENC   =    -35635.11477869
  -exchange      EXHF   =         0.00000000
  -V(xc)+E(xc)   XCENC  =       993.17065989
  PAW double counting   =     18490.41239347   -18979.56592989
  entropy T*S    EENTRO =         0.00000000
  eigenvalues    EBANDS =     -3579.51002890
  atomic energy  EATOM  =     14592.26033195
  Solvation  Ediel_sol  =         0.00000000
  ---------------------------------------------------
  free energy    TOTEN  =      -419.59447172 eV

  energy without entropy =     -419.59447172  energy(sigma->0) =     -419.59447172


--------------------------------------------------------------------------------------------------------




--------------------------------------- Iteration      1(  16)  ---------------------------------------


    POTLOK:  cpu time    0.1849: real time    0.1871
    SETDIJ:  cpu time    0.0090: real time    0.0091
     EDDAV:  cpu time   12.8516: real time   12.9881
 BZINTS: Fermi energy: -3.934984;270.000000 electrons
         Band energy:***********;  BLOECHL correction:  0.000000
       DOS:  cpu time    0.0042: real time    0.0042
    CHARGE:  cpu time    0.2348: real time    0.2365
    MIXING:  cpu time    0.0064: real time    0.0064
    --------------------------------------------
      LOOP:  cpu time   13.2909: real time   13.4314

 eigenvalue-minimisations  :  4472
 total energy-change (2. order) : 0.5984716E-02  (-0.9760473E-02)
 number of electron     270.0000008 magnetization      -0.0000000
 augmentation part       15.0767307 magnetization      -0.0002073

 Broyden mixing:
  rms(total) = 0.26993E-01    rms(broyden)= 0.26702E-01
  rms(prec ) = 0.35500E-01
  weight for this iteration     100.00

 eigenvalues of (default mixing * dielectric matrix)
  average eigenvalue GAMMA=   1.2092
  3.7109  2.9782  1.1644  1.0771  1.0771  0.6883  0.6883  0.6016  0.3699  0.4366
  0.5091

 Free energy of the ion-electron system (eV)
  ---------------------------------------------------
  alpha Z        PSCENC =        92.42997205
  Ewald energy   TEWEN  =     23606.32290841
  -Hartree energ DENC   =    -35634.50069661
  -exchange      EXHF   =         0.00000000
  -V(xc)+E(xc)   XCENC  =       993.14226354
  PAW double counting   =     18514.09951055   -19003.20642431
  entropy T*S    EENTRO =         0.00000000
  eigenvalues    EBANDS =     -3580.13635258
  atomic energy  EATOM  =     14592.26033195
  Solvation  Ediel_sol  =         0.00000000
  ---------------------------------------------------
  free energy    TOTEN  =      -419.58848701 eV

  energy without entropy =     -419.58848701  energy(sigma->0) =     -419.58848701


--------------------------------------------------------------------------------------------------------




--------------------------------------- Iteration      1(  17)  ---------------------------------------


    POTLOK:  cpu time    0.1863: real time    0.1888
    SETDIJ:  cpu time    0.0112: real time    0.0113
     EDDAV:  cpu time   11.7288: real time   11.8052
 BZINTS: Fermi energy: -3.931233;270.000000 electrons
         Band energy:***********;  BLOECHL correction:  0.000000
       DOS:  cpu time    0.0041: real time    0.0041
    CHARGE:  cpu time    0.1940: real time    0.1953
    MIXING:  cpu time    0.0064: real time    0.0064
    --------------------------------------------
      LOOP:  cpu time   12.1307: real time   12.2110

 eigenvalue-minimisations  :  3928
 total energy-change (2. order) :-0.1582988E-03  (-0.6456487E-03)
 number of electron     270.0000008 magnetization      -0.0000000
 augmentation part       15.0790973 magnetization      -0.0004221

 Broyden mixing:
  rms(total) = 0.12318E-01    rms(broyden)= 0.12307E-01
  rms(prec ) = 0.12949E-01
  weight for this iteration     100.00

 eigenvalues of (default mixing * dielectric matrix)
  average eigenvalue GAMMA=   1.1127
  3.7100  2.9705  1.1745  1.0724  1.0724  0.6878  0.6878  0.6030  0.5050  0.4376
  0.3697  0.0617

 Free energy of the ion-electron system (eV)
  ---------------------------------------------------
  alpha Z        PSCENC =        92.42997205
  Ewald energy   TEWEN  =     23606.32290841
  -Hartree energ DENC   =    -35634.35604318
  -exchange      EXHF   =         0.00000000
  -V(xc)+E(xc)   XCENC  =       993.13995467
  PAW double counting   =     18523.74379288   -19012.87275280
  entropy T*S    EENTRO =         0.00000000
  eigenvalues    EBANDS =     -3580.25680928
  atomic energy  EATOM  =     14592.26033195
  Solvation  Ediel_sol  =         0.00000000
  ---------------------------------------------------
  free energy    TOTEN  =      -419.58864531 eV

  energy without entropy =     -419.58864531  energy(sigma->0) =     -419.58864531


--------------------------------------------------------------------------------------------------------




--------------------------------------- Iteration      1(  18)  ---------------------------------------


    POTLOK:  cpu time    0.2077: real time    0.2113
    SETDIJ:  cpu time    0.0089: real time    0.0089
     EDDAV:  cpu time   12.4538: real time   12.6035
 BZINTS: Fermi energy: -3.931233;270.000000 electrons
         Band energy:***********;  BLOECHL correction:  0.000000
       DOS:  cpu time    0.0042: real time    0.0042
    CHARGE:  cpu time    0.1933: real time    0.1943
    MIXING:  cpu time    0.0067: real time    0.0067
    --------------------------------------------
      LOOP:  cpu time   12.8746: real time   13.0290

 eigenvalue-minimisations  :  4160
 total energy-change (2. order) :-0.2482210E-03  (-0.1707411E-03)
 number of electron     270.0000008 magnetization      -0.0000000
 augmentation part       15.0792833 magnetization      -0.0007830

 Broyden mixing:
  rms(total) = 0.14558E-01    rms(broyden)= 0.14542E-01
  rms(prec ) = 0.14734E-01
  weight for this iteration     100.00

 eigenvalues of (default mixing * dielectric matrix)
  average eigenvalue GAMMA=   1.1389
  3.7306  2.8935  1.4862  0.9590  0.9590  0.8376  0.6883  0.6883  0.5622  0.5622
  0.4304  0.3708  0.6382

 Free energy of the ion-electron system (eV)
  ---------------------------------------------------
  alpha Z        PSCENC =        92.42997205
  Ewald energy   TEWEN  =     23606.32290841
  -Hartree energ DENC   =    -35634.66600999
  -exchange      EXHF   =         0.00000000
  -V(xc)+E(xc)   XCENC  =       993.15573613
  PAW double counting   =     18521.20936035   -19010.34489011
  entropy T*S    EENTRO =         0.00000000
  eigenvalues    EBANDS =     -3579.95630230
  atomic energy  EATOM  =     14592.26033195
  Solvation  Ediel_sol  =         0.00000000
  ---------------------------------------------------
  free energy    TOTEN  =      -419.58889353 eV

  energy without entropy =     -419.58889353  energy(sigma->0) =     -419.58889353


--------------------------------------------------------------------------------------------------------




--------------------------------------- Iteration      1(  19)  ---------------------------------------


    POTLOK:  cpu time    0.1742: real time    0.1780
    SETDIJ:  cpu time    0.0091: real time    0.0091
     EDDAV:  cpu time    7.8420: real time    7.9133
 BZINTS: Fermi energy: -3.931233;270.000000 electrons
         Band energy:***********;  BLOECHL correction:  0.000000
       DOS:  cpu time    0.0044: real time    0.0044
    CHARGE:  cpu time    0.1932: real time    0.1948
    MIXING:  cpu time    0.0070: real time    0.0071
    --------------------------------------------
      LOOP:  cpu time    8.2299: real time    8.3068

 eigenvalue-minimisations  :  2160
 total energy-change (2. order) : 0.1777042E-03  (-0.2373417E-04)
 number of electron     270.0000008 magnetization      -0.0000000
 augmentation part       15.0793403 magnetization      -0.0006070

 Broyden mixing:
  rms(total) = 0.13025E-01    rms(broyden)= 0.13025E-01
  rms(prec ) = 0.13251E-01
  weight for this iteration     100.00

 eigenvalues of (default mixing * dielectric matrix)
  average eigenvalue GAMMA=   1.1615
  3.6805  2.6666  2.0451  0.8905  0.9769  0.9769  0.9630  0.6923  0.6923  0.7580
  0.5583  0.5583  0.3706  0.4316

 Free energy of the ion-electron system (eV)
  ---------------------------------------------------
  alpha Z        PSCENC =        92.42997205
  Ewald energy   TEWEN  =     23606.32290841
  -Hartree energ DENC   =    -35634.65726969
  -exchange      EXHF   =         0.00000000
  -V(xc)+E(xc)   XCENC  =       993.15518277
  PAW double counting   =     18521.85260031   -19010.98910784
  entropy T*S    EENTRO =         0.00000000
  eigenvalues    EBANDS =     -3579.96333376
  atomic energy  EATOM  =     14592.26033195
  Solvation  Ediel_sol  =         0.00000000
  ---------------------------------------------------
  free energy    TOTEN  =      -419.58871582 eV

  energy without entropy =     -419.58871582  energy(sigma->0) =     -419.58871582


--------------------------------------------------------------------------------------------------------




--------------------------------------- Iteration      1(  20)  ---------------------------------------


    POTLOK:  cpu time    0.1737: real time    0.1758
    SETDIJ:  cpu time    0.0092: real time    0.0092
     EDDAV:  cpu time    9.5427: real time    9.6419
 BZINTS: Fermi energy: -3.931233;270.000000 electrons
         Band energy:***********;  BLOECHL correction:  0.000000
       DOS:  cpu time    0.0042: real time    0.0042
    CHARGE:  cpu time    0.2303: real time    0.2323
    MIXING:  cpu time    0.0075: real time    0.0075
    --------------------------------------------
      LOOP:  cpu time    9.9675: real time   10.0707

 eigenvalue-minimisations  :  2896
 total energy-change (2. order) : 0.2821731E-03  (-0.2330130E-03)
 number of electron     270.0000008 magnetization      -0.0000000
 augmentation part       15.0795010 magnetization       0.0000483

 Broyden mixing:
  rms(total) = 0.73579E-02    rms(broyden)= 0.73081E-02
  rms(prec ) = 0.75499E-02
  weight for this iteration     100.00

 eigenvalues of (default mixing * dielectric matrix)
  average eigenvalue GAMMA=   1.2478
  3.6775  3.0127  3.0127  0.8610  1.1023  1.1023  1.0076  0.6938  0.6938  0.8088
  0.8088  0.5667  0.5667  0.3706  0.4319

 Free energy of the ion-electron system (eV)
  ---------------------------------------------------
  alpha Z        PSCENC =        92.42997205
  Ewald energy   TEWEN  =     23606.32290841
  -Hartree energ DENC   =    -35634.86500708
  -exchange      EXHF   =         0.00000000
  -V(xc)+E(xc)   XCENC  =       993.16596326
  PAW double counting   =     18518.23870473   -19007.38096713
  entropy T*S    EENTRO =         0.00000000
  eigenvalues    EBANDS =     -3579.76033982
  atomic energy  EATOM  =     14592.26033195
  Solvation  Ediel_sol  =         0.00000000
  ---------------------------------------------------
  free energy    TOTEN  =      -419.58843365 eV

  energy without entropy =     -419.58843365  energy(sigma->0) =     -419.58843365


--------------------------------------------------------------------------------------------------------




--------------------------------------- Iteration      1(  21)  ---------------------------------------


    POTLOK:  cpu time    0.1737: real time    0.1759
    SETDIJ:  cpu time    0.0100: real time    0.0100
     EDDAV:  cpu time    8.4484: real time    8.5252
 BZINTS: Fermi energy: -3.931233;270.000000 electrons
         Band energy:***********;  BLOECHL correction:  0.000000
       DOS:  cpu time    0.0043: real time    0.0043
    CHARGE:  cpu time    0.1906: real time    0.1924
    MIXING:  cpu time    0.0077: real time    0.0078
    --------------------------------------------
      LOOP:  cpu time    8.8347: real time    8.9158

 eigenvalue-minimisations  :  2472
 total energy-change (2. order) :-0.2303426E-03  (-0.4772279E-04)
 number of electron     270.0000008 magnetization       0.0000000
 augmentation part       15.0782487 magnetization       0.0002140

 Broyden mixing:
  rms(total) = 0.63998E-02    rms(broyden)= 0.63900E-02
  rms(prec ) = 0.83571E-02
  weight for this iteration     100.00

 eigenvalues of (default mixing * dielectric matrix)
  average eigenvalue GAMMA=   1.2820
  3.8394  3.4155  3.1204  0.8690  1.1138  1.1138  1.0129  0.9835  0.9835  0.6948
  0.6948  0.7495  0.5593  0.5593  0.3706  0.4317

 Free energy of the ion-electron system (eV)
  ---------------------------------------------------
  alpha Z        PSCENC =        92.42997205
  Ewald energy   TEWEN  =     23606.32290841
  -Hartree energ DENC   =    -35635.29761599
  -exchange      EXHF   =         0.00000000
  -V(xc)+E(xc)   XCENC  =       993.19162963
  PAW double counting   =     18513.18496609   -19002.31806434
  entropy T*S    EENTRO =         0.00000000
  eigenvalues    EBANDS =     -3579.36279178
  atomic energy  EATOM  =     14592.26033195
  Solvation  Ediel_sol  =         0.00000000
  ---------------------------------------------------
  free energy    TOTEN  =      -419.58866399 eV

  energy without entropy =     -419.58866399  energy(sigma->0) =     -419.58866399


--------------------------------------------------------------------------------------------------------




--------------------------------------- Iteration      1(  22)  ---------------------------------------


    POTLOK:  cpu time    0.1857: real time    0.1877
    SETDIJ:  cpu time    0.0095: real time    0.0095
     EDDAV:  cpu time    7.9812: real time    8.0611
 BZINTS: Fermi energy: -3.931233;270.000000 electrons
         Band energy:***********;  BLOECHL correction:  0.000000
       DOS:  cpu time    0.0043: real time    0.0043
    --------------------------------------------
      LOOP:  cpu time    8.1807: real time    8.2626

 eigenvalue-minimisations  :  2120
 total energy-change (2. order) : 0.4514669E-04  (-0.7442957E-04)
 number of electron     270.0000008 magnetization       0.0000000
 augmentation part       15.0782487 magnetization       0.0002140

 Free energy of the ion-electron system (eV)
  ---------------------------------------------------
  alpha Z        PSCENC =        92.42997205
  Ewald energy   TEWEN  =     23606.32290841
  -Hartree energ DENC   =    -35635.23614243
  -exchange      EXHF   =         0.00000000
  -V(xc)+E(xc)   XCENC  =       993.18988137
  PAW double counting   =     18512.78617750   -19001.91495244
  entropy T*S    EENTRO =         0.00000000
  eigenvalues    EBANDS =     -3579.42679524
  atomic energy  EATOM  =     14592.26033195
  Solvation  Ediel_sol  =         0.00000000
  ---------------------------------------------------
  free energy    TOTEN  =      -419.58861885 eV

  energy without entropy =     -419.58861885  energy(sigma->0) =     -419.58861885


--------------------------------------------------------------------------------------------------------




 average (electrostatic) potential at core
  the test charge radii are     0.6991  0.7089  0.9911
  (the norm of the test charge is              1.0000)
       1 -62.2445       2 -62.4844       3 -62.4485       4 -62.0619       5 -62.1179
       6 -62.0938       7 -62.3316       8 -62.2508       9 -62.1774      10 -62.4707
      11 -62.1400      12 -62.4347      13 -62.1878      14 -62.0667      15 -61.9950
      16 -62.0731      17 -62.0409      18 -62.0544      19 -62.3957      20 -62.1861
      21 -62.2399      22 -62.0926      23 -62.1459      24 -62.0793      25 -75.7278
      26 -73.8691      27 -73.8137      28 -74.0620      29 -74.1857      30 -73.8262
      31 -73.8685      32 -75.3245      33 -75.5064      34 -74.0777      35 -74.7030
      36 -73.8596      37 -73.8675      38 -74.1251      39 -74.6490      40 -75.3480
      41 -75.5517      42 -73.8827      43 -73.8237      44 -74.1363      45 -74.0178
      46 -73.8492      47 -73.8445      48 -75.2122      49 -75.6047      50 -74.0045
      51 -73.8638      52 -73.8864      53 -73.8509      54 -73.9908      55 -73.9429
      56 -75.3964      57 -84.7492
 
 
 
 E-fermi :  -3.9312     XC(G=0):  -2.3482     alpha+bet : -1.4420


 spin component 1

 k-point     1 :       0.0000    0.0000    0.0000
  band No.  band energies     occupation 
      1     -30.0611      1.00000
      2     -30.0564      1.00000
      3     -30.0134      1.00000
      4     -29.9864      1.00000
      5     -29.9776      1.00000
      6     -23.5272      1.00000
      7     -23.4063      1.00000
      8     -23.2821      1.00000
      9     -23.2066      1.00000
     10     -22.8072      1.00000
     11     -22.7460      1.00000
     12     -22.7185      1.00000
     13     -22.1075      1.00000
     14     -21.9509      1.00000
     15     -21.9185      1.00000
     16     -21.8495      1.00000
     17     -21.8296      1.00000
     18     -21.7644      1.00000
     19     -21.3210      1.00000
     20     -21.2519      1.00000
     21     -21.2130      1.00000
     22     -20.7207      1.00000
     23     -20.6884      1.00000
     24     -20.6221      1.00000
     25     -20.5876      1.00000
     26     -20.5331      1.00000
     27     -20.5122      1.00000
     28     -20.4617      1.00000
     29     -20.4440      1.00000
     30     -20.0892      1.00000
     31     -19.9903      1.00000
     32     -19.9547      1.00000
     33     -19.9111      1.00000
     34     -19.7003      1.00000
     35     -19.6387      1.00000
     36     -19.5134      1.00000
     37     -19.4285      1.00000
     38     -16.4813      1.00000
     39     -16.4221      1.00000
     40     -16.3126      1.00000
     41     -16.0539      1.00000
     42     -15.9904      1.00000
[...]
   -.141E+02 0.231E+02 0.884E+02   0.881E+01 -.221E+02 -.886E+02   0.280E+01 -.697E+00 0.263E+00   0.334E-01 -.465E-02 -.834E-03
   0.494E+02 -.396E+02 -.613E+02   -.502E+02 0.402E+02 0.610E+02   0.166E+01 -.898E+00 -.264E+00   -.109E-01 0.121E-02 0.397E-02
   -.923E+01 0.381E+02 0.141E+03   0.999E+01 -.392E+02 -.141E+03   -.507E+00 0.140E+01 0.122E+01   -.628E-02 0.961E-02 0.106E-01
   -.459E+02 -.131E+02 0.678E+02   0.469E+02 0.137E+02 -.679E+02   -.180E+01 -.748E+00 0.628E+00   -.934E-03 0.764E-02 0.399E-03
   0.278E+02 -.237E+02 -.253E+02   -.284E+02 0.185E+02 0.236E+02   0.381E+00 0.321E+01 0.659E+00   0.151E-02 0.124E-01 0.291E-02
   0.220E+02 -.826E+01 -.347E+02   -.167E+02 0.116E+02 0.341E+02   -.336E+01 -.177E+01 0.286E+00   -.194E-02 -.200E-02 0.341E-02
   -.956E+01 0.212E+01 -.423E+02   0.424E+01 0.113E+01 0.417E+02   0.336E+01 -.167E+01 0.272E-01   -.537E-02 0.478E-02 0.177E-02
   -.159E+02 0.130E+02 -.506E+02   0.161E+02 -.114E+02 0.512E+02   0.932E+00 -.148E+01 -.126E+01   0.884E-02 -.104E-01 -.700E-02
   -.246E+01 0.165E+02 0.340E+02   0.239E+01 -.175E+02 -.329E+02   -.181E-01 0.231E+01 -.324E+00   0.548E-02 -.171E-01 0.307E-02
   0.216E+02 0.121E+02 -.464E+02   -.216E+02 -.102E+02 0.462E+02   -.104E+01 -.167E+01 -.107E+01   0.205E-01 0.921E-02 0.112E-01
   -.285E+01 -.157E+02 -.836E+01   0.286E+01 0.101E+02 0.104E+02   -.109E+00 0.364E+01 -.103E+01   -.155E-01 0.589E-02 -.189E-02
   0.306E+02 0.225E+02 0.134E+03   -.257E+02 -.197E+02 -.135E+03   -.288E+01 -.181E+01 0.552E+00   -.236E-01 0.363E-03 0.863E-02
   -.129E+02 0.184E+02 0.619E+02   0.793E+01 -.154E+02 -.606E+02   0.302E+01 -.148E+01 -.669E+00   -.333E-01 0.120E-01 0.429E-02
   0.476E+02 -.122E+02 0.467E+02   -.486E+02 0.129E+02 -.466E+02   0.187E+01 -.728E+00 0.330E+00   0.210E-02 -.573E-04 0.988E-03
   0.963E+00 0.538E+02 0.151E+03   -.169E+01 -.549E+02 -.151E+03   0.158E+00 0.163E+01 0.114E+01   0.113E-01 -.756E-02 -.732E-02
   -.472E+02 -.419E+02 -.695E+02   0.481E+02 0.425E+02 0.694E+02   -.175E+01 -.981E+00 -.412E+00   0.900E-02 -.808E-02 0.608E-02
   -.230E+02 -.233E+02 -.100E+03   0.235E+02 0.181E+02 0.988E+02   0.101E-01 0.299E+01 0.357E+00   0.140E-02 -.123E-01 -.469E-04
   0.120E+02 0.101E+01 -.778E+02   -.665E+01 0.216E+01 0.764E+02   -.321E+01 -.160E+01 0.228E+00   -.654E-03 -.104E-01 0.183E-02
   -.240E+02 -.515E+01 -.637E+02   0.187E+02 0.859E+01 0.621E+02   0.316E+01 -.182E+01 0.755E+00   0.886E-02 -.165E-01 0.253E-02
   0.512E+02 -.511E+02 0.974E+02   -.528E+02 0.512E+02 -.970E+02   0.169E+01 -.125E+01 -.164E-01   -.927E-02 0.189E-01 -.192E-02
   -.758E+01 0.315E+02 -.133E+03   0.754E+01 -.330E+02 0.133E+03   0.435E-02 0.222E+01 -.120E+01   -.604E-02 -.298E-02 0.157E-02
   -.599E+02 -.188E+02 -.427E+02   0.613E+02 0.189E+02 0.431E+02   -.189E+01 -.384E+00 -.693E+00   -.146E-01 -.111E-01 -.463E-02
   -.103E+02 0.258E+02 0.119E+03   0.103E+02 -.265E+02 -.120E+03   -.264E+00 0.277E+00 0.195E+01   0.503E-01 0.468E-02 0.384E-02
   -.137E+03 -.221E+02 0.158E+03   0.163E+03 0.362E+02 -.168E+03   -.289E+02 -.161E+02 0.114E+02   0.446E-02 0.176E-01 0.222E-02
   0.110E+03 -.108E+03 -.167E+03   -.135E+03 0.122E+03 0.176E+03   0.289E+02 -.152E+02 -.112E+02   -.143E-01 0.391E-02 0.276E-02
   0.389E+01 0.120E+03 0.277E+03   -.173E+01 -.144E+03 -.295E+03   -.274E+01 0.271E+02 0.217E+02   -.213E-01 0.298E-01 0.260E-01
   -.267E+02 0.977E+02 0.293E+03   0.239E+02 -.120E+03 -.313E+03   0.271E+01 0.248E+02 0.240E+02   0.115E-01 0.199E-01 0.273E-01
   0.136E+03 -.691E+02 -.796E+02   -.161E+03 0.860E+02 0.795E+02   0.281E+02 -.198E+02 -.487E+00   -.302E-01 0.167E-01 -.274E-02
   -.103E+03 -.575E+02 0.178E+03   0.128E+03 0.647E+02 -.194E+03   -.281E+02 -.836E+01 0.190E+02   -.412E-02 0.935E-02 0.866E-03
   -.327E+01 -.103E+01 -.169E+02   0.337E+01 0.123E+01 0.178E+02   -.171E+00 -.110E+00 -.108E+01   -.201E-02 0.223E-02 0.937E-03
   0.108E+02 -.160E+02 -.670E+02   -.112E+02 0.163E+02 0.714E+02   0.142E+00 -.430E+00 -.493E+01   -.376E-02 0.816E-02 0.495E-02
   -.995E+00 -.435E+02 -.213E+03   0.187E+02 0.537E+02 0.232E+03   -.198E+02 -.118E+02 -.221E+02   0.208E-01 0.452E-02 0.533E-02
   0.548E+01 0.483E+02 -.523E+02   -.217E+02 -.445E+02 0.615E+02   0.190E+02 -.403E+01 -.105E+02   0.183E-01 -.901E-02 -.597E-02
   -.109E+02 0.794E+02 0.865E+02   0.136E+02 -.108E+03 -.949E+02   -.320E+01 0.321E+02 0.996E+01   0.109E-01 -.245E-01 0.634E-02
   -.730E+00 0.773E+02 0.967E+02   -.118E+01 -.105E+03 -.105E+03   0.229E+01 0.320E+02 0.101E+02   0.936E-02 -.138E-01 0.632E-02
   0.286E+02 -.424E+02 -.234E+03   -.499E+02 0.531E+02 0.248E+03   0.238E+02 -.125E+02 -.173E+02   0.506E-02 -.118E-01 -.112E-01
   -.115E+01 0.549E+02 -.744E+02   0.158E+02 -.516E+02 0.866E+02   -.172E+02 -.331E+01 -.142E+02   0.298E-01 0.110E-01 0.118E-01
   0.343E+02 0.125E+02 0.537E+02   -.378E+02 -.150E+02 -.528E+02   0.472E+01 0.313E+01 -.468E+00   0.131E-01 0.153E-01 0.791E-02
   0.996E+01 0.270E+02 0.104E+03   -.117E+02 -.288E+02 -.108E+03   0.194E+01 0.202E+01 0.528E+01   -.676E-01 0.132E-01 0.602E-02
   -.134E+03 -.728E+02 -.868E+02   0.159E+03 0.892E+02 0.871E+02   -.287E+02 -.190E+02 -.738E+00   0.119E-01 -.618E-02 0.717E-02
   0.105E+03 -.490E+02 0.138E+03   -.131E+03 0.559E+02 -.152E+03   0.293E+02 -.784E+01 0.167E+02   0.350E-02 -.669E-02 0.391E-02
   0.827E+01 0.114E+03 0.303E+03   -.358E+01 -.136E+03 -.322E+03   -.486E+01 0.255E+02 0.228E+02   0.312E-01 -.201E-01 -.117E-01
   0.175E+01 0.166E+03 0.253E+03   -.318E+01 -.194E+03 -.261E+03   0.217E+01 0.328E+02 0.106E+02   0.135E-01 -.294E-01 -.113E-01
   0.138E+03 -.229E+02 0.961E+02   -.164E+03 0.380E+02 -.101E+03   0.297E+02 -.174E+02 0.535E+01   0.131E-01 -.351E-02 0.305E-02
   -.997E+02 -.111E+03 -.205E+03   0.124E+03 0.125E+03 0.217E+03   -.274E+02 -.151E+02 -.145E+02   0.143E-01 -.120E-01 0.362E-02
   0.591E+00 -.229E+02 -.944E+01   -.483E+00 0.239E+02 0.724E+01   -.109E+00 -.140E+01 0.256E+01   0.168E-02 -.111E-01 0.590E-02
   -.104E+02 -.179E+02 -.131E+03   0.105E+02 0.194E+02 0.137E+03   0.183E+00 -.180E+01 -.665E+01   0.391E-02 -.234E-01 0.366E-02
   -.158E+03 -.447E+02 -.658E+02   0.184E+03 0.607E+02 0.660E+02   -.291E+02 -.181E+02 -.397E+00   -.154E-01 -.182E-01 -.392E-02
   0.124E+03 -.104E+03 0.215E+03   -.151E+03 0.118E+03 -.220E+03   0.302E+02 -.145E+02 0.745E+01   -.369E-01 0.354E-01 0.454E-02
   0.323E+00 0.104E+03 -.269E+03   0.359E+01 -.128E+03 0.288E+03   -.451E+01 0.266E+02 -.220E+02   -.106E-01 0.192E-02 0.153E-02
   -.251E+02 0.799E+02 -.303E+03   0.237E+02 -.102E+03 0.324E+03   0.162E+01 0.242E+02 -.252E+02   -.630E-02 -.954E-02 -.343E-02
   0.133E+03 -.889E+02 0.165E+03   -.153E+03 0.108E+03 -.176E+03   0.229E+02 -.219E+02 0.126E+02   -.115E-01 0.215E-01 0.537E-03
   -.118E+03 -.520E+02 -.130E+03   0.145E+03 0.592E+02 0.142E+03   -.305E+02 -.782E+01 -.141E+02   -.463E-01 0.192E-02 -.867E-02
   -.325E+02 0.150E+02 0.315E+02   0.348E+02 -.166E+02 -.331E+02   -.325E+01 0.222E+01 0.231E+01   0.304E-02 -.121E-01 -.383E-02
   0.330E+02 -.848E+02 -.707E+03   -.336E+02 0.933E+02 0.716E+03   0.651E+00 -.996E+01 -.109E+02   0.892E-01 -.106E-01 -.810E-02
 -----------------------------------------------------------------------------------------------
   0.752E+00 -.780E+01 -.489E+01   -.213E-13 0.213E-12 -.341E-12   -.851E+00 0.782E+01 0.476E+01   0.922E-01 -.166E-01 0.122E+00
 
 
 POSITION                                       TOTAL-FORCE (eV/Angst)
 -----------------------------------------------------------------------------------
     -0.01735      2.87331      7.42048         0.014406     -2.335841      0.903077
      1.41590      5.34482      7.53695         2.461859      0.359755      0.438225
     -1.47887      5.29199      7.43480        -2.480649      0.325098      0.097384
      6.67079      0.76709      8.79907         0.815009     -0.265366     -0.548767
      4.04614      5.34337      7.17794         0.252704      0.310716      0.987674
      1.37564      0.69069      7.80705        -0.781275     -0.123472      0.563932
     -4.16836      9.63676      8.41988        -0.260261     -1.979301     -1.082507
     -2.58046     12.01207      8.72090         1.969623      1.558434     -0.334442
     -5.43211     12.12281      8.66738        -1.964432      1.586811     -0.497803
      2.79078      7.33897      8.73313         1.146580      0.119948     -0.660843
      0.04572     11.91046      8.50808        -0.081297      1.219595      0.790212
     -2.95705      7.33519      8.36368        -0.992861      0.275247     -1.309463
      8.10441      2.88799      8.22506        -0.116293     -1.997100      0.974699
      9.40051      5.11397      6.95796         2.013188      0.983039      0.467544
      6.63557      5.21451      7.57703        -1.971927      1.588858      0.603165
     14.66720      0.50162      8.01618         0.881653     -0.038432      0.471546
     12.00290      5.03567      6.85351        -0.556759      0.500243      0.929766
      9.47433      0.75190      8.90935        -0.918629     -0.420884     -0.494568
      4.13723      9.51255      9.24373         0.519822     -2.203297     -1.145481
      5.47931     11.99802      9.09811         2.182104      1.564644     -1.148007
      2.62075     11.97295      9.07109        -2.137216      1.594255     -0.837079
     10.54879      7.42803      7.31687         0.055525     -1.144673      0.434991
      8.08540     12.02194      9.30316        -0.043970      0.671649     -1.197393
      5.52373      7.38722      8.52357        -0.505440     -0.343364     -0.342570
     -0.01665      4.51401      7.39549        -0.167424     -0.471102      0.309769
      1.35299      2.14734      7.32457        -3.270524     -2.036770      1.697859
      5.38538     -0.04989      9.08554         3.224165     -1.872218     -2.109625
      5.38795      4.66851      6.82752        -0.596891      3.030604      3.096155
      2.63911      4.81775      6.78170        -0.067616      2.478887      3.343217
      6.70100      2.28578      8.58084         3.218590     -2.884255     -0.604851
     -5.38562     13.37148      7.77182        -3.305270     -1.105110      2.847111
      0.01952      0.02481      8.40145        -0.075751      0.089701     -0.179650
     -4.02726     11.23497      8.70452        -0.265097     -0.154092     -0.532441
     -3.02904      8.72433      9.00951        -2.082317     -1.668870     -3.539601
      1.41526      6.58948      8.55298         2.834734     -0.240690     -1.332156
      1.40499     11.15946      8.52119        -0.487213      3.706054      1.594741
     -1.31023     11.17731      8.34110         0.388895      3.736706      1.620019
      2.81031      8.68106      9.48011         2.507078     -1.834668     -3.114310
     -1.60722      6.52999      8.44102        -2.532754     -0.063285     -2.002135
     11.88990      6.50965      7.58619         1.199124      0.616448      0.410646
      8.06592      4.33135      7.47013         0.166466      0.215443      0.628885
      9.48553      2.26472      8.61714        -3.331681     -2.648891     -0.423409
      5.36493     13.19652      8.14058         3.471585     -0.973829      2.637267
     -2.61876      4.72004      6.59116        -0.133589      2.703013      3.344254
     10.68519      4.29541      6.60380         0.743863      4.069121      2.058389
     14.65250      1.96475      7.57128         3.399645     -2.276555      0.961586
     10.69882     -0.07685      9.38697        -2.916062     -1.880257     -2.398611
      8.07587     -0.05902      8.67058        -0.000006     -0.353206      0.364984
      4.04937     11.14314      9.29507         0.284136     -0.273446     -0.749721
      5.50171      8.87922      8.91689        -3.627626     -2.075948     -0.207829
      9.29426      6.68957      6.88599         4.020455     -1.140439      2.154257
     -6.59443     11.56858      9.54698        -0.602365      2.991455     -3.067086
      6.73586     11.47331      9.84926         0.178202      2.360964     -3.606787
     -5.36976      9.18711      7.56125         3.021892     -2.355769      1.932860
      6.77491      6.51718      8.41848        -3.918960     -0.696629     -2.103385
      4.09099      6.69570      8.12861        -0.891600      0.592000      0.736425
     -0.15537      7.97984      9.70563         0.112453     -1.390926     -1.830124
 -----------------------------------------------------------------------------------
    total drift:                               -0.007122      0.004872     -0.008008


--------------------------------------------------------------------------------------------------------



  FREE ENERGIE OF THE ION-ELECTRON SYSTEM (eV)
  ---------------------------------------------------
  free  energy   TOTEN  =      -422.79212477 eV

  energy  without entropy=     -422.79212477  energy(sigma->0) =     -422.79212477
 


--------------------------------------------------------------------------------------------------------


    POTLOK:  cpu time    0.1835: real time    0.1841


--------------------------------------------------------------------------------------------------------


 stress matrix after NEB project (eV)
   -319.93289      5.41105     -8.27605
      5.41105   -290.39097    -14.97926
     -8.27605    -14.97926    -70.47588
  FORCES: max atom, RMS     4.701647    3.075023
  FORCE total and by dimension   23.215911    4.069121
  Stress total and by dimension  438.514679  319.932893
     LOOP+:  cpu time  286.9464: real time  289.8240
    4ORBIT:  cpu time    0.0000: real time    0.0000
 


 total charge     
 
# of ion       s       p       d       tot
------------------------------------------
    1        0.803   1.346   0.000   2.149
    2        0.797   1.335   0.000   2.132
    3        0.798   1.340   0.000   2.138
    4        0.818   1.345   0.000   2.162
    5        0.813   1.343   0.000   2.156
    6        0.818   1.351   0.000   2.169
    7        0.803   1.342   0.000   2.145
    8        0.804   1.337   0.000   2.142
    9        0.807   1.340   0.000   2.147
   10        0.812   1.366   0.000   2.178
   11        0.817   1.348   0.000   2.165
   12        0.813   1.372   0.000   2.185
   13        0.805   1.338   0.000   2.143
   14        0.801   1.346   0.000   2.147
   15        0.799   1.345   0.000   2.144
   16        0.817   1.354   0.000   2.172
   17        0.812   1.352   0.000   2.164
   18        0.817   1.342   0.000   2.159
   19        0.804   1.339   0.000   2.143
   20        0.807   1.338   0.000   2.145
   21        0.805   1.332   0.000   2.137
   22        0.818   1.344   0.000   2.162
   23        0.820   1.335   0.000   2.155
   24        0.816   1.356   0.000   2.171
   25        1.184   2.341   0.000   3.525
   26        1.283   2.264   0.000   3.547
   27        1.281   2.264   0.000   3.544
   28        1.287   2.241   0.000   3.528
   29        1.281   2.257   0.000   3.538
   30        1.282   2.260   0.000   3.542
   31        1.286   2.261   0.000   3.547
   32        1.217   2.355   0.000   3.573
   33        1.187   2.353   0.000   3.540
   34        1.273   2.282   0.000   3.555
   35        1.246   2.294   0.000   3.540
   36        1.281   2.261   0.000   3.542
   37        1.280   2.262   0.000   3.542
   38        1.274   2.274   0.000   3.548
   39        1.246   2.298   0.000   3.545
   40        1.213   2.370   0.000   3.583
   41        1.189   2.339   0.000   3.528
   42        1.284   2.251   0.000   3.535
   43        1.284   2.266   0.000   3.549
   44        1.281   2.258   0.000   3.539
   45        1.285   2.246   0.000   3.532
   46        1.282   2.268   0.000   3.550
   47        1.282   2.257   0.000   3.539
   48        1.215   2.358   0.000   3.573
   49        1.193   2.327   0.000   3.520
   50        1.280   2.269   0.000   3.548
   51        1.283   2.259   0.000   3.542
   52        1.288   2.244   0.000   3.532
   53        1.287   2.246   0.000   3.534
   54        1.282   2.254   0.000   3.536
   55        1.287   2.255   0.000   3.542
   56        1.213   2.365   0.000   3.578
   57        1.366   0.532   9.985  11.883
--------------------------------------------------
tot         61.104 105.917   9.985 177.006
 


 magnetization (x)
 
# of ion       s       p       d       tot
------------------------------------------
    1        0.000   0.000   0.000   0.000
    2        0.000   0.000   0.000   0.000
    3       -0.000  -0.000   0.000  -0.000
    4        0.000   0.000   0.000   0.000
    5        0.000   0.000   0.000   0.000
    6        0.000   0.000   0.000   0.000
    7       -0.000   0.000   0.000   0.000
    8       -0.000   0.000   0.000   0.000
    9        0.000   0.000   0.000   0.000
   10       -0.000  -0.000   0.000  -0.000
   11       -0.000   0.000   0.000   0.000
   12        0.000   0.000   0.000   0.000
   13       -0.000   0.000   0.000   0.000
   14       -0.000   0.000   0.000   0.000
   15        0.000   0.000   0.000   0.000
   16        0.000   0.000   0.000   0.000
   17       -0.000   0.000   0.000   0.000
   18        0.000   0.000   0.000   0.000
   19        0.000   0.000   0.000   0.000
   20        0.000   0.000   0.000   0.000
   21        0.000   0.000   0.000   0.000
   22        0.000   0.000   0.000   0.000
   23        0.000   0.000   0.000   0.000
   24        0.000   0.000   0.000   0.000
   25       -0.000  -0.000   0.000  -0.000
   26        0.000   0.000   0.000   0.000
   27        0.000   0.000   0.000   0.000
   28       -0.000  -0.000   0.000  -0.000
   29       -0.000  -0.000   0.000  -0.000
   30        0.000   0.000   0.000   0.000
   31        0.000   0.000   0.000   0.000
   32        0.000   0.000   0.000   0.000
   33       -0.000  -0.000   0.000  -0.000
   34       -0.000   0.000   0.000   0.000
   35        0.000   0.000   0.000   0.000
   36       -0.000   0.000   0.000   0.000
   37       -0.000   0.000   0.000   0.000
   38        0.000   0.000   0.000   0.000
   39        0.000   0.000   0.000   0.000
   40        0.000   0.000   0.000   0.000
   41        0.000  -0.000   0.000  -0.000
   42        0.000   0.000   0.000   0.000
   43        0.000  -0.000   0.000  -0.000
   44       -0.000   0.000   0.000   0.000
   45        0.000   0.000   0.000   0.000
   46        0.000   0.000   0.000   0.000
   47        0.000  -0.000   0.000  -0.000
   48        0.000   0.000   0.000   0.000
   49       -0.000  -0.000   0.000  -0.000
   50        0.000  -0.000   0.000  -0.000
   51        0.000   0.000   0.000   0.000
   52        0.000   0.000   0.000   0.000
   53        0.000   0.000   0.000   0.000
   54        0.000   0.000   0.000   0.000
   55        0.000  -0.000   0.000  -0.000
   56        0.000   0.000   0.000   0.000
   57       -0.000  -0.001  -0.000  -0.001
--------------------------------------------------
tot          0.000   0.001  -0.000   0.001
 
 BZINTS: Fermi energy: -3.931233;270.000000 electrons
         Band energy:***********;  BLOECHL correction:  0.000000

 total amount of memory used by VASP MPI-rank0   115370. kBytes
=======================================================================

   base      :      30000. kBytes
   nonl-proj :      20164. kBytes
   fftplans  :       5599. kBytes
   grid      :      14993. kBytes
   one-center:        155. kBytes
   wavefun   :      44459. kBytes
 
  
  
 General timing and accounting informations for this job:
 ========================================================
  
                  Total CPU time used (sec):      302.897
                            User time (sec):      294.274
                          System time (sec):        8.623
                         Elapsed time (sec):      312.850
  
                   Maximum memory used (kb):      455572.
                   Average memory used (kb):           0.
  
                          Minor page faults:      1405049
                          Major page faults:            0
                 Voluntary context switches:         9067
