       N       E                     dE             d eps       ncg     rms          ort
DAV:   1     0.267343667882E+04    0.26734E+04   -0.10806E+05   688   0.120E+03
DAV:   2     0.211745822430E+02   -0.26523E+04   -0.25533E+04   688   0.298E+02
DAV:   3    -0.503895297999E+03   -0.52507E+03   -0.52116E+03   688   0.149E+02
DAV:   4    -0.525319566653E+03   -0.21424E+02   -0.20901E+02   688   0.416E+01
DAV:   5    -0.526157468608E+03   -0.83790E+00   -0.82894E+00   688   0.665E+00
SDA:   6    -0.447876737810E+03    0.78281E+02   -0.82894E+00   688   0.208E+03 0.000E+00
CGA:   7    -0.484691901269E+03   -0.36815E+02   -0.36874E+02   688   0.288E+02 0.141E+01
CGA:   8    -0.488936577665E+03   -0.42447E+01   -0.43483E+01   688   0.116E+02-0.318E+00
CGA:   9    -0.490870756267E+03   -0.19342E+01   -0.19378E+01   688   0.290E+01 0.488E-02
CGA:  10    -0.491595710847E+03   -0.72495E+00   -0.72501E+00   688   0.975E+00 0.550E-04
CGA:  11    -0.491883811807E+03   -0.28810E+00   -0.28933E+00   688   0.370E+00-0.113E-01
CGA:  12    -0.491973133695E+03   -0.89322E-01   -0.89666E-01   688   0.225E+00-0.549E-02
CGA:  13    -0.492013272202E+03   -0.40139E-01   -0.40090E-01   688   0.826E-01-0.682E-03
CGA:  14    -0.492036338745E+03   -0.23067E-01   -0.23026E-01   688   0.341E-01 0.380E-03
CGA:  15    -0.492045466388E+03   -0.91276E-02   -0.90924E-02   688   0.179E-01 0.419E-03
CGA:  16    -0.492050135195E+03   -0.46688E-02   -0.46659E-02   688   0.754E-02 0.249E-04
CGA:  17    -0.492052774592E+03   -0.26394E-02   -0.26275E-02   688   0.355E-02 0.730E-04
CGA:  18    -0.492054114692E+03   -0.13401E-02   -0.13351E-02   688   0.221E-02 0.273E-04
CGA:  19    -0.492054796850E+03   -0.68216E-03   -0.68072E-03   688   0.175E-02 0.142E-04
CGA:  20    -0.492055234640E+03   -0.43779E-03   -0.43774E-03   688   0.113E-02 0.940E-06
CGA:  21    -0.492055648077E+03   -0.41344E-03   -0.41061E-03   688   0.902E-03 0.180E-04
CGA:  22    -0.492056046277E+03   -0.39820E-03   -0.40353E-03   688   0.118E-02-0.248E-04
CGA:  23    -0.492056621967E+03   -0.57569E-03   -0.57026E-03   688   0.131E-02 0.205E-04
CGA:  24    -0.492057341551E+03   -0.71958E-03   -0.82850E-03   688   0.226E-02-0.336E-03
CGA:  25    -0.492057694553E+03   -0.35300E-03   -0.34411E-03   688   0.148E-02 0.909E-05
CGA:  26    -0.492058066801E+03   -0.37225E-03   -0.37572E-03   688   0.115E-02 0.731E-04
CGA:  27    -0.492058329102E+03   -0.26230E-03   -0.26047E-03   688   0.750E-03 0.439E-05
CGA:  28    -0.492058540917E+03   -0.21181E-03   -0.21184E-03   688   0.633E-03 0.550E-05
CGA:  29    -0.492058689202E+03   -0.14829E-03   -0.14787E-03   688   0.489E-03-0.370E-05
CGA:  30    -0.492058820000E+03   -0.13080E-03   -0.13077E-03   688   0.386E-03-0.163E-04
CGA:  31    -0.492058911019E+03   -0.91020E-04   -0.90850E-04   688   0.333E-03-0.491E-05
   1 F= -.49621893E+03 E0= -.49619727E+03  d E =-.496219E+03  mag=     0.5100
       N       E                     dE             d eps       ncg     rms          ort
SDA:   1    -0.491450317659E+03    0.60850E+00    0.00000E+00   688   0.142E+01 0.000E+00
CGA:   2    -0.491919197316E+03   -0.46888E+00   -0.46788E+00   688   0.608E+00 0.106E-01
CGA:   3    -0.492046850559E+03   -0.12765E+00   -0.12748E+00   688   0.130E+00-0.566E-03
CGA:   4    -0.492071543807E+03   -0.24693E-01   -0.24678E-01   688   0.294E-01-0.631E-04
CGA:   5    -0.492077664566E+03   -0.61208E-02   -0.61224E-02   688   0.779E-02 0.661E-05
CGA:   6    -0.492079736700E+03   -0.20721E-02   -0.20722E-02   688   0.240E-02-0.269E-05
CGA:   7    -0.492080432672E+03   -0.69597E-03   -0.69604E-03   688   0.988E-03-0.261E-05
CGA:   8    -0.492080747567E+03   -0.31489E-03   -0.31498E-03   688   0.401E-03-0.161E-05
CGA:   9    -0.492080873721E+03   -0.12615E-03   -0.12620E-03   688   0.165E-03-0.904E-06
CGA:  10    -0.492080924925E+03   -0.51204E-04   -0.51168E-04   688   0.679E-04 0.874E-06
   2 F= -.49624346E+03 E0= -.49622134E+03  d E =-.245279E-01  mag=     0.5009
       N       E                     dE             d eps       ncg     rms          ort
SDA:   1    -0.492035150925E+03    0.45723E-01    0.00000E+00   688   0.116E+00 0.000E+00
CGA:   2    -0.492073313057E+03   -0.38162E-01   -0.38182E-01   688   0.518E-01-0.233E-03
CGA:   3    -0.492083797981E+03   -0.10485E-01   -0.10491E-01   688   0.112E-01 0.245E-04
CGA:   4    -0.492085940269E+03   -0.21423E-02   -0.21431E-02   688   0.241E-02 0.752E-05
CGA:   5    -0.492086464899E+03   -0.52463E-03   -0.52501E-03   688   0.669E-03 0.821E-05
CGA:   6    -0.492086644732E+03   -0.17983E-03   -0.17984E-03   688   0.212E-03-0.176E-05
CGA:   7    -0.492086706055E+03   -0.61323E-04   -0.61310E-04   688   0.885E-04 0.545E-06
   3 F= -.49624863E+03 E0= -.49622645E+03  d E =-.296987E-01  mag=     0.4868
       N       E                     dE             d eps       ncg     rms          ort
SDA:   1    -0.491985775829E+03    0.10087E+00    0.00000E+00   688   0.289E+00 0.000E+00
CGA:   2    -0.492079778188E+03   -0.94002E-01   -0.93891E-01   688   0.128E+00 0.123E-02
CGA:   3    -0.492106933996E+03   -0.27156E-01   -0.27033E-01   688   0.226E-01-0.443E-03
CGA:   4    -0.492111356061E+03   -0.44221E-02   -0.44205E-02   688   0.474E-02-0.135E-04
CGA:   5    -0.492112456936E+03   -0.11009E-02   -0.11010E-02   688   0.157E-02 0.388E-05
CGA:   6    -0.492112822930E+03   -0.36599E-03   -0.36602E-03   688   0.506E-03 0.106E-05
CGA:   7    -0.492112960396E+03   -0.13747E-03   -0.13746E-03   688   0.183E-03 0.102E-05
CGA:   8    -0.492113016370E+03   -0.55974E-04   -0.56060E-04   688   0.673E-04-0.198E-05
   4 F= -.49627584E+03 E0= -.49625361E+03  d E =-.272157E-01  mag=     0.4837
       N       E                     dE             d eps       ncg     rms          ort
SDA:   1    -0.491015147248E+03    0.10978E+01    0.00000E+00   688   0.270E+01 0.000E+00
CGA:   2    -0.491838165018E+03   -0.82302E+00   -0.82091E+00   688   0.127E+01 0.326E-01
CGA:   3    -0.492101578069E+03   -0.26341E+00   -0.26174E+00   688   0.287E+00-0.548E-02
CGA:   4    -0.492150802363E+03   -0.49224E-01   -0.49240E-01   688   0.588E-01-0.104E-03
CGA:   5    -0.492163378109E+03   -0.12576E-01   -0.12590E-01   688   0.182E-01 0.950E-04
CGA:   6    -0.492167862225E+03   -0.44841E-02   -0.44840E-02   688   0.531E-02-0.230E-06
CGA:   7    -0.492169368737E+03   -0.15065E-02   -0.15067E-02   688   0.202E-02-0.572E-05
CGA:   8    -0.492169921511E+03   -0.55277E-03   -0.55273E-03   688   0.853E-03 0.318E-05
CGA:   9    -0.492170148241E+03   -0.22673E-03   -0.22675E-03   688   0.330E-03-0.436E-05
CGA:  10    -0.492170244257E+03   -0.96016E-04   -0.95978E-04   688   0.115E-03 0.119E-05
   5 F= -.49633484E+03 E0= -.49631240E+03  d E =-.862118E-01  mag=     0.4948
       N       E                     dE             d eps       ncg     rms          ort
SDA:   1    -0.487428407724E+03    0.47417E+01    0.00000E+00   688   0.121E+02 0.000E+00
CGA:   2    -0.490464937056E+03   -0.30365E+01   -0.30434E+01   688   0.636E+01 0.195E+00
CGA:   3    -0.491813339242E+03   -0.13484E+01   -0.13404E+01   688   0.152E+01-0.409E-01
CGA:   4    -0.492088194092E+03   -0.27485E+00   -0.27060E+00   688   0.264E+00-0.243E-02
CGA:   5    -0.492146833389E+03   -0.58639E-01   -0.58670E-01   688   0.776E-01 0.250E-03
CGA:   6    -0.492166717115E+03   -0.19884E-01   -0.19884E-01   688   0.217E-01-0.373E-04
CGA:   7    -0.492172916001E+03   -0.61989E-02   -0.62000E-02   688   0.825E-02-0.245E-04
CGA:   8    -0.492175201568E+03   -0.22856E-02   -0.22854E-02   688   0.345E-02 0.822E-05
CGA:   9    -0.492176137377E+03   -0.93581E-03   -0.93593E-03   688   0.130E-02-0.848E-05
CGA:  10    -0.492176540678E+03   -0.40330E-03   -0.40317E-03   688   0.461E-03 0.269E-05
CGA:  11    -0.492176700518E+03   -0.15984E-03   -0.15999E-03   688   0.179E-03-0.168E-05
CGA:  12    -0.492176772833E+03   -0.72315E-04   -0.72534E-04   688   0.104E-03-0.157E-05
   6 F= -.49634211E+03 E0= -.49631901E+03  d E =-.934830E-01  mag=     0.5362
       N       E                     dE             d eps       ncg     rms          ort
SDA:   1    -0.491166182970E+03    0.10105E+01    0.00000E+00   688   0.237E+01 0.000E+00
CGA:   2    -0.491890424043E+03   -0.72424E+00   -0.72449E+00   688   0.138E+01-0.381E-02
CGA:   3    -0.492123310394E+03   -0.23289E+00   -0.23502E+00   688   0.275E+00-0.134E-02
CGA:   4    -0.492176607874E+03   -0.53297E-01   -0.53356E-01   688   0.450E-01 0.278E-04
CGA:   5    -0.492187542907E+03   -0.10935E-01   -0.10932E-01   688   0.142E-01-0.313E-04
CGA:   6    -0.492190978289E+03   -0.34354E-02   -0.34355E-02   688   0.441E-02 0.177E-05
CGA:   7    -0.492192200292E+03   -0.12220E-02   -0.12220E-02   688   0.160E-02-0.237E-05
CGA:   8    -0.492192677237E+03   -0.47695E-03   -0.47674E-03   688   0.561E-03 0.713E-05
CGA:   9    -0.492192852595E+03   -0.17536E-03   -0.17542E-03   688   0.201E-03-0.171E-05
CGA:  10    -0.492192915444E+03   -0.62849E-04   -0.62814E-04   688   0.649E-04 0.818E-06
   7 F= -.49635822E+03 E0= -.49633504E+03  d E =-.109598E+00  mag=     0.5471
       N       E                     dE             d eps       ncg     rms          ort
SDA:   1    -0.491882346366E+03    0.31051E+00    0.00000E+00   688   0.767E+00 0.000E+00
CGA:   2    -0.492144199054E+03   -0.26185E+00   -0.26145E+00   688   0.320E+00 0.373E-02
CGA:   3    -0.492208606713E+03   -0.64408E-01   -0.64266E-01   688   0.693E-01-0.256E-03
CGA:   4    -0.492221204674E+03   -0.12598E-01   -0.12607E-01   688   0.151E-01-0.383E-04
CGA:   5    -0.492224482821E+03   -0.32781E-02   -0.32804E-02   688   0.465E-02 0.182E-04
CGA:   6    -0.492225643116E+03   -0.11603E-02   -0.11603E-02   688   0.142E-02 0.242E-06
CGA:   7    -0.492226057962E+03   -0.41485E-03   -0.41491E-03   688   0.527E-03-0.249E-05
CGA:   8    -0.492226213486E+03   -0.15552E-03   -0.15551E-03   688   0.218E-03 0.301E-06
CGA:   9    -0.492226273274E+03   -0.59788E-04   -0.59791E-04   688   0.886E-04-0.102E-05
   8 F= -.49639159E+03 E0= -.49636843E+03  d E =-.333641E-01  mag=     0.5657
       N       E                     dE             d eps       ncg     rms          ort
SDA:   1    -0.489129512924E+03    0.30967E+01    0.00000E+00   688   0.763E+01 0.000E+00
CGA:   2    -0.491215935982E+03   -0.20864E+01   -0.20860E+01   688   0.426E+01 0.102E+00
CGA:   3    -0.492043395765E+03   -0.82746E+00   -0.82081E+00   688   0.905E+00-0.113E-01
CGA:   4    -0.492219203323E+03   -0.17581E+00   -0.17542E+00   688   0.158E+00-0.869E-03
CGA:   5    -0.492255952820E+03   -0.36749E-01   -0.36763E-01   688   0.474E-01 0.134E-03
CGA:   6    -0.492267998901E+03   -0.12046E-01   -0.12046E-01   688   0.139E-01-0.669E-05
CGA:   7    -0.492271998391E+03   -0.39995E-02   -0.39998E-02   688   0.529E-02-0.956E-05
CGA:   8    -0.492273485708E+03   -0.14873E-02   -0.14872E-02   688   0.209E-02 0.355E-05
CGA:   9    -0.492274081900E+03   -0.59619E-03   -0.59620E-03   688   0.754E-03-0.800E-06
CGA:  10    -0.492274317457E+03   -0.23556E-03   -0.23548E-03   688   0.273E-03 0.166E-05
CGA:  11    -0.492274401771E+03   -0.84315E-04   -0.84356E-04   688   0.115E-03-0.105E-05
   9 F= -.49643876E+03 E0= -.49641568E+03  d E =-.805368E-01  mag=     0.6008
       N       E                     dE             d eps       ncg     rms          ort
SDA:   1    -0.492234758059E+03    0.39559E-01    0.00000E+00   688   0.896E-01 0.000E+00
CGA:   2    -0.492266532609E+03   -0.31775E-01   -0.31760E-01   688   0.331E-01 0.109E-03
CGA:   3    -0.492273623203E+03   -0.70906E-02   -0.70871E-02   688   0.640E-02-0.170E-04
CGA:   4    -0.492274855697E+03   -0.12325E-02   -0.12320E-02   688   0.140E-02-0.626E-05
CGA:   5    -0.492275177301E+03   -0.32160E-03   -0.32173E-03   688   0.443E-03 0.311E-05
CGA:   6    -0.492275285205E+03   -0.10790E-03   -0.10790E-03   688   0.154E-03-0.459E-07
CGA:   7    -0.492275330471E+03   -0.45265E-04   -0.45274E-04   688   0.627E-04-0.300E-06
  10 F= -.49643952E+03 E0= -.49641648E+03  d E =-.812911E-01  mag=     0.6089
       N       E                     dE             d eps       ncg     rms          ort
SDA:   1    -0.492069931656E+03    0.20535E+00    0.00000E+00   688   0.499E+00 0.000E+00
CGA:   2    -0.492241084902E+03   -0.17115E+00   -0.17108E+00   688   0.192E+00 0.523E-03
CGA:   3    -0.492282233052E+03   -0.41148E-01   -0.41143E-01   688   0.411E-01-0.174E-04
CGA:   4    -0.492290058798E+03   -0.78257E-02   -0.78281E-02   688   0.959E-02-0.217E-04
CGA:   5    -0.492292089690E+03   -0.20309E-02   -0.20314E-02   688   0.274E-02 0.111E-04
CGA:   6    -0.492292806282E+03   -0.71659E-03   -0.71659E-03   688   0.920E-03-0.138E-06
CGA:   7    -0.492293093643E+03   -0.28736E-03   -0.28744E-03   688   0.369E-03-0.171E-05
CGA:   8    -0.492293208734E+03   -0.11509E-03   -0.11506E-03   688   0.157E-03 0.556E-06
CGA:   9    -0.492293255728E+03   -0.46994E-04   -0.47007E-04   688   0.664E-04-0.432E-06
  11 F= -.49645712E+03 E0= -.49643429E+03  d E =-.176060E-01  mag=     0.6210
       N       E                     dE             d eps       ncg     rms          ort
SDA:   1    -0.492085659083E+03    0.20755E+00    0.00000E+00   688   0.478E+00 0.000E+00
CGA:   2    -0.492249808337E+03   -0.16415E+00   -0.16409E+00   688   0.182E+00 0.460E-03
CGA:   3    -0.492289092635E+03   -0.39284E-01   -0.39280E-01   688   0.389E-01-0.120E-04
CGA:   4    -0.492296514464E+03   -0.74218E-02   -0.74240E-02   688   0.911E-02-0.215E-04
CGA:   5    -0.492298417340E+03   -0.19029E-02   -0.19034E-02   688   0.263E-02 0.108E-04
CGA:   6    -0.492299107121E+03   -0.68978E-03   -0.68978E-03   688   0.890E-03 0.120E-06
CGA:   7    -0.492299386792E+03   -0.27967E-03   -0.27977E-03   688   0.365E-03-0.209E-05
CGA:   8    -0.492299500471E+03   -0.11368E-03   -0.11363E-03   688   0.160E-03 0.988E-06
CGA:   9    -0.492299548815E+03   -0.48343E-04   -0.48365E-04   688   0.690E-04-0.685E-06
  12 F= -.49646306E+03 E0= -.49644046E+03  d E =-.235485E-01  mag=     0.6328
       N       E                     dE             d eps       ncg     rms          ort
SDA:   1    -0.492115790246E+03    0.18371E+00    0.00000E+00   688   0.434E+00 0.000E+00
CGA:   2    -0.492257363926E+03   -0.14157E+00   -0.14158E+00   688   0.179E+00-0.186E-03
CGA:   3    -0.492297129961E+03   -0.39766E-01   -0.39774E-01   688   0.364E-01-0.452E-06
CGA:   4    -0.492304019860E+03   -0.68899E-02   -0.68892E-02   688   0.726E-02-0.664E-05
CGA:   5    -0.492305712192E+03   -0.16923E-02   -0.16927E-02   688   0.221E-02 0.124E-04
CGA:   6    -0.492306237950E+03   -0.52576E-03   -0.52575E-03   688   0.717E-03-0.785E-06
CGA:   7    -0.492306447178E+03   -0.20923E-03   -0.20918E-03   688   0.277E-03 0.172E-05
CGA:   8    -0.492306533883E+03   -0.86705E-04   -0.86729E-04   688   0.113E-03-0.489E-06
  13 F= -.49647002E+03 E0= -.49644752E+03  d E =-.695978E-02  mag=     0.6290
       N       E                     dE             d eps       ncg     rms          ort
SDA:   1    -0.492306428502E+03    0.18676E-04    0.00000E+00   688   0.385E-03 0.000E+00
CGA:   2    -0.492306541505E+03   -0.11300E-03   -0.11301E-03   688   0.201E-03-0.351E-06
CGA:   3    -0.492306582264E+03   -0.40759E-04   -0.40722E-04   688   0.543E-04-0.552E-06
  14 F= -.49647007E+03 E0= -.49644758E+03  d E =-.700919E-02  mag=     0.6290
       N       E                     dE             d eps       ncg     rms          ort
SDA:   1    -0.492165534698E+03    0.14101E+00    0.00000E+00   688   0.326E+00 0.000E+00
CGA:   2    -0.492281062876E+03   -0.11553E+00   -0.11550E+00   688   0.123E+00 0.196E-03
CGA:   3    -0.492308033552E+03   -0.26971E-01   -0.26968E-01   688   0.240E-01-0.120E-05
CGA:   4    -0.492312624138E+03   -0.45906E-02   -0.45908E-02   688   0.553E-02-0.137E-04
CGA:   5    -0.492313863155E+03   -0.12390E-02   -0.12393E-02   688   0.161E-02 0.771E-05
CGA:   6    -0.492314282413E+03   -0.41926E-03   -0.41926E-03   688   0.577E-03-0.789E-06
CGA:   7    -0.492314459786E+03   -0.17737E-03   -0.17735E-03   688   0.241E-03 0.544E-06
CGA:   8    -0.492314531462E+03   -0.71676E-04   -0.71652E-04   688   0.106E-03 0.721E-06
  15 F= -.49647819E+03 E0= -.49645566E+03  d E =-.811843E-02  mag=     0.6260
       N       E                     dE             d eps       ncg     rms          ort
SDA:   1    -0.492213090263E+03    0.10137E+00    0.00000E+00   688   0.226E+00 0.000E+00
CGA:   2    -0.492293295007E+03   -0.80205E-01   -0.80187E-01   688   0.849E-01 0.103E-03
CGA:   3    -0.492312030358E+03   -0.18735E-01   -0.18734E-01   688   0.161E-01 0.643E-05
CGA:   4    -0.492315178933E+03   -0.31486E-02   -0.31484E-02   688   0.365E-02-0.967E-05
CGA:   5    -0.492316023599E+03   -0.84467E-03   -0.84484E-03   688   0.112E-02 0.602E-05
CGA:   6    -0.492316315381E+03   -0.29178E-03   -0.29178E-03   688   0.425E-03-0.782E-06
CGA:   7    -0.492316443100E+03   -0.12772E-03   -0.12769E-03   688   0.182E-03 0.709E-06
CGA:   8    -0.492316497635E+03   -0.54535E-04   -0.54518E-04   688   0.790E-04 0.480E-06
  16 F= -.49648028E+03 E0= -.49645769E+03  d E =-.102025E-01  mag=     0.6217
       N       E                     dE             d eps       ncg     rms          ort
SDA:   1    -0.492229565682E+03    0.86877E-01    0.00000E+00   688   0.204E+00 0.000E+00
CGA:   2    -0.492301243069E+03   -0.71677E-01   -0.71661E-01   688   0.743E-01 0.116E-03
CGA:   3    -0.492317906523E+03   -0.16663E-01   -0.16661E-01   688   0.136E-01-0.832E-05
CGA:   4    -0.492320623968E+03   -0.27174E-02   -0.27173E-02   688   0.326E-02-0.104E-04
CGA:   5    -0.492321376831E+03   -0.75286E-03   -0.75301E-03   688   0.928E-03 0.459E-05
CGA:   6    -0.492321617344E+03   -0.24051E-03   -0.24051E-03   688   0.363E-03-0.771E-06
CGA:   7    -0.492321719458E+03   -0.10211E-03   -0.10213E-03   688   0.151E-03-0.601E-06
CGA:   8    -0.492321764733E+03   -0.45274E-04   -0.45272E-04   688   0.578E-04 0.451E-07
  17 F= -.49648600E+03 E0= -.49646339E+03  d E =-.571879E-02  mag=     0.6275
       N       E                     dE             d eps       ncg     rms          ort
SDA:   1    -0.492286525449E+03    0.35194E-01    0.00000E+00   688   0.796E-01 0.000E+00
CGA:   2    -0.492314508067E+03   -0.27983E-01   -0.27979E-01   688   0.289E-01 0.280E-04
CGA:   3    -0.492320989376E+03   -0.64813E-02   -0.64809E-02   688   0.523E-02-0.407E-06
CGA:   4    -0.492322051501E+03   -0.10621E-02   -0.10619E-02   688   0.124E-02-0.431E-05
CGA:   5    -0.492322343841E+03   -0.29234E-03   -0.29237E-03   688   0.373E-03 0.908E-06
CGA:   6    -0.492322438210E+03   -0.94369E-04   -0.94376E-04   688   0.156E-03 0.571E-06
  18 F= -.49648694E+03 E0= -.49646433E+03  d E =-.665915E-02  mag=     0.6331
       N       E                     dE             d eps       ncg     rms          ort
SDA:   1    -0.492239949224E+03    0.82395E-01    0.00000E+00   688   0.196E+00 0.000E+00
CGA:   2    -0.492305779271E+03   -0.65830E-01   -0.65827E-01   688   0.727E-01 0.208E-04
CGA:   3    -0.492322100998E+03   -0.16322E-01   -0.16320E-01   688   0.144E-01-0.246E-04
CGA:   4    -0.492324832148E+03   -0.27311E-02   -0.27310E-02   688   0.333E-02 0.852E-06
CGA:   5    -0.492325578572E+03   -0.74642E-03   -0.74660E-03   688   0.983E-03 0.505E-05
CGA:   6    -0.492325807955E+03   -0.22938E-03   -0.22941E-03   688   0.362E-03 0.989E-06
CGA:   7    -0.492325907759E+03   -0.99804E-04   -0.99811E-04   688   0.138E-03-0.428E-06
  19 F= -.49649057E+03 E0= -.49646796E+03  d E =-.362981E-02  mag=     0.6374
       N       E                     dE             d eps       ncg     rms          ort
SDA:   1    -0.492321140016E+03    0.46679E-02    0.00000E+00   688   0.112E-01 0.000E+00
CGA:   2    -0.492324892415E+03   -0.37524E-02   -0.37519E-02   688   0.419E-02 0.662E-05
CGA:   3    -0.492325807909E+03   -0.91549E-03   -0.91525E-03   688   0.977E-03-0.509E-05
CGA:   4    -0.492325974430E+03   -0.16652E-03   -0.16664E-03   688   0.210E-03 0.133E-05
CGA:   5    -0.492326028372E+03   -0.53942E-04   -0.53945E-04   688   0.624E-04 0.954E-06
  20 F= -.49649072E+03 E0= -.49646810E+03  d E =-.378799E-02  mag=     0.6399
       N       E                     dE             d eps       ncg     rms          ort
SDA:   1    -0.492269751060E+03    0.56223E-01    0.00000E+00   688   0.134E+00 0.000E+00
CGA:   2    -0.492317008051E+03   -0.47257E-01   -0.47249E-01   688   0.460E-01 0.499E-04
CGA:   3    -0.492327247456E+03   -0.10239E-01   -0.10238E-01   688   0.863E-02-0.103E-04
CGA:   4    -0.492328979376E+03   -0.17319E-02   -0.17318E-02   688   0.208E-02-0.385E-05
CGA:   5    -0.492329455871E+03   -0.47650E-03   -0.47657E-03   688   0.640E-03 0.242E-05
CGA:   6    -0.492329618560E+03   -0.16269E-03   -0.16269E-03   688   0.261E-03 0.709E-06
CGA:   7    -0.492329691541E+03   -0.72982E-04   -0.72992E-04   688   0.112E-03-0.478E-06
  21 F= -.49649414E+03 E0= -.49647147E+03  d E =-.341633E-02  mag=     0.6424
       N       E                     dE             d eps       ncg     rms          ort
SDA:   1    -0.492247698181E+03    0.81920E-01    0.00000E+00   688   0.187E+00 0.000E+00
CGA:   2    -0.492313676928E+03   -0.65979E-01   -0.65966E-01   688   0.638E-01 0.836E-04
CGA:   3    -0.492327958470E+03   -0.14282E-01   -0.14280E-01   688   0.118E-01-0.149E-04
CGA:   4    -0.492330273742E+03   -0.23153E-02   -0.23151E-02   688   0.299E-02-0.546E-05
CGA:   5    -0.492330954073E+03   -0.68033E-03   -0.68044E-03   688   0.890E-03 0.364E-05
CGA:   6    -0.492331186878E+03   -0.23281E-03   -0.23280E-03   688   0.353E-03 0.608E-06
CGA:   7    -0.492331288316E+03   -0.10144E-03   -0.10145E-03   688   0.156E-03-0.555E-06
CGA:   8    -0.492331335802E+03   -0.47486E-04   -0.47506E-04   688   0.628E-04-0.441E-06
  22 F= -.49649548E+03 E0= -.49647274E+03  d E =-.476004E-02  mag=     0.6443
       N       E                     dE             d eps       ncg     rms          ort
SDA:   1    -0.492267405505E+03    0.63883E-01    0.00000E+00   688   0.153E+00 0.000E+00
CGA:   2    -0.492320065686E+03   -0.52660E-01   -0.52652E-01   688   0.536E-01 0.537E-04
CGA:   3    -0.492331929693E+03   -0.11864E-01   -0.11863E-01   688   0.101E-01-0.163E-05
CGA:   4    -0.492334010269E+03   -0.20806E-02   -0.20804E-02   688   0.223E-02-0.542E-05
CGA:   5    -0.492334540446E+03   -0.53018E-03   -0.53024E-03   688   0.649E-03 0.280E-05
CGA:   6    -0.492334709248E+03   -0.16880E-03   -0.16880E-03   688   0.248E-03 0.666E-07
CGA:   7    -0.492334781226E+03   -0.71978E-04   -0.71965E-04   688   0.109E-03 0.462E-06
  23 F= -.49649860E+03 E0= -.49647582E+03  d E =-.311946E-02  mag=     0.6496
       N       E                     dE             d eps       ncg     rms          ort
SDA:   1    -0.492256489904E+03    0.78219E-01    0.00000E+00   688   0.181E+00 0.000E+00
CGA:   2    -0.492318803348E+03   -0.62313E-01   -0.62303E-01   688   0.634E-01 0.726E-04
CGA:   3    -0.492332827638E+03   -0.14024E-01   -0.14023E-01   688   0.123E-01-0.307E-05
CGA:   4    -0.492335256901E+03   -0.24293E-02   -0.24292E-02   688   0.298E-02-0.564E-05
CGA:   5    -0.492335924790E+03   -0.66789E-03   -0.66798E-03   688   0.911E-03 0.249E-05
CGA:   6    -0.492336146869E+03   -0.22208E-03   -0.22209E-03   688   0.349E-03 0.821E-06
CGA:   7    -0.492336246561E+03   -0.99692E-04   -0.99691E-04   688   0.153E-03 0.691E-07
  24 F= -.49649971E+03 E0= -.49647691E+03  d E =-.423089E-02  mag=     0.6562
       N       E                     dE             d eps       ncg     rms          ort
SDA:   1    -0.492274607953E+03    0.61539E-01    0.00000E+00   688   0.148E+00 0.000E+00
CGA:   2    -0.492323165701E+03   -0.48558E-01   -0.48557E-01   688   0.543E-01-0.213E-05
CGA:   3    -0.492335371751E+03   -0.12206E-01   -0.12206E-01   688   0.110E-01-0.542E-05
CGA:   4    -0.492337505179E+03   -0.21334E-02   -0.21336E-02   688   0.240E-02 0.292E-05
CGA:   5    -0.492338074357E+03   -0.56918E-03   -0.56926E-03   688   0.673E-03 0.356E-05
CGA:   6    -0.492338243185E+03   -0.16883E-03   -0.16884E-03   688   0.252E-03 0.140E-05
CGA:   7    -0.492338315736E+03   -0.72552E-04   -0.72548E-04   688   0.113E-03 0.137E-06
  25 F= -.49650166E+03 E0= -.49647886E+03  d E =-.194446E-02  mag=     0.6600
       N       E                     dE             d eps       ncg     rms          ort
SDA:   1    -0.492337548946E+03    0.69424E-03    0.00000E+00   688   0.198E-02 0.000E+00
CGA:   2    -0.492338174250E+03   -0.62530E-03   -0.62521E-03   688   0.849E-03 0.183E-05
CGA:   3    -0.492338337707E+03   -0.16346E-03   -0.16335E-03   688   0.251E-03-0.156E-05
CGA:   4    -0.492338380076E+03   -0.42369E-04   -0.42403E-04   688   0.465E-04 0.369E-06
  26 F= -.49650171E+03 E0= -.49647890E+03  d E =-.199466E-02  mag=     0.6624
       N       E                     dE             d eps       ncg     rms          ort
SDA:   1    -0.492323248306E+03    0.15089E-01    0.00000E+00   688   0.372E-01 0.000E+00
CGA:   2    -0.492335711043E+03   -0.12463E-01   -0.12462E-01   688   0.130E-01 0.587E-05
CGA:   3    -0.492338719564E+03   -0.30085E-02   -0.30085E-02   688   0.262E-02 0.194E-05
CGA:   4    -0.492339257153E+03   -0.53759E-03   -0.53747E-03   688   0.654E-03-0.242E-05
CGA:   5    -0.492339398764E+03   -0.14161E-03   -0.14165E-03   688   0.209E-03 0.102E-05
CGA:   6    -0.492339450081E+03   -0.51317E-04   -0.51323E-04   688   0.864E-04 0.544E-06
  27 F= -.49650280E+03 E0= -.49648000E+03  d E =-.109478E-02  mag=     0.6651
       N       E                     dE             d eps       ncg     rms          ort
SDA:   1    -0.492323578521E+03    0.15820E-01    0.00000E+00   688   0.373E-01 0.000E+00
CGA:   2    -0.492336036340E+03   -0.12458E-01   -0.12457E-01   688   0.131E-01 0.658E-05
CGA:   3    -0.492339057512E+03   -0.30212E-02   -0.30212E-02   688   0.247E-02 0.762E-06
CGA:   4    -0.492339592276E+03   -0.53476E-03   -0.53471E-03   688   0.676E-03-0.129E-05
CGA:   5    -0.492339735138E+03   -0.14286E-03   -0.14288E-03   688   0.225E-03 0.390E-06
CGA:   6    -0.492339790563E+03   -0.55425E-04   -0.55432E-04   688   0.911E-04 0.696E-06
  28 F= -.49650317E+03 E0= -.49648037E+03  d E =-.145808E-02  mag=     0.6672
