 vasp.5.4.4.18Apr17-6-g9f103f2a35 (build Nov  8 2022 18:58:45) complex           
 executed on             LinuxGNU date 2023.04.12  19:57:40
 running on   48 total cores
 distrk:  each k-point on   48 cores,    1 groups
 distr:  one band on NCORES_PER_BAND=  12 cores,    4 groups


--------------------------------------------------------------------------------------------------------


 INCAR:
 POTCAR:    PAW_PBE C 08Apr2002                   
 POTCAR:    PAW_PBE N 08Apr2002                   
 POTCAR:    PAW_PBE Ge_d 03Jul2007                
 POTCAR:    PAW_PBE C 08Apr2002                   
 POTCAR:    PAW_PBE O 08Apr2002                   
 POTCAR:    PAW_PBE C 08Apr2002                   
   SHA256 =  253f7b50bb8d59471dbedb8285d89021f4a42ed1a2c5d38a03a736e69125dd95 C/
   COPYR  = (c) Copyright 08Apr2002 Georg Kresse                                
   COPYR  = This file is part of the software VASP. Any use, copying, and all ot
   COPYR  = If you do not have a valid VASP license, you may not use, copy or di
   VRHFIN =C: s2p2                                                              
   LEXCH  = PE                                                                  
   EATOM  =   147.1560 eV,   10.8157 Ry                                         
                                                                                
   TITEL  = PAW_PBE C 08Apr2002                                                 
   LULTRA =        F    use ultrasoft PP ?                                      
   IUNSCR =        1    unscreen: 0-lin 1-nonlin 2-no                           
   RPACOR =    1.200    partial core radius                                     
   POMASS =   12.011; ZVAL   =    4.000    mass and valenz                      
   RCORE  =    1.500    outmost cutoff radius                                   
   RWIGS  =    1.630; RWIGS  =    0.863    wigner-seitz radius (au A)           
   ENMAX  =  400.000; ENMIN  =  300.000 eV                                      
   ICORE  =        2    local potential                                         
   LCOR   =        T    correct aug charges                                     
   LPAW   =        T    paw PP                                                  
   EAUG   =  644.873                                                            
   DEXC   =    0.000                                                            
   RMAX   =    1.529    core radius for proj-oper                               
   RAUG   =    1.300    factor for augmentation sphere                          
   RDEP   =    1.501    radius for radial grids                                 
   RDEPT  =    1.300    core radius for aug-charge                              
                                                                                
   Atomic configuration                                                         
    4 entries                                                                   
     n  l   j            E        occ.                                          
     1  0  0.50      -273.3789   2.0000                                         
     2  0  0.50       -13.7508   2.0000                                         
     2  1  0.50        -5.2854   2.0000                                         
     3  2  1.50        -5.4423   0.0000                                         
   Description                                                                  
     l       E           TYP  RCUT    TYP  RCUT                                 
     0    -13.7508458     23  1.200                                             
     0     -8.2022199     23  1.200                                             
     1     -5.2854383     23  1.500                                             
     1     34.0145650     23  1.500                                             
     2     -5.4423304      7  1.500                                             
  local pseudopotential read in
  partial core-charges read in
  partial kinetic energy density read in
  atomic valenz-charges read in
  non local Contribution for L=           0  read in
    real space projection operators read in
  non local Contribution for L=           0  read in
    real space projection operators read in
  non local Contribution for L=           1  read in
    real space projection operators read in
  non local Contribution for L=           1  read in
    real space projection operators read in
    PAW grid and wavefunctions read in

   number of l-projection  operators is LMAX  =           4
   number of lm-projection operators is LMMAX =           8

 POTCAR:    PAW_PBE N 08Apr2002                   
   SHA256 =  e053789ff3a61a86a1b75d8a110fcc91f86041011e7b0817c7c99e4e8a6349d7 N/
   COPYR  = (c) Copyright 08Apr2002 Georg Kresse                                
   COPYR  = This file is part of the software VASP. Any use, copying, and all ot
   COPYR  = If you do not have a valid VASP license, you may not use, copy or di
   VRHFIN =N: s2p3                                                              
   LEXCH  = PE                                                                  
   EATOM  =   264.5486 eV,   19.4438 Ry                                         
                                                                                
   TITEL  = PAW_PBE N 08Apr2002                                                 
   LULTRA =        F    use ultrasoft PP ?                                      
   IUNSCR =        1    unscreen: 0-lin 1-nonlin 2-no                           
   RPACOR =    1.200    partial core radius                                     
   POMASS =   14.001; ZVAL   =    5.000    mass and valenz                      
   RCORE  =    1.500    outmost cutoff radius                                   
   RWIGS  =    1.400; RWIGS  =    0.741    wigner-seitz radius (au A)           
   ENMAX  =  400.000; ENMIN  =  300.000 eV                                      
   ICORE  =        2    local potential                                         
   LCOR   =        T    correct aug charges                                     
   LPAW   =        T    paw PP                                                  
   EAUG   =  627.112                                                            
   DEXC   =    0.000                                                            
   RMAX   =    1.529    core radius for proj-oper                               
   RAUG   =    1.300    factor for augmentation sphere                          
   RDEP   =    1.514    radius for radial grids                                 
   RDEPT  =    1.338    core radius for aug-charge                              
                                                                                
   Atomic configuration                                                         
    4 entries                                                                   
     n  l   j            E        occ.                                          
     1  0  0.50      -384.7179   2.0000                                         
     2  0  0.50       -18.5828   2.0000                                         
     2  1  0.50        -7.0898   3.0000                                         
     3  2  1.50        -6.8029   0.0000                                         
   Description                                                                  
     l       E           TYP  RCUT    TYP  RCUT                                 
     0    -18.5828119     23  1.200                                             
     0    -13.5018863     23  1.200                                             
     1     -7.0897853     23  1.500                                             
     1      9.5240782     23  1.500                                             
     2     -6.8029130      7  1.500                                             
  local pseudopotential read in
  partial core-charges read in
  partial kinetic energy density read in
  atomic valenz-charges read in
  non local Contribution for L=           0  read in
    real space projection operators read in
  non local Contribution for L=           0  read in
    real space projection operators read in
  non local Contribution for L=           1  read in
    real space projection operators read in
  non local Contribution for L=           1  read in
    real space projection operators read in
    PAW grid and wavefunctions read in

   number of l-projection  operators is LMAX  =           4
   number of lm-projection operators is LMMAX =           8

 POTCAR:    PAW_PBE Ge_d 03Jul2007                
   SHA256 =  944b26c40d2d7c4f4eb1ff3a2e8dbfdd7129146276cd341854bfd5c0e57780ed Ge
   COPYR  = (c) Copyright 03Jul2007 Georg Kresse                                
   COPYR  = This file is part of the software VASP. Any use, copying, and all ot
   COPYR  = If you do not have a valid VASP license, you may not use, copy or di
   VRHFIN =Ge: 3d4s4p                                                           
   LEXCH  = PE                                                                  
   EATOM  =  2596.2402 eV,  190.8183 Ry                                         
                                                                                
   TITEL  = PAW_PBE Ge_d 03Jul2007                                              
   LULTRA =        F    use ultrasoft PP ?                                      
   IUNSCR =        1    unscreen: 0-lin 1-nonlin 2-no                           
   RPACOR =    2.000    partial core radius                                     
   POMASS =   72.610; ZVAL   =   14.000    mass and valenz                      
   RCORE  =    2.300    outmost cutoff radius                                   
   RWIGS  =    2.300; RWIGS  =    1.217    wigner-seitz radius (au A)           
   ENMAX  =  310.294; ENMIN  =  232.720 eV                                      
   ICORE  =        3    local potential                                         
   LCOR   =        T    correct aug charges                                     
   LPAW   =        T    paw PP                                                  
   EAUG   =  531.356                                                            
   DEXC   =    0.000                                                            
   RMAX   =    2.342    core radius for proj-oper                               
   RAUG   =    1.300    factor for augmentation sphere                          
   RDEP   =    2.318    radius for radial grids                                 
   RDEPT  =    1.783    core radius for aug-charge                              
                                                                                
   Atomic configuration                                                         
    9 entries                                                                   
     n  l   j            E        occ.                                          
     1  0  0.50    -10959.8463   2.0000                                         
     2  0  0.50     -1371.6056   2.0000                                         
     2  1  1.50     -1198.4791   6.0000                                         
     3  0  0.50      -168.4733   2.0000                                         
     3  1  1.50      -115.6019   6.0000                                         
     3  2  2.50       -29.3106  10.0000                                         
     4  0  0.50       -11.7309   2.0000                                         
     4  1  0.50        -3.8952   2.0000                                         
     4  3  2.50        -4.0817   0.0000                                         
   Description                                                                  
     l       E           TYP  RCUT    TYP  RCUT                                 
     2    -29.3105938     23  2.200                                             
     2    -13.6058260     23  2.200                                             
     0    -11.7309493     23  2.300                                             
     0     -7.4578696     23  2.300                                             
     1     -3.8952261     23  2.300                                             
     1      6.1178114     23  2.300                                             
     3     -1.3605826     23  2.300                                             
  local pseudopotential read in
  partial core-charges read in
  partial kinetic energy density read in
  atomic valenz-charges read in
  non local Contribution for L=           2  read in
    real space projection operators read in
  non local Contribution for L=           2  read in
    real space projection operators read in
  non local Contribution for L=           0  read in
    real space projection operators read in
  non local Contribution for L=           0  read in
    real space projection operators read in
  non local Contribution for L=           1  read in
    real space projection operators read in
  non local Contribution for L=           1  read in
    real space projection operators read in
    PAW grid and wavefunctions read in

   number of l-projection  operators is LMAX  =           6
   number of lm-projection operators is LMMAX =          18

 POTCAR:    PAW_PBE C 08Apr2002                   
   SHA256 =  253f7b50bb8d59471dbedb8285d89021f4a42ed1a2c5d38a03a736e69125dd95 C/
   COPYR  = (c) Copyright 08Apr2002 Georg Kresse                                
   COPYR  = This file is part of the software VASP. Any use, copying, and all ot
   COPYR  = If you do not have a valid VASP license, you may not use, copy or di
   VRHFIN =C: s2p2                                                              
   LEXCH  = PE                                                                  
   EATOM  =   147.1560 eV,   10.8157 Ry                                         
                                                                                
   TITEL  = PAW_PBE C 08Apr2002                                                 
   LULTRA =        F    use ultrasoft PP ?                                      
   IUNSCR =        1    unscreen: 0-lin 1-nonlin 2-no                           
   RPACOR =    1.200    partial core radius                                     
   POMASS =   12.011; ZVAL   =    4.000    mass and valenz                      
   RCORE  =    1.500    outmost cutoff radius                                   
   RWIGS  =    1.630; RWIGS  =    0.863    wigner-seitz radius (au A)           
   ENMAX  =  400.000; ENMIN  =  300.000 eV                                      
   ICORE  =        2    local potential                                         
   LCOR   =        T    correct aug charges                                     
   LPAW   =        T    paw PP                                                  
   EAUG   =  644.873                                                            
   DEXC   =    0.000                                                            
   RMAX   =    1.529    core radius for proj-oper                               
   RAUG   =    1.300    factor for augmentation sphere                          
   RDEP   =    1.501    radius for radial grids                                 
   RDEPT  =    1.300    core radius for aug-charge                              
                                                                                
   Atomic configuration                                                         
    4 entries                                                                   
     n  l   j            E        occ.                                          
     1  0  0.50      -273.3789   2.0000                                         
     2  0  0.50       -13.7508   2.0000                                         
     2  1  0.50        -5.2854   2.0000                                         
     3  2  1.50        -5.4423   0.0000                                         
   Description                                                                  
     l       E           TYP  RCUT    TYP  RCUT                                 
     0    -13.7508458     23  1.200                                             
     0     -8.2022199     23  1.200                                             
     1     -5.2854383     23  1.500                                             
     1     34.0145650     23  1.500                                             
     2     -5.4423304      7  1.500                                             
  local pseudopotential read in
  partial core-charges read in
  partial kinetic energy density read in
  atomic valenz-charges read in
  non local Contribution for L=           0  read in
    real space projection operators read in
  non local Contribution for L=           0  read in
    real space projection operators read in
  non local Contribution for L=           1  read in
    real space projection operators read in
  non local Contribution for L=           1  read in
    real space projection operators read in
    PAW grid and wavefunctions read in

   number of l-projection  operators is LMAX  =           4
   number of lm-projection operators is LMMAX =           8

 POTCAR:    PAW_PBE O 08Apr2002                   
   SHA256 =  818f92134a0a090dccd8ba1447fa70422a3b330e708bb4f08108d8ae51209ddf O/
   COPYR  = (c) Copyright 08Apr2002 Georg Kresse                                
   COPYR  = This file is part of the software VASP. Any use, copying, and all ot
   COPYR  = If you do not have a valid VASP license, you may not use, copy or di
   VRHFIN =O: s2p4                                                              
   LEXCH  = PE                                                                  
   EATOM  =   432.3788 eV,   31.7789 Ry                                         
                                                                                
   TITEL  = PAW_PBE O 08Apr2002                                                 
   LULTRA =        F    use ultrasoft PP ?                                      
   IUNSCR =        1    unscreen: 0-lin 1-nonlin 2-no                           
   RPACOR =    1.200    partial core radius                                     
   POMASS =   16.000; ZVAL   =    6.000    mass and valenz                      
   RCORE  =    1.520    outmost cutoff radius                                   
   RWIGS  =    1.550; RWIGS  =    0.820    wigner-seitz radius (au A)           
   ENMAX  =  400.000; ENMIN  =  300.000 eV                                      
   ICORE  =        2    local potential                                         
   LCOR   =        T    correct aug charges                                     
   LPAW   =        T    paw PP                                                  
   EAUG   =  605.392                                                            
   DEXC   =    0.000                                                            
   RMAX   =    1.553    core radius for proj-oper                               
   RAUG   =    1.300    factor for augmentation sphere                          
   RDEP   =    1.550    radius for radial grids                                 
   RDEPT  =    1.329    core radius for aug-charge                              
                                                                                
   Atomic configuration                                                         
    4 entries                                                                   
     n  l   j            E        occ.                                          
     1  0  0.50      -514.6923   2.0000                                         
     2  0  0.50       -23.9615   2.0000                                         
     2  1  0.50        -9.0305   4.0000                                         
     3  2  1.50        -9.5241   0.0000                                         
   Description                                                                  
     l       E           TYP  RCUT    TYP  RCUT                                 
     0    -23.9615318     23  1.200                                             
     0     -9.5240782     23  1.200                                             
     1     -9.0304911     23  1.520                                             
     1      8.1634956     23  1.520                                             
     2     -9.5240782      7  1.500                                             
  local pseudopotential read in
  partial core-charges read in
  partial kinetic energy density read in
  kinetic energy density of atom read in
  atomic valenz-charges read in
  non local Contribution for L=           0  read in
    real space projection operators read in
  non local Contribution for L=           0  read in
    real space projection operators read in
  non local Contribution for L=           1  read in
    real space projection operators read in
  non local Contribution for L=           1  read in
    real space projection operators read in
    PAW grid and wavefunctions read in

   number of l-projection  operators is LMAX  =           4
   number of lm-projection operators is LMMAX =           8

 Optimization of the real space projectors (new method)

 maximal supplied QI-value         = 25.13
 optimisation between [QCUT,QGAM] = [ 10.56, 21.36] = [ 31.20,127.80] Ry 
 Optimized for a Real-space Cutoff    1.24 Angstroem

   l    n(q)    QCUT    max X(q) W(low)/X(q) W(high)/X(q)  e(spline) 
   0      8    10.556   115.676    0.42E-03    0.71E-03    0.20E-06
   0      8    10.556    87.132    0.41E-03    0.71E-03    0.20E-06
   1      7    10.556     4.429    0.22E-03    0.39E-03    0.12E-06
   1      7    10.556     2.733    0.16E-03    0.27E-03    0.14E-06
 Optimization of the real space projectors (new method)

 maximal supplied QI-value         = 25.13
 optimisation between [QCUT,QGAM] = [ 10.56, 21.36] = [ 31.20,127.80] Ry 
 Optimized for a Real-space Cutoff    1.24 Angstroem

   l    n(q)    QCUT    max X(q) W(low)/X(q) W(high)/X(q)  e(spline) 
   0      8    10.556    79.467    0.40E-03    0.66E-03    0.17E-06
   0      8    10.556    66.151    0.40E-03    0.66E-03    0.17E-06
   1      7    10.556    12.181    0.19E-03    0.18E-02    0.13E-05
   1      7    10.556     8.434    0.21E-03    0.18E-02    0.13E-05
 Optimization of the real space projectors (new method)

 maximal supplied QI-value         = 16.25
 optimisation between [QCUT,QGAM] = [ 10.73, 21.45] = [ 32.22,128.87] Ry 
 Optimized for a Real-space Cutoff    1.40 Angstroem

   l    n(q)    QCUT    max X(q) W(low)/X(q) W(high)/X(q)  e(spline) 
   2      8    10.726     8.936    0.24E-03    0.48E-03    0.17E-06
   2      8    10.726     8.183    0.29E-03    0.63E-03    0.25E-06
   0      9    10.726    62.777    0.12E-03    0.98E-05    0.77E-07
   0      9    10.726    50.556    0.12E-03    0.95E-05    0.75E-07
   1      8    10.726    38.422    0.54E-04    0.12E-03    0.11E-06
   1      8    10.726    22.623    0.50E-04    0.11E-03    0.10E-06
 Optimization of the real space projectors (new method)

 maximal supplied QI-value         = 25.13
 optimisation between [QCUT,QGAM] = [ 10.56, 21.36] = [ 31.20,127.80] Ry 
 Optimized for a Real-space Cutoff    1.24 Angstroem

   l    n(q)    QCUT    max X(q) W(low)/X(q) W(high)/X(q)  e(spline) 
   0      8    10.556   115.676    0.42E-03    0.71E-03    0.20E-06
   0      8    10.556    87.132    0.41E-03    0.71E-03    0.20E-06
   1      7    10.556     4.429    0.22E-03    0.39E-03    0.12E-06
   1      7    10.556     2.733    0.16E-03    0.27E-03    0.14E-06
 Optimization of the real space projectors (new method)

 maximal supplied QI-value         = 24.76
 optimisation between [QCUT,QGAM] = [ 10.64, 21.29] = [ 31.73,126.92] Ry 
 Optimized for a Real-space Cutoff    1.24 Angstroem

   l    n(q)    QCUT    max X(q) W(low)/X(q) W(high)/X(q)  e(spline) 
   0      8    10.645    20.381    0.39E-03    0.65E-03    0.15E-06
   0      8    10.645    15.268    0.42E-03    0.70E-03    0.17E-06
   1      7    10.645     5.964    0.38E-03    0.66E-03    0.17E-06
   1      7    10.645     5.382    0.31E-03    0.55E-03    0.16E-06
  PAW_PBE C 08Apr2002                   :
 energy of atom  1       EATOM= -147.1560
 kinetic energy error for atom=    0.0132 (will be added to EATOM!!)
  PAW_PBE N 08Apr2002                   :
 energy of atom  2       EATOM= -264.5486
 kinetic energy error for atom=    0.0298 (will be added to EATOM!!)
  PAW_PBE Ge_d 03Jul2007                :
 energy of atom  3       EATOM=-2596.2402
 kinetic energy error for atom=    0.0090 (will be added to EATOM!!)
  PAW_PBE C 08Apr2002                   :
 energy of atom  4       EATOM= -147.1560
 kinetic energy error for atom=    0.0132 (will be added to EATOM!!)
  PAW_PBE O 08Apr2002                   :
 energy of atom  5       EATOM= -432.3788
 kinetic energy error for atom=    0.0458 (will be added to EATOM!!)


 POSCAR: POSCAR-c3n4                             
  positions in cartesian coordinates
  No initial velocities read in
 exchange correlation table for  LEXCH =        8
   RHO(1)=    0.500       N(1)  =     2000
   RHO(2)=  100.500       N(2)  =     4000



--------------------------------------------------------------------------------------------------------


 ion  position               nearest neighbor table
   1  0.106  0.214  0.444-  26 1.34  46 1.34  25 1.41
   2  0.288  0.399  0.451-  29 1.32  35 1.39  25 1.43
   3  0.104  0.392  0.445-  44 1.32  39 1.38  25 1.43
   4  0.447  0.064  0.524-  30 1.32  27 1.34  48 1.41
   5  0.453  0.401  0.430-  28 1.33  29 1.34  56 1.43
   6  0.112  0.053  0.467-  26 1.32  31 1.33  32 1.40
   7  0.096  0.712  0.502-  54 1.33  34 1.36  33 1.40
   8  0.284  0.890  0.519-  27 1.34  37 1.35  33 1.42
   9  0.109  0.895  0.516-  31 1.33  52 1.34  33 1.43
  10  0.448  0.548  0.520-  38 1.32  56 1.35  35 1.36
  11  0.445  0.885  0.507-  37 1.34  36 1.34  48 1.38
  12  0.087  0.542  0.499-  34 1.32  40 1.35  39 1.36
  13  0.616  0.223  0.491-  42 1.35  30 1.35  41 1.40
  14  0.780  0.390  0.418-  45 1.35  51 1.36  41 1.40
  15  0.610  0.394  0.453-  28 1.34  55 1.34  41 1.45
  16  0.940  0.052  0.479-  46 1.32  43 1.33  32 1.40
  17  0.941  0.387  0.412-  45 1.32  44 1.34  40 1.42
  18  0.623  0.066  0.530-  42 1.33  47 1.34  48 1.41
  19  0.613  0.711  0.549-  50 1.33  38 1.37  49 1.41
  20  0.790  0.897  0.541-  43 1.33  53 1.34  49 1.45
  21  0.609  0.892  0.539-  47 1.34  36 1.35  49 1.44
  22  0.938  0.563  0.438-  51 1.31  54 1.35  40 1.42
  23  0.954  0.902  0.552-  52 1.34  53 1.34  32 1.40
  24  0.621  0.555  0.508-  55 1.32  50 1.33  56 1.41
  25  0.167  0.335  0.443-   1 1.41   3 1.43   2 1.43
  26  0.165  0.161  0.439-   6 1.32   1 1.34
  27  0.336  0.002  0.540-   8 1.34   4 1.34
  28  0.512  0.352  0.410-   5 1.33  15 1.34
  29  0.345  0.361  0.408-   2 1.32   5 1.34
  30  0.506  0.177  0.511-   4 1.32  13 1.35
  31  0.159  0.988  0.464-   9 1.33   6 1.33
  32  0.002  0.002  0.501-  16 1.40  23 1.40   6 1.40
  33  0.165  0.831  0.518-   7 1.40   8 1.42   9 1.43
  34  0.134  0.645  0.536-  12 1.32   7 1.36
  35  0.334  0.491  0.509-  10 1.36   2 1.39  57 2.06
  36  0.503  0.831  0.508-  11 1.34  21 1.35
  37  0.333  0.829  0.497-  11 1.34   8 1.35
  38  0.499  0.648  0.563-  10 1.32  19 1.37
  39  0.142  0.484  0.503-  12 1.36   3 1.38  57 2.08
  40  0.988  0.496  0.454-  12 1.35  22 1.42  17 1.42
  41  0.667  0.330  0.447-  13 1.40  14 1.40  15 1.45
  42  0.680  0.178  0.513-  18 1.33  13 1.35
  43  0.827  0.986  0.486-  20 1.33  16 1.33
  44  0.011  0.348  0.397-   3 1.32  17 1.34
  45  0.830  0.330  0.397-  17 1.32  14 1.35
  46  0.993  0.161  0.453-  16 1.32   1 1.34
  47  0.669  0.005  0.557-  21 1.34  18 1.34
  48  0.505  0.004  0.516-  11 1.38  18 1.41   4 1.41
  49  0.668  0.832  0.552-  19 1.41  21 1.44  20 1.45
  50  0.675  0.666  0.530-  19 1.33  24 1.33
  51  0.832  0.507  0.414-  22 1.31  14 1.36
  52  0.016  0.853  0.567-  23 1.34   9 1.34
  53  0.849  0.860  0.584-  20 1.34  23 1.34
  54  0.004  0.677  0.452-   7 1.33  22 1.35
  55  0.668  0.491  0.502-  24 1.32  15 1.34
  56  0.506  0.502  0.485-  10 1.35  24 1.41   5 1.43
  57  0.287  0.593  0.576-  35 2.06  39 2.08  58 2.48
  58  0.287  0.593  0.741-  59 1.16  57 2.48
  59  0.232  0.530  0.797-  58 1.16


IMPORTANT INFORMATION: All symmetrisations will be switched off!
NOSYMM: (Re-)initialisation of all symmetry stuff for point group C_1.



 KPOINTS: K-Points                                

Automatic generation of k-mesh.
Space group operators:
 irot       det(A)        alpha          n_x          n_y          n_z        tau_x        tau_y        tau_z
    1     1.000000     0.000000     1.000000     0.000000     0.000000     0.000000     0.000000     0.000000
 
 Subroutine IBZKPT returns following result:
 ===========================================
 
 Found      4 irreducible k-points:
 
 Following reciprocal coordinates:
            Coordinates               Weight
  0.000000  0.000000  0.000000      1.000000
  0.500000  0.000000  0.000000      1.000000
  0.000000  0.500000  0.000000      1.000000
  0.500000  0.500000  0.000000      1.000000
 
 Following cartesian coordinates:
            Coordinates               Weight
  0.000000  0.000000  0.000000      1.000000
  0.036415  0.021552  0.000000      1.000000
  0.000594  0.043104  0.000000      1.000000
  0.037009  0.064656  0.000000      1.000000
 


--------------------------------------------------------------------------------------------------------




 Dimension of arrays:
   k-points           NKPTS =      4   k-points in BZ     NKDIM =      4   number of bands    NBANDS=    172
   number of dos      NEDOS =    301   number of ions     NIONS =     59
   non local maximal  LDIM  =      6   non local SUM 2l+1 LMDIM =     18
   total plane-waves  NPLWV = 403200
   max r-space proj   IRMAX =   1959   max aug-charges    IRDMAX=   5828
   dimension x,y,z NGX =    72 NGY =   70 NGZ =   80
   dimension x,y,z NGXF=   144 NGYF=  140 NGZF=  160
   support grid    NGXF=   144 NGYF=  140 NGZF=  160
   ions per type =              24  32   1   1   1
   NGX,Y,Z   is equivalent  to a cutoff of   8.65,  8.56,  8.87 a.u.
   NGXF,Y,Z  is equivalent  to a cutoff of  17.29, 17.13, 17.73 a.u.

 SYSTEM =  unknown system                          
 POSCAR =  POSCAR-c3n4                             

 Startparameter for this run:
   NWRITE =      2    write-flag & timer
   PREC   = normal    normal or accurate (medium, high low for compatibility)
   ISTART =      0    job   : 0-new  1-cont  2-samecut
   ICHARG =      2    charge: 1-file 2-atom 10-const
   ISPIN  =      2    spin polarized calculation?
   LNONCOLLINEAR =      F non collinear calculations
   LSORBIT =      F    spin-orbit coupling
   INIWAV =      1    electr: 0-lowe 1-rand  2-diag
   LASPH  =      F    aspherical Exc in radial PAW
   METAGGA=      F    non-selfconsistent MetaGGA calc.

 Electronic Relaxation 1
   ENCUT  =  440.0 eV  32.34 Ry    5.69 a.u.  23.68 23.24 25.66*2*pi/ulx,y,z
   ENINI  =  440.0     initial cutoff
   ENAUG  =  644.9 eV  augmentation charge cutoff
   NELM   =     50;   NELMIN=  2; NELMDL= -5     # of ELM steps 
   EDIFF  = 0.1E-03   stopping-criterion for ELM
   LREAL  =      T    real-space projection
   NLSPLINE    = F    spline interpolate recip. space projectors
   LCOMPAT=      F    compatible to vasp.4.4
   GGA_COMPAT  = T    GGA compatible to vasp.4.4-vasp.4.6
   LMAXPAW     = -100 max onsite density
   LMAXMIX     =    2 max onsite mixed and CHGCAR
   VOSKOWN=      0    Vosko Wilk Nusair interpolation
   ROPT   =   -0.00050  -0.00050  -0.00050  -0.00050
   ROPT   =   -0.00050
 Ionic relaxation
   EDIFFG = -.1E+00   stopping-criterion for IOM
   NSW    =    400    number of steps for IOM
   NBLOCK =      1;   KBLOCK =    400    inner block; outer block 
   IBRION =      2    ionic relax: 0-MD 1-quasi-New 2-CG
   NFREE  =      1    steps in history (QN), initial steepest desc. (CG)
   ISIF   =      2    stress and relaxation
   IWAVPR =     11    prediction:  0-non 1-charg 2-wave 3-comb
   ISYM   =      0    0-nonsym 1-usesym 2-fastsym
   LCORR  =      T    Harris-Foulkes like correction to forces

   POTIM  = 0.2000    time-step for ionic-motion
   TEIN   =    0.0    initial temperature
   TEBEG  =    0.0;   TEEND  =   0.0 temperature during run
   SMASS  =  -3.00    Nose mass-parameter (am)
   estimated Nose-frequenzy (Omega)   =  0.10E-29 period in steps =****** mass=  -0.438E-26a.u.
   SCALEE = 1.0000    scale energy and forces
   NPACO  =    256;   APACO  = 16.0  distance and # of slots for P.C.
   PSTRESS=    0.0 pullay stress

  Mass of Ions in am
   POMASS =  12.01 14.00 72.61 12.01 16.00
  Ionic Valenz
   ZVAL   =   4.00  5.00 14.00  4.00  6.00
  Atomic Wigner-Seitz radii
   RWIGS  =  -1.00 -1.00 -1.00 -1.00 -1.00
  virtual crystal weights 
   VCA    =   1.00  1.00  1.00  1.00  1.00
   NELECT =     280.0000    total number of electrons
   NUPDOWN=      -1.0000    fix difference up-down

 DOS related values:
   EMIN   =  10.00;   EMAX   =-10.00  energy-range for DOS
   EFERMI =   0.00
   ISMEAR =     0;   SIGMA  =   0.10  broadening in eV -4-tet -1-fermi 0-gaus

 Electronic relaxation 2 (details)
   IALGO  =     58    algorithm
   LDIAG  =      T    sub-space diagonalisation (order eigenvalues)
   LSUBROT=      F    optimize rotation matrix (better conditioning)
   TURBO    =      0    0=normal 1=particle mesh
   IRESTART =      0    0=no restart 2=restart with 2 vectors
   NREBOOT  =      0    no. of reboots
   NMIN     =      0    reboot dimension
   EREF     =   0.00    reference energy to select bands
   IMIX   =      4    mixing-type and parameters
     AMIX     =   0.05;   BMIX     =  0.00
     AMIX_MAG =   0.20;   BMIX_MAG =  0.00
     AMIN     =   0.05
     WC   =   100.;   INIMIX=   1;  MIXPRE=   1;  MAXMIX= -45

 Intra band minimization:
   WEIMIN = 0.0010     energy-eigenvalue tresh-hold
   EBREAK =  0.15E-06  absolut break condition
   DEPER  =   0.30     relativ break condition  

   TIME   =   0.40     timestep for ELM

  volume/ion in A,a.u.               =      40.83       275.51
  Fermi-wavevector in a.u.,A,eV,Ry     =   0.798973  1.509840  8.685388  0.638358
  Thomas-Fermi vector in A             =   1.905987

 Write flags
   LWAVE        =      F    write WAVECAR
   LDOWNSAMPLE  =      F    k-point downsampling of WAVECAR
   LCHARG       =      F    write CHGCAR
   LVTOT        =      F    write LOCPOT, total local potential
   LVHAR        =      F    write LOCPOT, Hartree potential only
   LELF         =      F    write electronic localiz. function (ELF)
   LORBIT       =      0    0 simple, 1 ext, 2 COOP (PROOUT), +10 PAW based schemes


 Dipole corrections
   LMONO  =      F    monopole corrections only (constant potential shift)
   LDIPOL =      F    correct potential (dipole corrections)
   IDIPOL =      0    1-x, 2-y, 3-z, 4-all directions 
   EPSILON=  1.0000000 bulk dielectric constant

 Exchange correlation treatment:
   GGA     =    --    GGA type
   LEXCH   =     8    internal setting for exchange type
   VOSKOWN=      0    Vosko Wilk Nusair interpolation
   LHFCALC =     F    Hartree Fock is set to
   LHFONE  =     F    Hartree Fock one center treatment
   AEXX    =    0.0000 exact exchange contribution

 Linear response parameters
   LEPSILON=     F    determine dielectric tensor
   LRPA    =     F    only Hartree local field effects (RPA)
   LNABLA  =     F    use nabla operator in PAW spheres
   LVEL    =     F    velocity operator in full k-point grid
   LINTERFAST=   F  fast interpolation
   KINTER  =     0    interpolate to denser k-point grid
   CSHIFT  =0.1000    complex shift for real part using Kramers Kronig
   OMEGAMAX=  -1.0    maximum frequency
   DEG_THRESHOLD= 0.2000000E-02 threshold for treating states as degnerate
   RTIME   =   -0.100 relaxation time in fs
  (WPLASMAI=    0.000 imaginary part of plasma frequency in eV, 0.658/RTIME)
   DFIELD  = 0.0000000 0.0000000 0.0000000 field for delta impulse in time

 Orbital magnetization related:
   ORBITALMAG=     F  switch on orbital magnetization
   LCHIMAG   =     F  perturbation theory with respect to B field
   DQ        =  0.001000  dq finite difference perturbation B field
   LLRAUG    =     F  two centre corrections for induced B field



--------------------------------------------------------------------------------------------------------


 conjugate gradient relaxation of ions
 charge density and potential will be updated during run
 spin polarized calculation
 Conjugate gradient for all bands (Freysoldt, et al. PRB 79, 241103 (2009))
 preconditioned conjugated gradient                                        
 perform sub-space diagonalisation
    before iterative eigenvector-optimisation
 modified Broyden-mixing scheme, WC =      100.0
 initial mixing is a Kerker type mixing with AMIX =  0.0500 and BMIX =      0.0001
 Hartree-type preconditioning will be used
 using additional bands           32
 real space projection scheme for non local part
 use partial core corrections
 no Harris-corrections to forces 
 use gradient corrections 
 use of overlap-Matrix (Vanderbilt PP)
 Gauss-broadening in eV      SIGMA  =   0.10


--------------------------------------------------------------------------------------------------------


  energy-cutoff  :      440.00
  volume of cell :     2408.72
      direct lattice vectors                 reciprocal lattice vectors
    13.843424235 -0.190740474  0.000000000     0.072830369  0.043104114 -0.000000000
    -6.921712117 11.695190994  0.000000000     0.001187813  0.086208229 -0.000000000
     0.000000000  0.000000000 15.000000000    -0.000000000 -0.000000000  0.066666667

  length of vectors
    13.844738223 13.589981274 15.000000000     0.084629944  0.086216411  0.066666667



 k-points in units of 2pi/SCALE and weight: K-Points                                
   0.00000000  0.00000000  0.00000000       0.250
   0.03641518  0.02155206  0.00000000       0.250
   0.00059391  0.04310411  0.00000000       0.250
   0.03700909  0.06465617  0.00000000       0.250

 k-points in reciprocal lattice and weights: K-Points                                
   0.00000000  0.00000000  0.00000000       0.250
   0.50000000  0.00000000  0.00000000       0.250
   0.00000000  0.50000000  0.00000000       0.250
   0.50000000  0.50000000  0.00000000       0.250

 position of ions in fractional coordinates (direct lattice) 
   0.10567936  0.21351909  0.44429412
   0.28750403  0.39866334  0.45098808
   0.10379301  0.39177313  0.44511734
   0.44732828  0.06383887  0.52352373
   0.45258916  0.40124889  0.43035543
   0.11203481  0.05273921  0.46651129
   0.09638015  0.71191070  0.50173124
   0.28433946  0.89006364  0.51903119
   0.10941441  0.89537413  0.51595533
   0.44792521  0.54827090  0.51973378
   0.44544784  0.88520183  0.50679997
   0.08690842  0.54210436  0.49850116
   0.61614813  0.22292684  0.49053448
   0.78023735  0.38968276  0.41771269
   0.61037743  0.39432339  0.45329158
   0.93951642  0.05229783  0.47853017
   0.94071854  0.38652888  0.41171000
   0.62278394  0.06558106  0.52986165
   0.61322902  0.71118454  0.54907875
   0.78984871  0.89727295  0.54071007
   0.60944297  0.89248269  0.53915699
   0.93832005  0.56283419  0.43833951
   0.95436023  0.90171878  0.55249448
   0.62130548  0.55465507  0.50769024
   0.16668926  0.33545237  0.44285832
   0.16473950  0.16097029  0.43878203
   0.33626584  0.00180669  0.53998763
   0.51175722  0.35246859  0.41021610
   0.34471728  0.36074551  0.40758284
   0.50565751  0.17673507  0.51098167
   0.15873210  0.98821904  0.46448651
   0.00214731  0.00186372  0.50067178
   0.16462634  0.83083069  0.51808953
   0.13400723  0.64526801  0.53561795
   0.33371346  0.49116238  0.50938059
   0.50288345  0.83078126  0.50755338
   0.33307237  0.82932770  0.49720369
   0.49902190  0.64803204  0.56266372
   0.14173676  0.48364631  0.50294607
   0.98839512  0.49595573  0.45381795
   0.66736443  0.33015381  0.44714767
   0.67970142  0.17802103  0.51306768
   0.82720183  0.98622484  0.48567916
   0.01097216  0.34809993  0.39663241
   0.83047981  0.33016544  0.39735858
   0.99296173  0.16101876  0.45296084
   0.66886761  0.00524437  0.55731089
   0.50484899  0.00388347  0.51613913
   0.66830364  0.83227641  0.55202916
   0.67536455  0.66551462  0.53029463
   0.83211404  0.50666912  0.41357660
   0.01584380  0.85299492  0.56650718
   0.84924332  0.85956436  0.58387965
   0.00424175  0.67726383  0.45238474
   0.66753141  0.49127771  0.50165072
   0.50565566  0.50179634  0.48499122
   0.28676550  0.59288202  0.57562475
   0.28676550  0.59288202  0.74095809
   0.23209909  0.52992702  0.79731390

 position of ions in cartesian coordinates  (Angst):
  -0.01495341  2.47698916  6.66441181
   1.22060735  4.60760523  6.76482123
  -1.27489022  4.56206407  6.67676010
   5.75068089  0.66128413  7.85285602
   3.48805436  4.60635537  6.45533144
   1.18589979  0.59542560  6.99766936
  -3.59340964  8.30754803  7.52596861
  -2.22453254 10.35522920  7.78546787
  -4.68285195 10.45070172  7.73932991
   2.40584542  6.32669544  7.79600665
   0.03941122 10.26763956  7.60199961
  -2.54918027  6.32343713  7.47751733
   6.98656454  2.48964760  7.35801714
   8.10388471  4.40859150  6.26569032
   5.72032065  4.49526372  6.79937372
  12.64413391  0.43242927  7.17795256
  10.34732423  4.34109601  6.17565001
   8.16752907  0.64819286  7.94792469
   3.56657488  8.20047146  8.23618120
   4.72354569 10.34312244  8.11065111
   2.25926930 10.32151003  8.08735487
   9.09378627  6.40347778  6.57509264
   6.97017567 10.36373826  8.28741724
   4.76183266  6.36828891  7.61535353
  -0.01435459  3.89138517  6.64287475
   1.16636883  1.85115575  6.58173041
   4.64256524 -0.04300995  8.09981438
   4.64478625  4.02457463  6.15324155
   2.27509095  4.15323612  6.11374264
   5.77672210  1.97050110  7.66472500
  -4.64277198 11.52713380  6.96729768
   0.01682601  0.02138698  7.51007673
  -3.47177850  9.68532266  7.77134298
  -2.61124046  7.52097199  8.03426919
   1.22005246  5.68058514  7.64070882
   1.21120026  9.62022522  7.61330076
  -1.12950549  9.63561545  7.45805538
   2.42268065  7.48367481  8.43995581
  -1.38553843  5.62930098  7.54419106
  10.24991020  5.61177007  6.80726919
   6.95337930  3.73391849  6.70721506
   8.17718484  1.95234336  7.69601518
   4.62494149 11.37630698  7.28518735
  -2.25755524  4.06900228  5.94948614
   9.21137417  3.70294177  5.96037870
  12.63146492  1.69374715  6.79441267
   9.22311816 -0.06624626  8.35966328
   6.96195851 -0.05087721  7.74208693
   3.49083317  9.60615900  8.28043744
   4.74285732  7.65450125  7.95441941
   8.01228982  5.76687433  6.20364898
  -5.68485288  9.97291647  8.49760772
   5.80677850  9.89078434  8.75819472
  -4.62910497  7.91992080  6.78577109
   5.84043755  5.61826141  7.52476074
   3.52671598  5.77215508  7.27486824
  -0.13394222  6.87917073  8.63437128
  -0.13394222  6.87917073 11.11437128
  -0.45495616  6.15332704 11.95970846



--------------------------------------------------------------------------------------------------------


 k-point  1 :   0.0000 0.0000 0.0000  plane waves:   50507
 k-point  2 :   0.5000 0.0000 0.0000  plane waves:   50500
 k-point  3 :   0.0000 0.5000 0.0000  plane waves:   50506
 k-point  4 :   0.5000 0.5000 0.0000  plane waves:   50450

 maximum and minimum number of plane-waves per node :      4237     4190

 maximum number of plane-waves:     50507
 maximum index in each direction: 
   IXMAX=   23   IYMAX=   23   IZMAX=   25
   IXMIN=  -24   IYMIN=  -23   IZMIN=  -25


 real space projection operators:
  total allocation   :       4976.95 KBytes
  max/ min on nodes  :        456.27        366.88


 parallel 3D FFT for wavefunctions:
    minimum data exchange during FFTs selected (reduces bandwidth)
 parallel 3D FFT for charge:
    minimum data exchange during FFTs selected (reduces bandwidth)


 total amount of memory used by VASP MPI-rank0   116151. kBytes
=======================================================================

   base      :      30000. kBytes
   nonlr-proj:       2456. kBytes
   fftplans  :       3350. kBytes
   grid      :       9783. kBytes
   one-center:        155. kBytes
   wavefun   :      70407. kBytes

     INWAV:  cpu time    0.0000: real time    0.0000
 Broyden mixing: mesh for mixing (old mesh)
   NGX = 47   NGY = 47   NGZ = 51
  (NGX  =144   NGY  =140   NGZ  =160)
  gives a total of 112659 points

 initial charge density was supplied:
 charge density of overlapping atoms calculated
 number of electron     280.0000000 magnetization       2.0000000
 keeping initial charge density in first step


--------------------------------------------------------------------------------------------------------


 Maximum index for non-local projection operator          139
 Maximum index for augmentation-charges          230 (set IRDMAX)


--------------------------------------------------------------------------------------------------------


 First call to EWALD:  gamma=   0.132
 Maximum number of real-space cells 3x 3x 3
 Maximum number of reciprocal cells 3x 3x 3

    FEWALD:  cpu time    0.0052: real time    0.0052


--------------------------------------- Iteration      1(   1)  ---------------------------------------


    POTLOK:  cpu time    0.1514: real time    0.1514
    SETDIJ:  cpu time    0.0091: real time    0.0092
    TRIAL :  cpu time    6.2634: real time    6.2660
    CORREC:  cpu time    0.0008: real time    0.0008
    --------------------------------------------
      LOOP:  cpu time    6.4388: real time    6.4416

 eigenvalue-minimisations  :  3168
 total energy-change (2. order) : 0.2673437E+04  (-0.1080642E+05)
 number of electron     280.0000000 magnetization       2.0000000
 augmentation part      280.0000000 magnetization       2.0000000

 Free energy of the ion-electron system (eV)
  ---------------------------------------------------
  alpha Z        PSCENC =       154.69642529
  Ewald energy   TEWEN  =     26994.43473883
  -Hartree energ DENC   =    -38912.86535835
  -exchange      EXHF   =         0.00000000
  -V(xc)+E(xc)   XCENC  =      1067.95641060
  PAW double counting   =     11453.83848114   -11942.90478952
  entropy T*S    EENTRO =        -0.07829566
  eigenvalues    EBANDS =     -1313.37708570
  atomic energy  EATOM  =     15171.73615219
  ---------------------------------------------------
  free energy    TOTEN  =      2673.43667882 eV

  energy without entropy =     2673.51497448  energy(sigma->0) =     2673.47582665


--------------------------------------------------------------------------------------------------------




--------------------------------------- Iteration      1(   2)  ---------------------------------------


    TRIAL :  cpu time    7.3292: real time    7.3297
    CORREC:  cpu time    0.0008: real time    0.0008
    --------------------------------------------
      LOOP:  cpu time    7.3359: real time    7.3439

 eigenvalue-minimisations  :  3824
 total energy-change (2. order) :-0.2652262E+04  (-0.2553336E+04)
 number of electron     280.0000000 magnetization       2.0000000
 augmentation part      280.0000000 magnetization       2.0000000

 Free energy of the ion-electron system (eV)
  ---------------------------------------------------
  alpha Z        PSCENC =       154.69642529
  Ewald energy   TEWEN  =     26994.43473883
  -Hartree energ DENC   =    -38912.86535835
  -exchange      EXHF   =         0.00000000
  -V(xc)+E(xc)   XCENC  =      1067.95641060
  PAW double counting   =     11453.83848114   -11942.90478952
  entropy T*S    EENTRO =        -0.00131334
  eigenvalues    EBANDS =     -3965.71616459
  atomic energy  EATOM  =     15171.73615219
  ---------------------------------------------------
  free energy    TOTEN  =        21.17458224 eV

  energy without entropy =       21.17589559  energy(sigma->0) =       21.17523891


--------------------------------------------------------------------------------------------------------




--------------------------------------- Iteration      1(   3)  ---------------------------------------


    TRIAL :  cpu time    6.4694: real time    6.4715
    CORREC:  cpu time    0.0008: real time    0.0008
    --------------------------------------------
      LOOP:  cpu time    6.4774: real time    6.4840

 eigenvalue-minimisations  :  3260
 total energy-change (2. order) :-0.5250699E+03  (-0.5211620E+03)
 number of electron     280.0000000 magnetization       2.0000000
 augmentation part      280.0000000 magnetization       2.0000000

 Free energy of the ion-electron system (eV)
  ---------------------------------------------------
  alpha Z        PSCENC =       154.69642529
  Ewald energy   TEWEN  =     26994.43473883
  -Hartree energ DENC   =    -38912.86535835
  -exchange      EXHF   =         0.00000000
  -V(xc)+E(xc)   XCENC  =      1067.95641060
  PAW double counting   =     11453.83848114   -11942.90478952
  entropy T*S    EENTRO =        -0.04224657
  eigenvalues    EBANDS =     -4490.74511160
  atomic energy  EATOM  =     15171.73615219
  ---------------------------------------------------
  free energy    TOTEN  =      -503.89529800 eV

  energy without entropy =     -503.85305143  energy(sigma->0) =     -503.87417471


--------------------------------------------------------------------------------------------------------




--------------------------------------- Iteration      1(   4)  ---------------------------------------


    TRIAL :  cpu time    6.6360: real time    6.6384
    CORREC:  cpu time    0.0008: real time    0.0008
    --------------------------------------------
      LOOP:  cpu time    6.6491: real time    6.6523

 eigenvalue-minimisations  :  3480
 total energy-change (2. order) :-0.2142427E+02  (-0.2090142E+02)
 number of electron     280.0000000 magnetization       2.0000000
 augmentation part      280.0000000 magnetization       2.0000000

 Free energy of the ion-electron system (eV)
  ---------------------------------------------------
  alpha Z        PSCENC =       154.69642529
  Ewald energy   TEWEN  =     26994.43473883
  -Hartree energ DENC   =    -38912.86535835
  -exchange      EXHF   =         0.00000000
  -V(xc)+E(xc)   XCENC  =      1067.95641060
  PAW double counting   =     11453.83848114   -11942.90478952
  entropy T*S    EENTRO =        -0.07748314
  eigenvalues    EBANDS =     -4512.13414368
  atomic energy  EATOM  =     15171.73615219
  ---------------------------------------------------
  free energy    TOTEN  =      -525.31956665 eV

  energy without entropy =     -525.24208351  energy(sigma->0) =     -525.28082508


--------------------------------------------------------------------------------------------------------




--------------------------------------- Iteration      1(   5)  ---------------------------------------


    TRIAL :  cpu time    7.6509: real time    7.6514
    CORREC:  cpu time    0.0009: real time    0.0009
    CHARGE:  cpu time    0.2264: real time    0.2264
    --------------------------------------------
      LOOP:  cpu time    7.8829: real time    7.8923

 eigenvalue-minimisations  :  3992
 total energy-change (2. order) :-0.8379020E+00  (-0.8289398E+00)
 number of electron     280.0000066 magnetization       0.0406797
 augmentation part       20.2353699 magnetization       0.0327827

 Free energy of the ion-electron system (eV)
  ---------------------------------------------------
  alpha Z        PSCENC =       154.69642529
  Ewald energy   TEWEN  =     26994.43473883
  -Hartree energ DENC   =    -38912.86535835
  -exchange      EXHF   =         0.00000000
  -V(xc)+E(xc)   XCENC  =      1067.95641060
  PAW double counting   =     11453.83848114   -11942.90478952
  entropy T*S    EENTRO =        -0.07821772
  eigenvalues    EBANDS =     -4512.97131106
  atomic energy  EATOM  =     15171.73615219
  ---------------------------------------------------
  free energy    TOTEN  =      -526.15746861 eV

  energy without entropy =     -526.07925089  energy(sigma->0) =     -526.11835975


--------------------------------------------------------------------------------------------------------




--------------------------------------- Iteration      1(   6)  ---------------------------------------


    POTLOK:  cpu time    0.1109: real time    0.1109
    SETDIJ:  cpu time    0.0096: real time    0.0096
    TRIAL :  cpu time    2.9746: real time    2.9749
    CORREC:  cpu time    1.1721: real time    1.1722
    CHARGE:  cpu time    0.2224: real time    0.2225
    --------------------------------------------
      LOOP:  cpu time    4.5001: real time    4.5136

 eigenvalue-minimisations  :     0
 total energy-change (2. order) : 0.7828073E+02  (-0.3687410E+02)
 number of electron     280.0000055 magnetization       0.1015130
 augmentation part       19.0731713 magnetization       0.0229911

 Free energy of the ion-electron system (eV)
  ---------------------------------------------------
  alpha Z        PSCENC =       154.69642529
  Ewald energy   TEWEN  =     26994.43473883
  -Hartree energ DENC   =    -40198.89944515
  -exchange      EXHF   =         0.00000000
  -V(xc)+E(xc)   XCENC  =      1133.12960796
  PAW double counting   =     29375.81773876   -29875.61999461
  entropy T*S    EENTRO =        -0.06315152
  eigenvalues    EBANDS =     -3203.09374335
  atomic energy  EATOM  =     15171.73615219
  ---------------------------------------------------
  free energy    TOTEN  =      -447.87673781 eV

  energy without entropy =     -447.81358629  energy(sigma->0) =     -447.84516205


--------------------------------------------------------------------------------------------------------




--------------------------------------- Iteration      1(   7)  ---------------------------------------


    POTLOK:  cpu time    0.1026: real time    0.1026
    SETDIJ:  cpu time    0.0092: real time    0.0092
    TRIAL :  cpu time    2.9941: real time    2.9944
    CORREC:  cpu time    1.1767: real time    1.1769
    CHARGE:  cpu time    0.2223: real time    0.2223
    --------------------------------------------
      LOOP:  cpu time    4.5200: real time    4.5214

 eigenvalue-minimisations  :     0
 total energy-change (2. order) :-0.3681516E+02  (-0.4348313E+01)
 number of electron     280.0000053 magnetization       0.1763378
 augmentation part       18.7147068 magnetization       0.0222048

 Free energy of the ion-electron system (eV)
  ---------------------------------------------------
  alpha Z        PSCENC =       154.69642529
  Ewald energy   TEWEN  =     26994.43473883
  -Hartree energ DENC   =    -39575.92651747
  -exchange      EXHF   =         0.00000000
  -V(xc)+E(xc)   XCENC  =      1102.28164923
  PAW double counting   =     30186.28547176   -30691.94682400
  entropy T*S    EENTRO =        -0.06537483
  eigenvalues    EBANDS =     -3826.18984557
  atomic energy  EATOM  =     15171.73615219
  ---------------------------------------------------
  free energy    TOTEN  =      -484.69190127 eV

  energy without entropy =     -484.62652644  energy(sigma->0) =     -484.65921386


--------------------------------------------------------------------------------------------------------




--------------------------------------- Iteration      1(   8)  ---------------------------------------


    POTLOK:  cpu time    0.1087: real time    0.1087
    SETDIJ:  cpu time    0.0095: real time    0.0095
    TRIAL :  cpu time    2.9720: real time    2.9736
    CORREC:  cpu time    1.1955: real time    1.1956
    CHARGE:  cpu time    0.2253: real time    0.2254
    --------------------------------------------
      LOOP:  cpu time    4.5202: real time    4.5222

 eigenvalue-minimisations  :     0
 total energy-change (2. order) :-0.4244676E+01  (-0.1937768E+01)
 number of electron     280.0000051 magnetization       0.2106773
 augmentation part       18.5223738 magnetization       0.0186452

 Free energy of the ion-electron system (eV)
  ---------------------------------------------------
  alpha Z        PSCENC =       154.69642529
  Ewald energy   TEWEN  =     26994.43473883
  -Hartree energ DENC   =    -39567.58490854
  -exchange      EXHF   =         0.00000000
  -V(xc)+E(xc)   XCENC  =      1100.23046438
  PAW double counting   =     30408.21193213   -30908.07324684
  entropy T*S    EENTRO =        -0.05971231
  eigenvalues    EBANDS =     -3842.52276027
  atomic energy  EATOM  =     15171.73615219
  ---------------------------------------------------
  free energy    TOTEN  =      -488.93657766 eV

  energy without entropy =     -488.87686536  energy(sigma->0) =     -488.90672151


--------------------------------------------------------------------------------------------------------




--------------------------------------- Iteration      1(   9)  ---------------------------------------


    POTLOK:  cpu time    0.1081: real time    0.1081
    SETDIJ:  cpu time    0.0093: real time    0.0093
    TRIAL :  cpu time    2.9484: real time    2.9486
    CORREC:  cpu time    1.1827: real time    1.1828
    CHARGE:  cpu time    0.2236: real time    0.2236
    --------------------------------------------
      LOOP:  cpu time    4.4745: real time    4.4953

 eigenvalue-minimisations  :     0
 total energy-change (2. order) :-0.1934179E+01  (-0.7250050E+00)
 number of electron     280.0000050 magnetization       0.2037205
 augmentation part       18.5231562 magnetization       0.0161514

 Free energy of the ion-electron system (eV)
  ---------------------------------------------------
  alpha Z        PSCENC =       154.69642529
  Ewald energy   TEWEN  =     26994.43473883
  -Hartree energ DENC   =    -39626.78785078
  -exchange      EXHF   =         0.00000000
  -V(xc)+E(xc)   XCENC  =      1101.28668662
  PAW double counting   =     30488.32233329   -30987.01001529
  entropy T*S    EENTRO =        -0.05852497
  eigenvalues    EBANDS =     -3787.48951410
  atomic energy  EATOM  =     15171.73615219
  ---------------------------------------------------
  free energy    TOTEN  =      -490.87075627 eV

  energy without entropy =     -490.81223130  energy(sigma->0) =     -490.84149378


--------------------------------------------------------------------------------------------------------




--------------------------------------- Iteration      1(  10)  ---------------------------------------


    POTLOK:  cpu time    0.1091: real time    0.1091
    SETDIJ:  cpu time    0.0092: real time    0.0092
    TRIAL :  cpu time    2.9629: real time    2.9632
    CORREC:  cpu time    1.1774: real time    1.1774
    CHARGE:  cpu time    0.2288: real time    0.2288
    --------------------------------------------
      LOOP:  cpu time    4.5015: real time    4.5025

 eigenvalue-minimisations  :     0
 total energy-change (2. order) :-0.7249546E+00  (-0.2893315E+00)
 number of electron     280.0000050 magnetization       0.1979315
 augmentation part       18.5123651 magnetization       0.0137921

 Free energy of the ion-electron system (eV)
  ---------------------------------------------------
  alpha Z        PSCENC =       154.69642529
  Ewald energy   TEWEN  =     26994.43473883
  -Hartree energ DENC   =    -39653.05221812
  -exchange      EXHF   =         0.00000000
  -V(xc)+E(xc)   XCENC  =      1101.90906092
  PAW double counting   =     30428.84448392   -30930.64081186
  entropy T*S    EENTRO =        -0.05503382
  eigenvalues    EBANDS =     -3759.46501703
  atomic energy  EATOM  =     15171.73615219
  ---------------------------------------------------
  free energy    TOTEN  =      -491.59571085 eV

  energy without entropy =     -491.54067703  energy(sigma->0) =     -491.56819394


--------------------------------------------------------------------------------------------------------




--------------------------------------- Iteration      1(  11)  ---------------------------------------


    POTLOK:  cpu time    0.0984: real time    0.0984
    SETDIJ:  cpu time    0.0091: real time    0.0091
    TRIAL :  cpu time    3.0247: real time    3.0249
    CORREC:  cpu time    1.1844: real time    1.1845
    CHARGE:  cpu time    0.2293: real time    0.2293
    --------------------------------------------
      LOOP:  cpu time    4.5508: real time    4.5762

 eigenvalue-minimisations  :     0
 total energy-change (2. order) :-0.2881010E+00  (-0.8966566E-01)
 number of electron     280.0000050 magnetization       0.1880809
 augmentation part       18.5233070 magnetization       0.0123430

 Free energy of the ion-electron system (eV)
  ---------------------------------------------------
  alpha Z        PSCENC =       154.69642529
  Ewald energy   TEWEN  =     26994.43473883
  -Hartree energ DENC   =    -39627.70761602
  -exchange      EXHF   =         0.00000000
  -V(xc)+E(xc)   XCENC  =      1101.37444827
  PAW double counting   =     30371.67342533   -30871.59225099
  entropy T*S    EENTRO =        -0.05534303
  eigenvalues    EBANDS =     -3786.44410088
  atomic energy  EATOM  =     15171.73615219
  ---------------------------------------------------
  free energy    TOTEN  =      -491.88381181 eV

  energy without entropy =     -491.82846878  energy(sigma->0) =     -491.85614029


--------------------------------------------------------------------------------------------------------




--------------------------------------- Iteration      1(  12)  ---------------------------------------


    POTLOK:  cpu time    0.0992: real time    0.0992
    SETDIJ:  cpu time    0.0093: real time    0.0093
    TRIAL :  cpu time    2.9720: real time    2.9723
    CORREC:  cpu time    1.2086: real time    1.2087
    CHARGE:  cpu time    0.2300: real time    0.2315
    --------------------------------------------
      LOOP:  cpu time    4.5210: real time    4.5307

 eigenvalue-minimisations  :     0
 total energy-change (2. order) :-0.8932189E-01  (-0.4009018E-01)
 number of electron     280.0000050 magnetization       0.1913642
 augmentation part       18.5284277 magnetization       0.0114199

 Free energy of the ion-electron system (eV)
  ---------------------------------------------------
  alpha Z        PSCENC =       154.69642529
  Ewald energy   TEWEN  =     26994.43473883
  -Hartree energ DENC   =    -39627.17393425
  -exchange      EXHF   =         0.00000000
  -V(xc)+E(xc)   XCENC  =      1101.29691796
  PAW double counting   =     30348.01616496   -30848.37327857
  entropy T*S    EENTRO =        -0.05638132
  eigenvalues    EBANDS =     -3786.55097707
  atomic energy  EATOM  =     15171.73615219
  ---------------------------------------------------
  free energy    TOTEN  =      -491.97313370 eV

  energy without entropy =     -491.91675237  energy(sigma->0) =     -491.94494303


--------------------------------------------------------------------------------------------------------




--------------------------------------- Iteration      1(  13)  ---------------------------------------


    POTLOK:  cpu time    0.1059: real time    0.1059
    SETDIJ:  cpu time    0.0093: real time    0.0093
    TRIAL :  cpu time    2.9889: real time    2.9891
    CORREC:  cpu time    1.1803: real time    1.1804
    CHARGE:  cpu time    0.2303: real time    0.2303
    --------------------------------------------
      LOOP:  cpu time    4.5177: real time    4.5386

 eigenvalue-minimisations  :     0
 total energy-change (2. order) :-0.4013851E-01  (-0.2302561E-01)
 number of electron     280.0000050 magnetization       0.1895581
 augmentation part       18.5262201 magnetization       0.0104356

 Free energy of the ion-electron system (eV)
  ---------------------------------------------------
  alpha Z        PSCENC =       154.69642529
  Ewald energy   TEWEN  =     26994.43473883
  -Hartree energ DENC   =    -39627.75900010
  -exchange      EXHF   =         0.00000000
  -V(xc)+E(xc)   XCENC  =      1101.28497113
  PAW double counting   =     30342.14025412   -30842.94780273
  entropy T*S    EENTRO =        -0.05549760
  eigenvalues    EBANDS =     -3785.54262960
  atomic energy  EATOM  =     15171.73615219
  ---------------------------------------------------
  free energy    TOTEN  =      -492.01327220 eV

  energy without entropy =     -491.95777460  energy(sigma->0) =     -491.98552340


--------------------------------------------------------------------------------------------------------




--------------------------------------- Iteration      1(  14)  ---------------------------------------


    POTLOK:  cpu time    0.0985: real time    0.0985
    SETDIJ:  cpu time    0.0091: real time    0.0091
    TRIAL :  cpu time    2.9728: real time    2.9730
    CORREC:  cpu time    1.2164: real time    1.2165
    CHARGE:  cpu time    0.2286: real time    0.2286
    --------------------------------------------
      LOOP:  cpu time    4.5271: real time    4.5363

 eigenvalue-minimisations  :     0
 total energy-change (2. order) :-0.2306654E-01  (-0.9092434E-02)
 number of electron     280.0000050 magnetization       0.1959924
 augmentation part       18.5256742 magnetization       0.0103600

 Free energy of the ion-electron system (eV)
  ---------------------------------------------------
  alpha Z        PSCENC =       154.69642529
  Ewald energy   TEWEN  =     26994.43473883
  -Hartree energ DENC   =    -39628.17356049
  -exchange      EXHF   =         0.00000000
  -V(xc)+E(xc)   XCENC  =      1101.25419760
  PAW double counting   =     30348.46510045   -30848.99075966
  entropy T*S    EENTRO =        -0.05699330
  eigenvalues    EBANDS =     -3785.40313535
  atomic energy  EATOM  =     15171.73615219
  ---------------------------------------------------
  free energy    TOTEN  =      -492.03633874 eV

  energy without entropy =     -491.97934545  energy(sigma->0) =     -492.00784210


--------------------------------------------------------------------------------------------------------




--------------------------------------- Iteration      1(  15)  ---------------------------------------


    POTLOK:  cpu time    0.0997: real time    0.0997
    SETDIJ:  cpu time    0.0092: real time    0.0092
    TRIAL :  cpu time    2.8896: real time    2.8911
    CORREC:  cpu time    1.2032: real time    1.2033
    CHARGE:  cpu time    0.2261: real time    0.2261
    --------------------------------------------
      LOOP:  cpu time    4.4495: real time    4.4514

 eigenvalue-minimisations  :     0
 total energy-change (2. order) :-0.9127643E-02  (-0.4665892E-02)
 number of electron     280.0000050 magnetization       0.1995608
 augmentation part       18.5227063 magnetization       0.0099052

 Free energy of the ion-electron system (eV)
  ---------------------------------------------------
  alpha Z        PSCENC =       154.69642529
  Ewald energy   TEWEN  =     26994.43473883
  -Hartree energ DENC   =    -39627.86992443
  -exchange      EXHF   =         0.00000000
  -V(xc)+E(xc)   XCENC  =      1101.23563393
  PAW double counting   =     30355.33858806   -30855.63015212
  entropy T*S    EENTRO =        -0.05605368
  eigenvalues    EBANDS =     -3785.92993484
  atomic energy  EATOM  =     15171.73615219
  ---------------------------------------------------
  free energy    TOTEN  =      -492.04546639 eV

  energy without entropy =     -491.98941270  energy(sigma->0) =     -492.01743955


--------------------------------------------------------------------------------------------------------




--------------------------------------- Iteration      1(  16)  ---------------------------------------


    POTLOK:  cpu time    0.1087: real time    0.1087
    SETDIJ:  cpu time    0.0097: real time    0.0097
    TRIAL :  cpu time    2.9065: real time    2.9067
    CORREC:  cpu time    1.1562: real time    1.1563
    CHARGE:  cpu time    0.2291: real time    0.2292
    --------------------------------------------
      LOOP:  cpu time    4.4121: real time    4.4226

 eigenvalue-minimisations  :     0
 total energy-change (2. order) :-0.4668807E-02  (-0.2627475E-02)
 number of electron     280.0000050 magnetization       0.2097865
 augmentation part       18.5218952 magnetization       0.0103122

 Free energy of the ion-electron system (eV)
  ---------------------------------------------------
  alpha Z        PSCENC =       154.69642529
  Ewald energy   TEWEN  =     26994.43473883
  -Hartree energ DENC   =    -39625.57050132
  -exchange      EXHF   =         0.00000000
  -V(xc)+E(xc)   XCENC  =      1101.19153212
  PAW double counting   =     30361.10531980   -30861.67515301
  entropy T*S    EENTRO =        -0.05653299
  eigenvalues    EBANDS =     -3787.91259540
  atomic energy  EATOM  =     15171.73615219
  ---------------------------------------------------
  free energy    TOTEN  =      -492.05013519 eV

  energy without entropy =     -491.99360221  energy(sigma->0) =     -492.02186870


--------------------------------------------------------------------------------------------------------




--------------------------------------- Iteration      1(  17)  ---------------------------------------


    POTLOK:  cpu time    0.0995: real time    0.0995
    SETDIJ:  cpu time    0.0096: real time    0.0096
    TRIAL :  cpu time    2.9789: real time    2.9792
    CORREC:  cpu time    1.1879: real time    1.1880
    CHARGE:  cpu time    0.2186: real time    0.2186
    --------------------------------------------
      LOOP:  cpu time    4.4998: real time    4.5109

 eigenvalue-minimisations  :     0
 total energy-change (2. order) :-0.2639398E-02  (-0.1335058E-02)
 number of electron     280.0000050 magnetization       0.2209255
 augmentation part       18.5207341 magnetization       0.0108602

 Free energy of the ion-electron system (eV)
  ---------------------------------------------------
  alpha Z        PSCENC =       154.69642529
  Ewald energy   TEWEN  =     26994.43473883
  -Hartree energ DENC   =    -39626.39128349
  -exchange      EXHF   =         0.00000000
  -V(xc)+E(xc)   XCENC  =      1101.21548345
  PAW double counting   =     30361.94205972   -30862.41418071
  entropy T*S    EENTRO =        -0.05601468
  eigenvalues    EBANDS =     -3787.21563688
  atomic energy  EATOM  =     15171.73615219
  ---------------------------------------------------
  free energy    TOTEN  =      -492.05277459 eV

  energy without entropy =     -491.99675992  energy(sigma->0) =     -492.02476725


--------------------------------------------------------------------------------------------------------




--------------------------------------- Iteration      1(  18)  ---------------------------------------


    POTLOK:  cpu time    0.1073: real time    0.1073
    SETDIJ:  cpu time    0.0095: real time    0.0095
    TRIAL :  cpu time    2.9506: real time    2.9509
    CORREC:  cpu time    1.1881: real time    1.1881
    CHARGE:  cpu time    0.2314: real time    0.2314
    --------------------------------------------
      LOOP:  cpu time    4.4974: real time    4.4982

 eigenvalue-minimisations  :     0
 total energy-change (2. order) :-0.1340099E-02  (-0.6807184E-03)
 number of electron     280.0000050 magnetization       0.2351476
 augmentation part       18.5210511 magnetization       0.0118053

 Free energy of the ion-electron system (eV)
  ---------------------------------------------------
  alpha Z        PSCENC =       154.69642529
  Ewald energy   TEWEN  =     26994.43473883
  -Hartree energ DENC   =    -39626.40335649
  -exchange      EXHF   =         0.00000000
  -V(xc)+E(xc)   XCENC  =      1101.22405727
  PAW double counting   =     30359.93605453   -30860.39472100
  entropy T*S    EENTRO =        -0.05609197
  eigenvalues    EBANDS =     -3787.22745063
  atomic energy  EATOM  =     15171.73615219
  ---------------------------------------------------
  free energy    TOTEN  =      -492.05411469 eV

  energy without entropy =     -491.99802272  energy(sigma->0) =     -492.02606871


--------------------------------------------------------------------------------------------------------




--------------------------------------- Iteration      1(  19)  ---------------------------------------


    POTLOK:  cpu time    0.1046: real time    0.1046
    SETDIJ:  cpu time    0.0098: real time    0.0098
    TRIAL :  cpu time    2.9998: real time    3.0000
    CORREC:  cpu time    1.1953: real time    1.1954
    CHARGE:  cpu time    0.2252: real time    0.2252
    --------------------------------------------
      LOOP:  cpu time    4.5390: real time    4.5443

 eigenvalue-minimisations  :     0
 total energy-change (2. order) :-0.6821586E-03  (-0.4377416E-03)
 number of electron     280.0000050 magnetization       0.2493469
 augmentation part       18.5209954 magnetization       0.0128400

 Free energy of the ion-electron system (eV)
  ---------------------------------------------------
  alpha Z        PSCENC =       154.69642529
  Ewald energy   TEWEN  =     26994.43473883
  -Hartree energ DENC   =    -39626.77554613
  -exchange      EXHF   =         0.00000000
  -V(xc)+E(xc)   XCENC  =      1101.23072509
  PAW double counting   =     30356.59389926   -30857.03406601
  entropy T*S    EENTRO =        -0.05556223
  eigenvalues    EBANDS =     -3786.88103340
  atomic energy  EATOM  =     15171.73615219
  ---------------------------------------------------
  free energy    TOTEN  =      -492.05479685 eV

  energy without entropy =     -491.99923462  energy(sigma->0) =     -492.02701574


--------------------------------------------------------------------------------------------------------




--------------------------------------- Iteration      1(  20)  ---------------------------------------


    POTLOK:  cpu time    0.0994: real time    0.0994
    SETDIJ:  cpu time    0.0093: real time    0.0093
    TRIAL :  cpu time    2.9722: real time    2.9724
    CORREC:  cpu time    1.1892: real time    1.1893
    CHARGE:  cpu time    0.2278: real time    0.2278
    --------------------------------------------
      LOOP:  cpu time    4.5009: real time    4.5079

 eigenvalue-minimisations  :     0
 total energy-change (2. order) :-0.4377900E-03  (-0.4106072E-03)
 number of electron     280.0000050 magnetization       0.2717574
 augmentation part       18.5208047 magnetization       0.0144215

 Free energy of the ion-electron system (eV)
  ---------------------------------------------------
  alpha Z        PSCENC =       154.69642529
  Ewald energy   TEWEN  =     26994.43473883
  -Hartree energ DENC   =    -39626.84933701
  -exchange      EXHF   =         0.00000000
  -V(xc)+E(xc)   XCENC  =      1101.22795093
  PAW double counting   =     30353.77927991   -30854.25355670
  entropy T*S    EENTRO =        -0.05487001
  eigenvalues    EBANDS =     -3786.77132584
  atomic energy  EATOM  =     15171.73615219
  ---------------------------------------------------
  free energy    TOTEN  =      -492.05523464 eV

  energy without entropy =     -492.00036463  energy(sigma->0) =     -492.02779964


--------------------------------------------------------------------------------------------------------




--------------------------------------- Iteration      1(  21)  ---------------------------------------


    POTLOK:  cpu time    0.1035: real time    0.1035
    SETDIJ:  cpu time    0.0093: real time    0.0093
    TRIAL :  cpu time    2.9571: real time    2.9573
    CORREC:  cpu time    1.1869: real time    1.1870
    CHARGE:  cpu time    0.2252: real time    0.2253
    --------------------------------------------
      LOOP:  cpu time    4.4891: real time    4.4955

 eigenvalue-minimisations  :     0
 total energy-change (2. order) :-0.4134365E-03  (-0.4035286E-03)
 number of electron     280.0000050 magnetization       0.3069920
 augmentation part       18.5212164 magnetization       0.0169958

 Free energy of the ion-electron system (eV)
  ---------------------------------------------------
  alpha Z        PSCENC =       154.69642529
  Ewald energy   TEWEN  =     26994.43473883
  -Hartree energ DENC   =    -39626.81485423
  -exchange      EXHF   =         0.00000000
  -V(xc)+E(xc)   XCENC  =      1101.22737151
  PAW double counting   =     30351.21591754   -30851.72013879
  entropy T*S    EENTRO =        -0.05404236
  eigenvalues    EBANDS =     -3786.77639040
  atomic energy  EATOM  =     15171.73615219
  ---------------------------------------------------
  free energy    TOTEN  =      -492.05564808 eV

  energy without entropy =     -492.00160572  energy(sigma->0) =     -492.02862690


--------------------------------------------------------------------------------------------------------




--------------------------------------- Iteration      1(  22)  ---------------------------------------


    POTLOK:  cpu time    0.1011: real time    0.1011
    SETDIJ:  cpu time    0.0092: real time    0.0092
    TRIAL :  cpu time    2.9726: real time    2.9743
    CORREC:  cpu time    1.1813: real time    1.1814
    CHARGE:  cpu time    0.2270: real time    0.2270
    --------------------------------------------
      LOOP:  cpu time    4.4964: real time    4.5027

 eigenvalue-minimisations  :     0
 total energy-change (2. order) :-0.3981999E-03  (-0.5702606E-03)
 number of electron     280.0000050 magnetization       0.3648063
 augmentation part       18.5211602 magnetization       0.0209764

 Free energy of the ion-electron system (eV)
  ---------------------------------------------------
  alpha Z        PSCENC =       154.69642529
  Ewald energy   TEWEN  =     26994.43473883
  -Hartree energ DENC   =    -39627.47413913
  -exchange      EXHF   =         0.00000000
  -V(xc)+E(xc)   XCENC  =      1101.24102044
  PAW double counting   =     30349.55593031   -30850.00405976
  entropy T*S    EENTRO =        -0.05179291
  eigenvalues    EBANDS =     -3786.18807209
  atomic energy  EATOM  =     15171.73615219
  ---------------------------------------------------
  free energy    TOTEN  =      -492.05604628 eV

  energy without entropy =     -492.00425336  energy(sigma->0) =     -492.03014982


--------------------------------------------------------------------------------------------------------




--------------------------------------- Iteration      1(  23)  ---------------------------------------


    POTLOK:  cpu time    0.0985: real time    0.0985
    SETDIJ:  cpu time    0.0093: real time    0.0093
    TRIAL :  cpu time    2.9757: real time    2.9760
    CORREC:  cpu time    1.1816: real time    1.1817
    CHARGE:  cpu time    0.2274: real time    0.2274
    --------------------------------------------
      LOOP:  cpu time    4.5132: real time    4.5157

 eigenvalue-minimisations  :     0
 total energy-change (2. order) :-0.5756901E-03  (-0.8284951E-03)
 number of electron     280.0000050 magnetization       0.4441364
 augmentation part       18.5219366 magnetization       0.0261343

 Free energy of the ion-electron system (eV)
  ---------------------------------------------------
  alpha Z        PSCENC =       154.69642529
  Ewald energy   TEWEN  =     26994.43473883
  -Hartree energ DENC   =    -39627.75277801
  -exchange      EXHF   =         0.00000000
  -V(xc)+E(xc)   XCENC  =      1101.24491372
  PAW double counting   =     30349.03006847   -30849.47879256
  entropy T*S    EENTRO =        -0.04819811
  eigenvalues    EBANDS =     -3785.91555697
  atomic energy  EATOM  =     15171.73615219
  ---------------------------------------------------
  free energy    TOTEN  =      -492.05662197 eV

  energy without entropy =     -492.00842385  energy(sigma->0) =     -492.03252291


--------------------------------------------------------------------------------------------------------




--------------------------------------- Iteration      1(  24)  ---------------------------------------


[...]
    143      -1.5186      0.00000
    144      -1.3349      0.00000
    145      -1.2100      0.00000
    146      -1.1891      0.00000
    147      -1.0666      0.00000
    148      -1.0190      0.00000
    149      -0.6914      0.00000
    150      -0.6698      0.00000
    151      -0.4256      0.00000
    152      -0.4020      0.00000
    153      -0.1418      0.00000
    154       0.2663      0.00000
    155       0.8276      0.00000
    156       1.0006      0.00000
    157       1.1037      0.00000
    158       1.1846      0.00000
    159       1.3699      0.00000
    160       1.4088      0.00000
    161       1.4758      0.00000
    162       1.6037      0.00000
    163       1.6245      0.00000
    164       1.7584      0.00000
    165       1.7988      0.00000
    166       1.9822      0.00000
    167       2.1153      0.00000
    168       2.1328      0.00000
    169       2.1947      0.00000
    170       2.2779      0.00000
    171       2.4192      0.00000
    172       2.5220      0.00000


--------------------------------------------------------------------------------------------------------


 soft charge-density along one line, spin component           1
         0         1         2         3         4         5         6         7         8         9
 total charge-density along one line

 soft charge-density along one line, spin component           2
         0         1         2         3         4         5         6         7         8         9
 total charge-density along one line

 pseudopotential strength for first ion, spin component:           1
 10.354  13.772   0.004  -0.002  -0.000  -0.010   0.004   0.001
 13.772  18.319   0.005  -0.002  -0.000  -0.014   0.006   0.001
  0.004   0.005  -4.479   0.000   0.000   8.766  -0.000  -0.000
 -0.002  -0.002   0.000  -4.469   0.001  -0.000   8.750  -0.001
 -0.000  -0.000   0.000   0.001  -4.480  -0.000  -0.001   8.767
 -0.010  -0.014   8.766  -0.000  -0.000 -19.304   0.001   0.001
  0.004   0.006  -0.000   8.750  -0.001   0.001 -19.279   0.002
  0.001   0.001  -0.000  -0.001   8.767   0.001   0.002 -19.301
 pseudopotential strength for first ion, spin component:           2
 10.352  13.769   0.004  -0.002  -0.000  -0.010   0.005   0.001
 13.769  18.314   0.005  -0.002  -0.000  -0.013   0.007   0.001
  0.004   0.005  -4.479   0.001   0.000   8.766  -0.002  -0.001
 -0.002  -0.002   0.001  -4.467   0.001  -0.002   8.748  -0.002
 -0.000  -0.000   0.000   0.001  -4.480  -0.001  -0.002   8.768
 -0.010  -0.013   8.766  -0.002  -0.001 -19.305   0.003   0.001
  0.005   0.007  -0.002   8.748  -0.002   0.003 -19.276   0.002
  0.001   0.001  -0.001  -0.002   8.768   0.001   0.002 -19.303
 total augmentation occupancy for first ion, spin component:           1
  8.451  -3.915  -0.154   0.030   0.001  -0.025   0.008   0.000
 -3.915   1.923   0.034   0.010   0.002   0.012  -0.004  -0.000
 -0.154   0.034   1.657  -0.009  -0.009   0.165  -0.003  -0.001
  0.030   0.010  -0.009   1.180  -0.062  -0.003   0.067  -0.011
  0.001   0.002  -0.009  -0.062   1.875  -0.001  -0.011   0.188
 -0.025   0.012   0.165  -0.003  -0.001   0.019  -0.000  -0.000
  0.008  -0.004  -0.003   0.067  -0.011  -0.000   0.004  -0.002
  0.000  -0.000  -0.001  -0.011   0.188  -0.000  -0.002   0.022
 total augmentation occupancy for first ion, spin component:           2
  0.001  -0.000  -0.000  -0.002  -0.001   0.000  -0.000  -0.000
 -0.000   0.001   0.001   0.003   0.001  -0.000   0.000   0.000
 -0.000   0.001   0.002   0.005   0.001  -0.000  -0.000  -0.000
 -0.002   0.003   0.005   0.010   0.001  -0.000  -0.000  -0.000
 -0.001   0.001   0.001   0.001   0.000  -0.000  -0.000  -0.000
  0.000  -0.000  -0.000  -0.000  -0.000  -0.000  -0.000  -0.000
 -0.000   0.000  -0.000  -0.000  -0.000  -0.000  -0.000  -0.000
 -0.000   0.000  -0.000  -0.000  -0.000  -0.000  -0.000  -0.000


------------------------ aborting loop because EDIFF is reached ----------------------------------------


    FORLOC:  cpu time    0.0103: real time    0.0103
    FORNL :  cpu time    0.7314: real time    0.7315
    STRESS:  cpu time    2.1683: real time    2.1684
    FORCOR:  cpu time    0.1009: real time    0.1009
    OFIELD:  cpu time    0.0003: real time    0.0003

 ---------------------------------------------------------------------------------------------

         DFTD3 V3.0 Rev 1        
 Edisp (eV)   -4.16338

 E6    (eV) :    -2.9260
 E8    (eV) :    -1.2374
 % E8        : 29.72
    FORVDW:  cpu time    0.1096: real time    0.1180

  FORCE on cell =-STRESS in cart. coord.  units (eV):
  Direction    XX          YY          ZZ          XY          YZ          ZX
  --------------------------------------------------------------------------------------
  Alpha Z   154.69643   154.69643   154.69643
  Ewald   34981.43383 32379.60862-40406.09299  -228.07253   936.80710   436.85708
  Hartree 36152.89368 34270.96325-30836.91159  -147.02734   598.85321   274.05260
  E(xc)   -1169.49763 -1172.22044 -1195.10545    -0.30647     1.40047     0.72712
  Local  -74517.07263-70081.44972 67368.10636   370.82700 -1512.18967  -698.45622
  n-local  -491.35530  -493.96681  -482.35103    -3.03096     2.46167    -0.12278
  augment   150.86704   151.58307   155.78075    -0.06146     0.39384     0.08699
  Kinetic  4736.03967  4787.88396  5234.94414     7.05790   -27.68601   -13.21845
  Fock        0.00000     0.00000     0.00000     0.00000     0.00000     0.00000
  vdW        -0.85012    -1.22985    -0.28391    -0.05353     0.09874     0.08228
  -------------------------------------------------------------------------------------
  Total      -2.84505    -4.13149    -7.21729    -0.66738     0.13935     0.00862
  in kB      -1.89241    -2.74809    -4.80063    -0.44391     0.09269     0.00573
  external pressure =       -3.15 kB  Pullay stress =        0.00 kB


 VOLUME and BASIS-vectors are now :
 -----------------------------------------------------------------------------
  energy-cutoff  :      440.00
  volume of cell :     2408.72
      direct lattice vectors                 reciprocal lattice vectors
    13.843424235 -0.190740474  0.000000000     0.072830369  0.043104114 -0.000000000
    -6.921712117 11.695190994  0.000000000     0.001187813  0.086208229 -0.000000000
     0.000000000  0.000000000 15.000000000    -0.000000000 -0.000000000  0.066666667

  length of vectors
    13.844738223 13.589981274 15.000000000     0.084629944  0.086216411  0.066666667


 FORCES acting on ions:
    Electron-Ion                     Ewald-Force                    Non-Local-Force
 -----------------------------------------------------------------------------------------------
   -.532E+01 0.967E+01 0.120E+03   0.552E+01 -.130E+02 -.119E+03   -.208E+00 0.336E+01 -.161E+01
   -.410E+00 0.359E+02 0.127E+03   0.329E+01 -.358E+02 -.127E+03   -.288E+01 -.144E+00 0.193E+00
   -.130E+02 0.376E+02 0.125E+03   0.104E+02 -.373E+02 -.126E+03   0.265E+01 -.247E+00 0.535E+00
   0.663E+02 -.579E+02 -.767E+02   -.689E+02 0.593E+02 0.769E+02   0.257E+01 -.142E+01 -.220E+00
   -.162E+02 0.528E+02 0.193E+03   0.167E+02 -.555E+02 -.195E+03   -.419E+00 0.273E+01 0.145E+01
   -.603E+02 -.160E+02 0.944E+02   0.629E+02 0.171E+02 -.953E+02   -.262E+01 -.128E+01 0.101E+01
   0.486E+02 -.312E+02 -.210E+02   -.491E+02 0.287E+02 0.201E+02   0.489E+00 0.253E+01 0.926E+00
   0.320E+02 -.236E+02 -.372E+02   -.293E+02 0.254E+02 0.368E+02   -.266E+01 -.178E+01 0.402E+00
   -.480E+01 -.245E+01 -.514E+02   0.171E+01 0.400E+01 0.512E+02   0.306E+01 -.154E+01 0.224E+00
   -.355E+02 0.250E+02 -.546E+02   0.344E+02 -.235E+02 0.556E+02   0.108E+01 -.149E+01 -.924E+00
   -.412E+01 0.337E+01 0.584E+02   0.406E+01 -.617E+01 -.578E+02   0.559E-01 0.285E+01 -.647E+00
   0.405E+02 0.226E+02 -.471E+02   -.393E+02 -.208E+02 0.478E+02   -.127E+01 -.184E+01 -.661E+00
   -.320E+01 -.174E+02 -.957E+01   0.331E+01 0.140E+02 0.102E+02   -.119E+00 0.336E+01 -.621E+00
   0.385E+02 0.291E+02 0.186E+03   -.355E+02 -.276E+02 -.185E+03   -.284E+01 -.144E+01 -.552E+00
   -.141E+02 0.231E+02 0.854E+02   0.111E+02 -.216E+02 -.849E+02   0.301E+01 -.140E+01 -.532E+00
   0.623E+02 -.144E+02 0.661E+02   -.649E+02 0.156E+02 -.665E+02   0.265E+01 -.133E+01 0.532E+00
   0.468E+01 0.745E+02 0.205E+03   -.470E+01 -.771E+02 -.207E+03   -.100E-01 0.266E+01 0.140E+01
   -.631E+02 -.603E+02 -.875E+02   0.656E+02 0.617E+02 0.879E+02   -.256E+01 -.144E+01 -.421E+00
   -.439E+02 -.303E+02 -.124E+03   0.442E+02 0.278E+02 0.123E+03   -.279E+00 0.246E+01 0.971E+00
   0.836E+01 -.314E+01 -.988E+02   -.523E+01 0.462E+01 0.983E+02   -.310E+01 -.147E+01 0.471E+00
   -.352E+02 -.187E+02 -.757E+02   0.326E+02 0.206E+02 0.749E+02   0.267E+01 -.186E+01 0.783E+00
   0.729E+02 -.663E+02 0.137E+03   -.753E+02 0.681E+02 -.137E+03   0.255E+01 -.181E+01 0.106E+00
   -.993E+01 0.411E+02 -.174E+03   0.996E+01 -.443E+02 0.175E+03   -.375E-01 0.317E+01 -.135E+01
   -.848E+02 -.235E+02 -.514E+02   0.875E+02 0.243E+02 0.523E+02   -.284E+01 -.826E+00 -.924E+00
   -.142E+02 0.406E+02 0.174E+03   0.146E+02 -.413E+02 -.177E+03   -.367E+00 0.640E+00 0.310E+01
   -.188E+03 -.282E+02 0.220E+03   0.219E+03 0.447E+02 -.232E+03   -.307E+02 -.165E+02 0.122E+02
   0.155E+03 -.156E+03 -.219E+03   -.186E+03 0.172E+03 0.230E+03   0.303E+02 -.160E+02 -.111E+02
   0.157E+01 0.166E+03 0.382E+03   0.118E+01 -.195E+03 -.404E+03   -.273E+01 0.285E+02 0.225E+02
   -.377E+02 0.142E+03 0.400E+03   0.352E+02 -.169E+03 -.424E+03   0.248E+01 0.268E+02 0.246E+02
   0.187E+03 -.982E+02 -.101E+03   -.217E+03 0.118E+03 0.101E+03   0.294E+02 -.200E+02 -.800E-01
   -.139E+03 -.794E+02 0.245E+03   0.169E+03 0.887E+02 -.265E+03   -.298E+02 -.925E+01 0.194E+02
   -.460E+01 -.485E+00 -.190E+02   0.480E+01 0.464E+00 0.201E+02   -.200E+00 0.280E-01 -.108E+01
   0.250E+02 -.282E+02 -.815E+02   -.253E+02 0.287E+02 0.856E+02   0.302E+00 -.515E+00 -.406E+01
   0.198E+02 -.575E+02 -.267E+03   0.116E+01 0.702E+02 0.289E+03   -.208E+02 -.127E+02 -.226E+02
   0.131E+02 0.767E+02 -.552E+02   -.335E+02 -.721E+02 0.661E+02   0.204E+02 -.461E+01 -.110E+02
   -.295E+02 0.897E+02 0.135E+03   0.324E+02 -.123E+03 -.145E+03   -.295E+01 0.328E+02 0.981E+01
   0.107E+02 0.854E+02 0.151E+03   -.128E+02 -.118E+03 -.161E+03   0.209E+01 0.325E+02 0.100E+02
   0.141E+02 -.567E+02 -.294E+03   -.394E+02 0.699E+02 0.311E+03   0.252E+02 -.132E+02 -.171E+02
   -.924E+01 0.822E+02 -.861E+02   0.281E+02 -.779E+02 0.101E+03   -.189E+02 -.433E+01 -.149E+02
   0.551E+02 0.215E+02 0.780E+02   -.595E+02 -.244E+02 -.772E+02   0.438E+01 0.292E+01 -.783E+00
   0.142E+02 0.378E+02 0.142E+03   -.161E+02 -.393E+02 -.146E+03   0.190E+01 0.145E+01 0.384E+01
   -.184E+03 -.103E+03 -.112E+03   0.213E+03 0.122E+03 0.113E+03   -.298E+02 -.192E+02 -.910E+00
   0.143E+03 -.669E+02 0.192E+03   -.174E+03 0.759E+02 -.209E+03   0.308E+02 -.890E+01 0.167E+02
   0.125E+02 0.162E+03 0.414E+03   -.772E+01 -.190E+03 -.436E+03   -.478E+01 0.276E+02 0.229E+02
   0.650E+01 0.229E+03 0.349E+03   -.827E+01 -.263E+03 -.360E+03   0.176E+01 0.337E+02 0.111E+02
   0.189E+03 -.296E+02 0.135E+03   -.221E+03 0.473E+02 -.141E+03   0.313E+02 -.177E+02 0.571E+01
   -.142E+03 -.159E+03 -.269E+03   0.170E+03 0.175E+03 0.283E+03   -.288E+02 -.159E+02 -.142E+02
   0.406E+00 -.432E+02 -.104E+01   -.282E+00 0.448E+02 -.144E+01   -.124E+00 -.164E+01 0.247E+01
   -.255E+02 -.303E+02 -.169E+03   0.255E+02 0.322E+02 0.175E+03   0.248E-02 -.179E+01 -.541E+01
   -.225E+03 -.645E+02 -.852E+02   0.255E+03 0.829E+02 0.865E+02   -.304E+02 -.183E+02 -.128E+01
   0.174E+03 -.143E+03 0.298E+03   -.205E+03 0.158E+03 -.305E+03   0.308E+02 -.158E+02 0.703E+01
   0.404E+01 0.142E+03 -.358E+03   0.496E+00 -.170E+03 0.381E+03   -.456E+01 0.283E+02 -.226E+02
   -.365E+02 0.109E+03 -.405E+03   0.350E+02 -.136E+03 0.431E+03   0.153E+01 0.263E+02 -.260E+02
   0.188E+03 -.125E+03 0.232E+03   -.212E+03 0.148E+03 -.244E+03   0.240E+02 -.227E+02 0.123E+02
   -.165E+03 -.704E+02 -.172E+03   0.197E+03 0.792E+02 0.186E+03   -.319E+02 -.884E+01 -.142E+02
   -.529E+02 0.246E+02 0.507E+02   0.560E+02 -.269E+02 -.528E+02   -.308E+01 0.226E+01 0.211E+01
   0.349E+02 -.124E+03 -.660E+03   -.362E+02 0.140E+03 0.674E+03   0.130E+01 -.157E+02 -.144E+02
   -.812E+02 -.171E+03 -.238E+03   0.919E+02 0.194E+03 0.228E+03   -.107E+02 -.225E+02 0.106E+02
   0.956E+02 0.207E+03 -.483E+03   -.118E+03 -.255E+03 0.509E+03   0.228E+02 0.478E+02 -.253E+02
 -----------------------------------------------------------------------------------------------
   -.916E+01 -.272E+02 0.103E+02   -.213E-12 0.568E-13 0.853E-12   0.916E+01 0.273E+02 -.102E+02


 POSITION                                       TOTAL-FORCE (eV/Angst)
 -----------------------------------------------------------------------------------
     -0.01657      2.47281      6.65416        -0.004739      0.005307      0.006764
      1.22332      4.60172      6.76108         0.001224     -0.001810     -0.016794
     -1.27829      4.55851      6.67203        -0.004106     -0.006328     -0.018685
      5.74802      0.66111      7.85055        -0.025709     -0.016971     -0.004882
      3.49172      4.59896      6.45534        -0.006170     -0.003473      0.008462
      1.18472      0.59171      6.99760         0.017760     -0.061442      0.023244
     -3.59437      8.30225      7.51895        -0.037871      0.042023     -0.005111
     -2.22732     10.35289      7.78309        -0.039735      0.005059     -0.000344
     -4.68359     10.44566      7.73932        -0.011541     -0.004974      0.000042
      2.40593      6.31767      7.78617        -0.037202      0.010393      0.024629
      0.03887     10.27187      7.59669         0.005167     -0.020053     -0.017381
     -2.54861      6.31621      7.46660         0.000815     -0.011804      0.015733
      6.98577      2.48872      7.35886         0.001548     -0.009100     -0.000265
      8.09882      4.40714      6.26350         0.034436      0.001596     -0.006052
      5.72168      4.49547      6.80233         0.009728      0.000881     -0.004911
     12.64416      0.42962      7.17996        -0.025854     -0.068390      0.031824
     10.34177      4.33310      6.17706        -0.023328      0.010786      0.003282
      8.16816      0.64793      7.94587         0.018921     -0.023490      0.001628
      3.56419      8.19489      8.23514         0.033913      0.026743      0.003143
      4.72220     10.33936      8.11303         0.013942      0.004735     -0.005312
      2.26050     10.31877      8.08596         0.018996      0.009357      0.008117
      9.08892      6.40020      6.57079         0.016715     -0.053397     -0.006824
      6.96952     10.35938      8.28866        -0.004970     -0.010327      0.008393
      4.76420      6.36550      7.61928        -0.024801     -0.021555      0.014101
     -0.01499      3.89134      6.62625        -0.001757     -0.029940      0.004435
      1.16360      1.84566      6.57640        -0.001704      0.032903     -0.020162
      4.64101     -0.04638      8.09814         0.021674      0.012742     -0.004526
      4.64940      4.02309      6.14982         0.029093     -0.029577      0.011070
      2.28198      4.13940      6.11681        -0.043422      0.000879      0.015602
      5.77463      1.96908      7.66329         0.004959      0.001771      0.006258
     -4.64325     11.52354      6.96903        -0.030275      0.027393     -0.012903
      0.01648      0.01848      7.51297         0.004206      0.005506     -0.006145
     -3.47235      9.67987      7.76835        -0.006830      0.025943     -0.020985
     -2.61313      7.51522      8.02250         0.038732      0.042737     -0.000784
      1.22074      5.68589      7.61901        -0.025215      0.011197     -0.048500
      1.20790      9.62000      7.61121        -0.027850     -0.010669     -0.010609
     -1.12894      9.63573      7.45400         0.027807     -0.007171     -0.005322
      2.42097      7.47677      8.42781        -0.035410      0.032759     -0.004684
     -1.38212      5.63672      7.52138         0.031359     -0.001304     -0.028355
     10.24239      5.60310      6.80784        -0.000372     -0.008412      0.008567
      6.95440      3.73523      6.71355        -0.014414     -0.034516     -0.030361
      8.17695      1.95154      7.69785        -0.000925      0.006736      0.005499
      4.62464     11.37381      7.28835         0.019330      0.011472     -0.002317
     -2.26447      4.05736      5.95119         0.049081      0.006280      0.028423
      9.20677      3.70019      5.95259        -0.009850     -0.019030      0.020492
     12.63177      1.68984      6.79408         0.006360      0.054522     -0.019151
      9.22238     -0.06942      8.35708        -0.012898      0.004017     -0.004050
      6.96100     -0.05052      7.73514         0.001139      0.006204     -0.011623
      3.48895      9.60131      8.27937         0.007115      0.038085     -0.009577
      4.74384      7.64762      7.96445        -0.000950      0.029782      0.005475
      8.00785      5.76378      6.19569        -0.009598      0.012502     -0.005247
     -5.68553      9.96615      8.49638        -0.020505      0.012002     -0.007830
      5.80559      9.88621      8.75965         0.015869      0.012440     -0.008534
     -4.63362      7.91448      6.78183         0.004048      0.034645      0.002634
      5.84316      5.61601      7.52811         0.028641     -0.014964      0.025539
      3.53160      5.76424      7.27495         0.007101     -0.012133      0.000707
     -0.11918      7.06645      8.49094         0.017191     -0.036942     -0.028687
     -0.05570      6.99013     11.44057        -0.014103     -0.049702      0.085158
     -0.50282      6.05167     11.93138         0.015233      0.028075      0.007691
 -----------------------------------------------------------------------------------
    total drift:                               -0.006864      0.067845      0.115505


--------------------------------------------------------------------------------------------------------



  FREE ENERGIE OF THE ION-ELECTRON SYSTEM (eV)
  ---------------------------------------------------
  free  energy   TOTEN  =      -496.50316706 eV

  energy  without entropy=     -496.45757072  energy(sigma->0) =     -496.48036889

 d Force = 0.3820045E-03[ 0.231E-04, 0.741E-03]  d Energy = 0.3633045E-03 0.187E-04
 d Force = 0.1412250E+01[ 0.141E+01, 0.141E+01]  d Ewald  = 0.1412250E+01 0.634E-06


--------------------------------------------------------------------------------------------------------


    POTLOK:  cpu time    0.1580: real time    0.1580


--------------------------------------------------------------------------------------------------------




--------------------------------------------------------------------------------------------------------


  
 reached required accuracy - stopping structural energy minimisation
     LOOP+:  cpu time   30.9682: real time   31.3211
    4ORBIT:  cpu time    0.0000: real time    0.0000

 total amount of memory used by VASP MPI-rank0   116151. kBytes
=======================================================================

   base      :      30000. kBytes
   nonlr-proj:       2456. kBytes
   fftplans  :       3350. kBytes
   grid      :       9783. kBytes
   one-center:        155. kBytes
   wavefun   :      70407. kBytes

  
  
 General timing and accounting informations for this job:
 ========================================================
  
                  Total CPU time used (sec):     1218.713
                            User time (sec):     1217.289
                          System time (sec):        1.424
                         Elapsed time (sec):     1225.471
  
                   Maximum memory used (kb):      200204.
                   Average memory used (kb):           0.
  
                          Minor page faults:       279140
                          Major page faults:            0
                 Voluntary context switches:         6227
