  71  71   0   0
  0.4004329E+02  0.1486491E-08  0.1475723E-08  0.1500000E-08  0.3000000E-15
  1.000000000000000E-004
  CAR 
 unknown system                          
      5.29103267    -48.62438656  301     -2.10116928      1.00000000
    -48.624  0.0000E+00  0.0000E+00  0.0000E+00  0.0000E+00
    -48.445  0.0000E+00  0.0000E+00  0.0000E+00  0.0000E+00
    -48.265  0.0000E+00  0.0000E+00  0.0000E+00  0.0000E+00
    -48.085  0.0000E+00  0.0000E+00  0.0000E+00  0.0000E+00
    -47.906  0.0000E+00  0.0000E+00  0.0000E+00  0.0000E+00
    -47.726  0.0000E+00  0.0000E+00  0.0000E+00  0.0000E+00
    -47.546  0.0000E+00  0.0000E+00  0.0000E+00  0.0000E+00
    -47.366  0.0000E+00  0.0000E+00  0.0000E+00  0.0000E+00
    -47.187  0.0000E+00  0.0000E+00  0.0000E+00  0.0000E+00
    -47.007  0.0000E+00  0.0000E+00  0.0000E+00  0.0000E+00
    -46.827  0.0000E+00  0.0000E+00  0.0000E+00  0.0000E+00
    -46.647  0.1442E-12  0.0000E+00  0.2592E-13  0.0000E+00
    -46.468  0.2222E-06  0.0000E+00  0.3993E-07  0.0000E+00
    -46.288  0.7354E-03  0.0000E+00  0.1322E-03  0.0000E+00
    -46.108  0.1102E-01  0.0000E+00  0.2113E-02  0.0000E+00
    -45.929  0.1792E-01  0.0000E+00  0.5334E-02  0.0000E+00
    -45.749  0.1193E-01  0.0000E+00  0.7478E-02  0.0000E+00
    -45.569  0.1248E-03  0.0000E+00  0.7500E-02  0.0000E+00
    -45.389  0.4956E-08  0.0000E+00  0.7500E-02  0.0000E+00
    -45.210  0.4232E-15  0.0000E+00  0.7500E-02  0.0000E+00
    -45.030  0.0000E+00  0.0000E+00  0.7500E-02  0.0000E+00
    -44.850  0.0000E+00  0.0000E+00  0.7500E-02  0.0000E+00
    -44.671  0.0000E+00  0.9266E-17  0.7500E-02  0.1665E-17
    -44.491  0.0000E+00  0.3441E-09  0.7500E-02  0.6183E-10
    -44.311  0.0000E+00  0.2501E-04  0.7500E-02  0.4495E-05
    -44.131  0.0000E+00  0.4924E-02  0.7500E-02  0.8894E-03
    -43.952  0.0000E+00  0.1038E-01  0.7500E-02  0.2755E-02
    -43.772  0.0000E+00  0.1524E-01  0.7500E-02  0.5495E-02
    -43.592  0.0000E+00  0.1083E-01  0.7500E-02  0.7440E-02
    -43.413  0.0000E+00  0.3334E-03  0.7500E-02  0.7500E-02
    -43.233  0.0000E+00  0.4294E-07  0.7500E-02  0.7500E-02
    -43.053  0.0000E+00  0.1142E-13  0.7500E-02  0.7500E-02
    -42.873  0.0000E+00  0.0000E+00  0.7500E-02  0.7500E-02
    -42.694  0.0000E+00  0.0000E+00  0.7500E-02  0.7500E-02
    -42.514  0.0000E+00  0.0000E+00  0.7500E-02  0.7500E-02
    -42.334  0.0000E+00  0.0000E+00  0.7500E-02  0.7500E-02
    -42.155  0.0000E+00  0.0000E+00  0.7500E-02  0.7500E-02
    -41.975  0.0000E+00  0.0000E+00  0.7500E-02  0.7500E-02
    -41.795  0.0000E+00  0.0000E+00  0.7500E-02  0.7500E-02
    -41.615  0.0000E+00  0.0000E+00  0.7500E-02  0.7500E-02
    -41.436  0.0000E+00  0.0000E+00  0.7500E-02  0.7500E-02
    -41.256  0.0000E+00  0.0000E+00  0.7500E-02  0.7500E-02
    -41.076  0.0000E+00  0.0000E+00  0.7500E-02  0.7500E-02
    -40.897  0.0000E+00  0.0000E+00  0.7500E-02  0.7500E-02
    -40.717  0.0000E+00  0.0000E+00  0.7500E-02  0.7500E-02
    -40.537  0.0000E+00  0.0000E+00  0.7500E-02  0.7500E-02
    -40.357  0.0000E+00  0.0000E+00  0.7500E-02  0.7500E-02
    -40.178  0.0000E+00  0.0000E+00  0.7500E-02  0.7500E-02
    -39.998  0.0000E+00  0.0000E+00  0.7500E-02  0.7500E-02
    -39.818  0.0000E+00  0.0000E+00  0.7500E-02  0.7500E-02
    -39.638  0.0000E+00  0.0000E+00  0.7500E-02  0.7500E-02
    -39.459  0.0000E+00  0.0000E+00  0.7500E-02  0.7500E-02
    -39.279  0.0000E+00  0.0000E+00  0.7500E-02  0.7500E-02
    -39.099  0.0000E+00  0.0000E+00  0.7500E-02  0.7500E-02
    -38.920  0.0000E+00  0.0000E+00  0.7500E-02  0.7500E-02
    -38.740  0.0000E+00  0.0000E+00  0.7500E-02  0.7500E-02
    -38.560  0.0000E+00  0.0000E+00  0.7500E-02  0.7500E-02
    -38.380  0.0000E+00  0.0000E+00  0.7500E-02  0.7500E-02
    -38.201  0.0000E+00  0.0000E+00  0.7500E-02  0.7500E-02
    -38.021  0.0000E+00  0.0000E+00  0.7500E-02  0.7500E-02
    -37.841  0.0000E+00  0.0000E+00  0.7500E-02  0.7500E-02
    -37.662  0.0000E+00  0.0000E+00  0.7500E-02  0.7500E-02
    -37.482  0.0000E+00  0.0000E+00  0.7500E-02  0.7500E-02
    -37.302  0.0000E+00  0.0000E+00  0.7500E-02  0.7500E-02
    -37.122  0.0000E+00  0.0000E+00  0.7500E-02  0.7500E-02
    -36.943  0.0000E+00  0.0000E+00  0.7500E-02  0.7500E-02
    -36.763  0.0000E+00  0.0000E+00  0.7500E-02  0.7500E-02
    -36.583  0.0000E+00  0.0000E+00  0.7500E-02  0.7500E-02
    -36.404  0.0000E+00  0.0000E+00  0.7500E-02  0.7500E-02
    -36.224  0.0000E+00  0.0000E+00  0.7500E-02  0.7500E-02
    -36.044  0.0000E+00  0.0000E+00  0.7500E-02  0.7500E-02
    -35.864  0.0000E+00  0.0000E+00  0.7500E-02  0.7500E-02
    -35.685  0.0000E+00  0.0000E+00  0.7500E-02  0.7500E-02
    -35.505  0.0000E+00  0.0000E+00  0.7500E-02  0.7500E-02
    -35.325  0.0000E+00  0.0000E+00  0.7500E-02  0.7500E-02
    -35.146  0.0000E+00  0.0000E+00  0.7500E-02  0.7500E-02
    -34.966  0.0000E+00  0.0000E+00  0.7500E-02  0.7500E-02
    -34.786  0.0000E+00  0.0000E+00  0.7500E-02  0.7500E-02
    -34.606  0.0000E+00  0.0000E+00  0.7500E-02  0.7500E-02
    -34.427  0.0000E+00  0.0000E+00  0.7500E-02  0.7500E-02
    -34.247  0.0000E+00  0.0000E+00  0.7500E-02  0.7500E-02
    -34.067  0.0000E+00  0.0000E+00  0.7500E-02  0.7500E-02
    -33.888  0.0000E+00  0.0000E+00  0.7500E-02  0.7500E-02
    -33.708  0.0000E+00  0.0000E+00  0.7500E-02  0.7500E-02
    -33.528  0.0000E+00  0.0000E+00  0.7500E-02  0.7500E-02
    -33.348  0.0000E+00  0.0000E+00  0.7500E-02  0.7500E-02
    -33.169  0.0000E+00  0.0000E+00  0.7500E-02  0.7500E-02
    -32.989  0.0000E+00  0.0000E+00  0.7500E-02  0.7500E-02
    -32.809  0.0000E+00  0.0000E+00  0.7500E-02  0.7500E-02
    -32.629  0.0000E+00  0.0000E+00  0.7500E-02  0.7500E-02
    -32.450  0.0000E+00  0.0000E+00  0.7500E-02  0.7500E-02
    -32.270  0.0000E+00  0.0000E+00  0.7500E-02  0.7500E-02
    -32.090  0.0000E+00  0.0000E+00  0.7500E-02  0.7500E-02
    -31.911  0.0000E+00  0.0000E+00  0.7500E-02  0.7500E-02
    -31.731  0.0000E+00  0.0000E+00  0.7500E-02  0.7500E-02
    -31.551  0.0000E+00  0.0000E+00  0.7500E-02  0.7500E-02
    -31.371  0.0000E+00  0.0000E+00  0.7500E-02  0.7500E-02
    -31.192  0.0000E+00  0.0000E+00  0.7500E-02  0.7500E-02
    -31.012  0.0000E+00  0.0000E+00  0.7500E-02  0.7500E-02
    -30.832  0.0000E+00  0.0000E+00  0.7500E-02  0.7500E-02
    -30.653  0.0000E+00  0.0000E+00  0.7500E-02  0.7500E-02
    -30.473  0.0000E+00  0.0000E+00  0.7500E-02  0.7500E-02
    -30.293  0.0000E+00  0.0000E+00  0.7500E-02  0.7500E-02
    -30.113  0.0000E+00  0.0000E+00  0.7500E-02  0.7500E-02
    -29.934  0.0000E+00  0.0000E+00  0.7500E-02  0.7500E-02
    -29.754  0.0000E+00  0.0000E+00  0.7500E-02  0.7500E-02
    -29.574  0.0000E+00  0.0000E+00  0.7500E-02  0.7500E-02
    -29.395  0.0000E+00  0.0000E+00  0.7500E-02  0.7500E-02
    -29.215  0.0000E+00  0.0000E+00  0.7500E-02  0.7500E-02
    -29.035  0.0000E+00  0.0000E+00  0.7500E-02  0.7500E-02
    -28.855  0.0000E+00  0.0000E+00  0.7500E-02  0.7500E-02
    -28.676  0.0000E+00  0.0000E+00  0.7500E-02  0.7500E-02
    -28.496  0.0000E+00  0.0000E+00  0.7500E-02  0.7500E-02
    -28.316  0.0000E+00  0.0000E+00  0.7500E-02  0.7500E-02
    -28.137  0.0000E+00  0.0000E+00  0.7500E-02  0.7500E-02
    -27.957  0.0000E+00  0.0000E+00  0.7500E-02  0.7500E-02
    -27.777  0.0000E+00  0.0000E+00  0.7500E-02  0.7500E-02
    -27.597  0.0000E+00  0.0000E+00  0.7500E-02  0.7500E-02
    -27.418  0.0000E+00  0.0000E+00  0.7500E-02  0.7500E-02
    -27.238  0.0000E+00  0.0000E+00  0.7500E-02  0.7500E-02
    -27.058  0.0000E+00  0.0000E+00  0.7500E-02  0.7500E-02
    -26.879  0.0000E+00  0.0000E+00  0.7500E-02  0.7500E-02
    -26.699  0.0000E+00  0.0000E+00  0.7500E-02  0.7500E-02
    -26.519  0.0000E+00  0.0000E+00  0.7500E-02  0.7500E-02
    -26.339  0.0000E+00  0.0000E+00  0.7500E-02  0.7500E-02
    -26.160  0.0000E+00  0.0000E+00  0.7500E-02  0.7500E-02
    -25.980  0.0000E+00  0.0000E+00  0.7500E-02  0.7500E-02
    -25.800  0.0000E+00  0.0000E+00  0.7500E-02  0.7500E-02
    -25.620  0.0000E+00  0.0000E+00  0.7500E-02  0.7500E-02
    -25.441  0.0000E+00  0.0000E+00  0.7500E-02  0.7500E-02
    -25.261  0.0000E+00  0.0000E+00  0.7500E-02  0.7500E-02
    -25.081  0.0000E+00  0.0000E+00  0.7500E-02  0.7500E-02
    -24.902  0.0000E+00  0.0000E+00  0.7500E-02  0.7500E-02
    -24.722  0.3089E-17  0.6178E-17  0.7500E-02  0.7500E-02
    -24.542  0.1506E-09  0.2715E-09  0.7500E-02  0.7500E-02
    -24.362  0.1557E-04  0.2185E-04  0.7503E-02  0.7504E-02
    -24.183  0.4203E-02  0.4710E-02  0.8258E-02  0.8350E-02
    -24.003  0.9395E-02  0.8948E-02  0.9947E-02  0.9958E-02
    -23.823  0.2970E-03  0.2309E-03  0.1000E-01  0.1000E-01
    -23.644  0.3422E-07  0.2083E-07  0.1000E-01  0.1000E-01
    -23.464  0.8085E-14  0.3812E-14  0.1000E-01  0.1000E-01
    -23.284  0.0000E+00  0.0000E+00  0.1000E-01  0.1000E-01
    -23.104  0.0000E+00  0.0000E+00  0.1000E-01  0.1000E-01
    -22.925  0.0000E+00  0.0000E+00  0.1000E-01  0.1000E-01
    -22.745  0.0000E+00  0.0000E+00  0.1000E-01  0.1000E-01
    -22.565  0.0000E+00  0.0000E+00  0.1000E-01  0.1000E-01
    -22.386  0.0000E+00  0.0000E+00  0.1000E-01  0.1000E-01
    -22.206  0.0000E+00  0.0000E+00  0.1000E-01  0.1000E-01
    -22.026  0.5004E-14  0.7741E-14  0.1000E-01  0.1000E-01
    -21.846  0.1649E-07  0.2197E-07  0.1000E-01  0.1000E-01
    -21.667  0.1363E-03  0.1584E-03  0.1002E-01  0.1003E-01
    -21.487  0.7125E-02  0.7468E-02  0.1131E-01  0.1137E-01
    -21.307  0.1425E-01  0.1413E-01  0.1387E-01  0.1391E-01
    -21.128  0.9587E-02  0.9700E-02  0.1559E-01  0.1565E-01
    -20.948  0.1339E-01  0.1343E-01  0.1799E-01  0.1807E-01
    -20.768  0.1317E-01  0.1326E-01  0.2036E-01  0.2045E-01
    -20.588  0.1246E-01  0.1259E-01  0.2260E-01  0.2271E-01
    -20.409  0.1502E-01  0.1487E-01  0.2530E-01  0.2539E-01
    -20.229  0.1324E-01  0.1341E-01  0.2768E-01  0.2780E-01
    -20.049  0.1307E-01  0.1309E-01  0.3003E-01  0.3015E-01
    -19.869  0.9952E-02  0.9769E-02  0.3182E-01  0.3190E-01
    -19.690  0.1577E-01  0.1629E-01  0.3465E-01  0.3483E-01
    -19.510  0.1565E-01  0.1534E-01  0.3746E-01  0.3759E-01
    -19.330  0.1639E-01  0.1672E-01  0.4041E-01  0.4059E-01
    -19.151  0.1365E-01  0.1315E-01  0.4286E-01  0.4295E-01
    -18.971  0.1146E-01  0.1172E-01  0.4492E-01  0.4506E-01
    -18.791  0.1095E-01  0.1088E-01  0.4689E-01  0.4702E-01
    -18.611  0.1207E-01  0.1210E-01  0.4906E-01  0.4919E-01
    -18.432  0.1854E-01  0.1870E-01  0.5239E-01  0.5255E-01
    -18.252  0.2109E-01  0.2154E-01  0.5618E-01  0.5642E-01
    -18.072  0.1510E-01  0.1442E-01  0.5889E-01  0.5902E-01
    -17.893  0.9919E-02  0.9725E-02  0.6068E-01  0.6076E-01
    -17.713  0.5308E-02  0.5214E-02  0.6163E-01  0.6170E-01
    -17.533  0.1576E-01  0.1644E-01  0.6446E-01  0.6465E-01
    -17.353  0.1790E-01  0.1776E-01  0.6768E-01  0.6785E-01
    -17.174  0.1997E-01  0.2026E-01  0.7127E-01  0.7149E-01
    -16.994  0.2098E-01  0.2053E-01  0.7504E-01  0.7518E-01
    -16.814  0.1339E-01  0.1334E-01  0.7745E-01  0.7757E-01
    -16.635  0.1264E-01  0.1273E-01  0.7972E-01  0.7986E-01
    -16.455  0.1312E-01  0.1326E-01  0.8207E-01  0.8224E-01
    -16.275  0.1255E-01  0.1217E-01  0.8433E-01  0.8443E-01
    -16.095  0.9906E-02  0.1045E-01  0.8611E-01  0.8631E-01
    -15.916  0.2004E-01  0.2023E-01  0.8971E-01  0.8995E-01
    -15.736  0.1330E-01  0.1307E-01  0.9210E-01  0.9229E-01
    -15.556  0.8416E-02  0.8112E-02  0.9361E-01  0.9375E-01
    -15.377  0.9662E-02  0.9496E-02  0.9535E-01  0.9546E-01
    -15.197  0.1262E-01  0.1291E-01  0.9762E-01  0.9778E-01
    -15.017  0.1145E-01  0.1109E-01  0.9968E-01  0.9977E-01
    -14.837  0.1544E-01  0.1567E-01  0.1025E+00  0.1026E+00
    -14.658  0.1709E-01  0.1743E-01  0.1055E+00  0.1057E+00
    -14.478  0.1689E-01  0.1674E-01  0.1086E+00  0.1087E+00
    -14.298  0.1413E-01  0.1398E-01  0.1111E+00  0.1112E+00
    -14.119  0.1728E-01  0.1729E-01  0.1142E+00  0.1143E+00
    -13.939  0.1751E-01  0.1786E-01  0.1173E+00  0.1176E+00
    -13.759  0.1756E-01  0.1700E-01  0.1205E+00  0.1206E+00
    -13.579  0.9093E-02  0.9197E-02  0.1221E+00  0.1223E+00
    -13.400  0.1923E-01  0.1987E-01  0.1256E+00  0.1258E+00
    -13.220  0.1084E-01  0.1028E-01  0.1275E+00  0.1277E+00
    -13.040  0.1265E-01  0.1249E-01  0.1298E+00  0.1299E+00
    -12.860  0.1306E-01  0.1314E-01  0.1322E+00  0.1323E+00
    -12.681  0.2008E-01  0.2053E-01  0.1358E+00  0.1360E+00
    -12.501  0.1293E-01  0.1241E-01  0.1381E+00  0.1382E+00
    -12.321  0.9384E-02  0.9275E-02  0.1398E+00  0.1399E+00
    -12.142  0.1147E-01  0.1153E-01  0.1418E+00  0.1419E+00
    -11.962  0.1224E-01  0.1258E-01  0.1440E+00  0.1442E+00
    -11.782  0.2545E-01  0.2553E-01  0.1486E+00  0.1488E+00
    -11.602  0.2855E-01  0.2893E-01  0.1537E+00  0.1540E+00
    -11.423  0.1631E-01  0.1518E-01  0.1567E+00  0.1567E+00
    -11.243  0.5763E-02  0.6089E-02  0.1577E+00  0.1578E+00
    -11.063  0.1986E-01  0.2002E-01  0.1613E+00  0.1614E+00
    -10.884  0.1358E-01  0.1347E-01  0.1637E+00  0.1638E+00
    -10.704  0.1703E-01  0.1728E-01  0.1668E+00  0.1669E+00
    -10.524  0.1769E-01  0.1756E-01  0.1700E+00  0.1701E+00
    -10.344  0.2317E-01  0.2394E-01  0.1741E+00  0.1744E+00
    -10.165  0.2643E-01  0.2556E-01  0.1789E+00  0.1790E+00
     -9.985  0.2435E-01  0.2479E-01  0.1833E+00  0.1834E+00
     -9.805  0.2330E-01  0.2292E-01  0.1874E+00  0.1876E+00
     -9.626  0.1958E-01  0.1979E-01  0.1910E+00  0.1911E+00
     -9.446  0.3201E-01  0.3238E-01  0.1967E+00  0.1969E+00
     -9.266  0.3082E-01  0.3045E-01  0.2023E+00  0.2024E+00
     -9.086  0.2898E-01  0.2917E-01  0.2075E+00  0.2077E+00
     -8.907  0.3247E-01  0.3239E-01  0.2133E+00  0.2135E+00
     -8.727  0.4054E-01  0.4097E-01  0.2206E+00  0.2208E+00
     -8.547  0.4608E-01  0.4682E-01  0.2289E+00  0.2293E+00
     -8.368  0.4807E-01  0.4746E-01  0.2375E+00  0.2378E+00
     -8.188  0.3545E-01  0.3493E-01  0.2439E+00  0.2441E+00
     -8.008  0.3443E-01  0.3483E-01  0.2501E+00  0.2503E+00
     -7.828  0.2982E-01  0.2942E-01  0.2554E+00  0.2556E+00
     -7.649  0.1722E-01  0.1674E-01  0.2585E+00  0.2586E+00
     -7.469  0.3378E-01  0.3513E-01  0.2646E+00  0.2649E+00
     -7.289  0.3679E-01  0.3627E-01  0.2712E+00  0.2715E+00
     -7.110  0.4196E-01  0.4120E-01  0.2787E+00  0.2789E+00
     -6.930  0.3466E-01  0.3466E-01  0.2850E+00  0.2851E+00
     -6.750  0.1490E-01  0.1500E-01  0.2877E+00  0.2878E+00
     -6.570  0.1528E-01  0.1554E-01  0.2904E+00  0.2906E+00
     -6.391  0.2083E-01  0.1801E-01  0.2941E+00  0.2938E+00
     -6.211  0.3754E-01  0.3942E-01  0.3009E+00  0.3009E+00
     -6.031  0.3056E-01  0.3112E-01  0.3064E+00  0.3065E+00
     -5.851  0.3187E-01  0.3184E-01  0.3121E+00  0.3122E+00
     -5.672  0.2321E-01  0.2047E-01  0.3163E+00  0.3159E+00
     -5.492  0.1684E-01  0.1880E-01  0.3193E+00  0.3193E+00
     -5.312  0.1862E-01  0.1621E-01  0.3227E+00  0.3222E+00
     -5.133  0.1972E-01  0.1819E-01  0.3262E+00  0.3254E+00
     -4.953  0.2764E-01  0.2188E-01  0.3312E+00  0.3294E+00
     -4.773  0.2910E-01  0.3721E-01  0.3364E+00  0.3361E+00
     -4.593  0.3246E-01  0.3134E-01  0.3422E+00  0.3417E+00
     -4.414  0.1301E-01  0.1531E-01  0.3446E+00  0.3445E+00
     -4.234  0.9740E-02  0.7250E-02  0.3463E+00  0.3458E+00
     -4.054  0.2091E-01  0.9048E-02  0.3501E+00  0.3474E+00
     -3.875  0.1800E-01  0.1894E-01  0.3533E+00  0.3508E+00
     -3.695  0.1091E-01  0.2129E-01  0.3553E+00  0.3546E+00
     -3.515  0.1049E-01  0.1239E-01  0.3572E+00  0.3568E+00
     -3.335  0.1625E-01  0.1108E-01  0.3601E+00  0.3588E+00
     -3.156  0.1652E-01  0.8629E-02  0.3630E+00  0.3604E+00
     -2.976  0.8628E-02  0.6942E-02  0.3646E+00  0.3616E+00
     -2.796  0.9008E-02  0.1359E-02  0.3662E+00  0.3619E+00
     -2.617  0.2588E-02  0.7307E-05  0.3667E+00  0.3619E+00
     -2.437  0.1090E-02  0.5912E-05  0.3669E+00  0.3619E+00
     -2.257  0.1797E-02  0.2109E-02  0.3672E+00  0.3623E+00
     -2.077  0.6294E-02  0.1326E-01  0.3683E+00  0.3646E+00
     -1.898  0.3493E-02  0.5447E-02  0.3690E+00  0.3656E+00
     -1.718  0.1192E-01  0.8756E-04  0.3711E+00  0.3656E+00
     -1.538  0.1591E-01  0.2146E-02  0.3740E+00  0.3660E+00
     -1.359  0.9291E-02  0.4278E-02  0.3756E+00  0.3668E+00
     -1.179  0.7060E-02  0.7407E-02  0.3769E+00  0.3681E+00
     -0.999  0.7392E-02  0.9947E-02  0.3782E+00  0.3699E+00
     -0.819  0.1344E-01  0.3078E-01  0.3806E+00  0.3754E+00
     -0.640  0.2326E-01  0.2806E-01  0.3848E+00  0.3805E+00
     -0.460  0.1055E-01  0.2300E-01  0.3867E+00  0.3846E+00
     -0.280  0.1693E-01  0.2115E-01  0.3898E+00  0.3884E+00
     -0.101  0.1581E-01  0.1838E-01  0.3926E+00  0.3917E+00
      0.079  0.1142E-01  0.1111E-01  0.3947E+00  0.3937E+00
      0.259  0.1903E-01  0.1943E-01  0.3981E+00  0.3972E+00
      0.439  0.1935E-01  0.2483E-01  0.4015E+00  0.4017E+00
      0.618  0.1475E-01  0.1465E-01  0.4042E+00  0.4043E+00
      0.798  0.1549E-01  0.7633E-02  0.4070E+00  0.4057E+00
      0.978  0.1842E-01  0.1768E-01  0.4103E+00  0.4089E+00
      1.158  0.8215E-02  0.1499E-01  0.4118E+00  0.4115E+00
      1.337  0.1761E-01  0.1388E-01  0.4149E+00  0.4140E+00
      1.517  0.1747E-01  0.1855E-01  0.4181E+00  0.4174E+00
      1.697  0.2402E-01  0.2358E-01  0.4224E+00  0.4216E+00
      1.876  0.2434E-01  0.2378E-01  0.4268E+00  0.4259E+00
      2.056  0.3795E-01  0.3297E-01  0.4336E+00  0.4318E+00
      2.236  0.2847E-01  0.2968E-01  0.4387E+00  0.4371E+00
      2.416  0.2064E-01  0.2027E-01  0.4424E+00  0.4408E+00
      2.595  0.4165E-01  0.4151E-01  0.4499E+00  0.4482E+00
      2.775  0.4544E-01  0.5138E-01  0.4581E+00  0.4575E+00
      2.955  0.1048E-01  0.1365E-01  0.4599E+00  0.4599E+00
      3.134  0.2805E-03  0.3544E-03  0.4600E+00  0.4600E+00
      3.314  0.5671E-07  0.7069E-07  0.4600E+00  0.4600E+00
      3.494  0.2816E-13  0.3906E-13  0.4600E+00  0.4600E+00
      3.674  0.0000E+00  0.0000E+00  0.4600E+00  0.4600E+00
      3.853  0.0000E+00  0.0000E+00  0.4600E+00  0.4600E+00
      4.033  0.0000E+00  0.0000E+00  0.4600E+00  0.4600E+00
      4.213  0.0000E+00  0.0000E+00  0.4600E+00  0.4600E+00
      4.392  0.0000E+00  0.0000E+00  0.4600E+00  0.4600E+00
      4.572  0.0000E+00  0.0000E+00  0.4600E+00  0.4600E+00
      4.752  0.0000E+00  0.0000E+00  0.4600E+00  0.4600E+00
      4.932  0.0000E+00  0.0000E+00  0.4600E+00  0.4600E+00
      5.111  0.0000E+00  0.0000E+00  0.4600E+00  0.4600E+00
      5.291  0.0000E+00  0.0000E+00  0.4600E+00  0.4600E+00
