 vasp.5.4.4.18Apr17-6-g9f103f2a35 (build Jan 14 2022 15:04:31) complex          
  
 executed on             LinuxIFC date 2023.01.23  17:52:24
 running on   48 total cores
 distrk:  each k-point on   48 cores,    1 groups
 distr:  one band on NCORES_PER_BAND=  12 cores,    4 groups


--------------------------------------------------------------------------------------------------------


 INCAR:
 POTCAR:    PAW_PBE C 08Apr2002                   
 POTCAR:    PAW_PBE N 08Apr2002                   
 POTCAR:    PAW_PBE C 08Apr2002                   
 POTCAR:    PAW_PBE Cr_pv 02Aug2007               
 POTCAR:    PAW_PBE C 08Apr2002                   
   SHA256 =  253f7b50bb8d59471dbedb8285d89021f4a42ed1a2c5d38a03a736e69125dd95 C/
   COPYR  = (c) Copyright 08Apr2002 Georg Kresse                                
   COPYR  = This file is part of the software VASP. Any use, copying, and all ot
   COPYR  = If you do not have a valid VASP license, you may not use, copy or di
   VRHFIN =C: s2p2                                                              
   LEXCH  = PE                                                                  
   EATOM  =   147.1560 eV,   10.8157 Ry                                         
                                                                                
   TITEL  = PAW_PBE C 08Apr2002                                                 
   LULTRA =        F    use ultrasoft PP ?                                      
   IUNSCR =        1    unscreen: 0-lin 1-nonlin 2-no                           
   RPACOR =    1.200    partial core radius                                     
   POMASS =   12.011; ZVAL   =    4.000    mass and valenz                      
   RCORE  =    1.500    outmost cutoff radius                                   
   RWIGS  =    1.630; RWIGS  =    0.863    wigner-seitz radius (au A)           
   ENMAX  =  400.000; ENMIN  =  300.000 eV                                      
   ICORE  =        2    local potential                                         
   LCOR   =        T    correct aug charges                                     
   LPAW   =        T    paw PP                                                  
   EAUG   =  644.873                                                            
   DEXC   =    0.000                                                            
   RMAX   =    1.529    core radius for proj-oper                               
   RAUG   =    1.300    factor for augmentation sphere                          
   RDEP   =    1.501    radius for radial grids                                 
   RDEPT  =    1.300    core radius for aug-charge                              
                                                                                
   Atomic configuration                                                         
    4 entries                                                                   
     n  l   j            E        occ.                                          
     1  0  0.50      -273.3789   2.0000                                         
     2  0  0.50       -13.7508   2.0000                                         
     2  1  0.50        -5.2854   2.0000                                         
     3  2  1.50        -5.4423   0.0000                                         
   Description                                                                  
     l       E           TYP  RCUT    TYP  RCUT                                 
     0    -13.7508458     23  1.200                                             
     0     -8.2022199     23  1.200                                             
     1     -5.2854383     23  1.500                                             
     1     34.0145650     23  1.500                                             
     2     -5.4423304      7  1.500                                             
  local pseudopotential read in
  partial core-charges read in
  partial kinetic energy density read in
  atomic valenz-charges read in
  non local Contribution for L=           0  read in
    real space projection operators read in
  non local Contribution for L=           0  read in
    real space projection operators read in
  non local Contribution for L=           1  read in
    real space projection operators read in
  non local Contribution for L=           1  read in
    real space projection operators read in
    PAW grid and wavefunctions read in
 
   number of l-projection  operators is LMAX  =           4
   number of lm-projection operators is LMMAX =           8
 
 POTCAR:    PAW_PBE N 08Apr2002                   
   SHA256 =  e053789ff3a61a86a1b75d8a110fcc91f86041011e7b0817c7c99e4e8a6349d7 N/
   COPYR  = (c) Copyright 08Apr2002 Georg Kresse                                
   COPYR  = This file is part of the software VASP. Any use, copying, and all ot
   COPYR  = If you do not have a valid VASP license, you may not use, copy or di
   VRHFIN =N: s2p3                                                              
   LEXCH  = PE                                                                  
   EATOM  =   264.5486 eV,   19.4438 Ry                                         
                                                                                
   TITEL  = PAW_PBE N 08Apr2002                                                 
   LULTRA =        F    use ultrasoft PP ?                                      
   IUNSCR =        1    unscreen: 0-lin 1-nonlin 2-no                           
   RPACOR =    1.200    partial core radius                                     
   POMASS =   14.001; ZVAL   =    5.000    mass and valenz                      
   RCORE  =    1.500    outmost cutoff radius                                   
   RWIGS  =    1.400; RWIGS  =    0.741    wigner-seitz radius (au A)           
   ENMAX  =  400.000; ENMIN  =  300.000 eV                                      
   ICORE  =        2    local potential                                         
   LCOR   =        T    correct aug charges                                     
   LPAW   =        T    paw PP                                                  
   EAUG   =  627.112                                                            
   DEXC   =    0.000                                                            
   RMAX   =    1.529    core radius for proj-oper                               
   RAUG   =    1.300    factor for augmentation sphere                          
   RDEP   =    1.514    radius for radial grids                                 
   RDEPT  =    1.338    core radius for aug-charge                              
                                                                                
   Atomic configuration                                                         
    4 entries                                                                   
     n  l   j            E        occ.                                          
     1  0  0.50      -384.7179   2.0000                                         
     2  0  0.50       -18.5828   2.0000                                         
     2  1  0.50        -7.0898   3.0000                                         
     3  2  1.50        -6.8029   0.0000                                         
   Description                                                                  
     l       E           TYP  RCUT    TYP  RCUT                                 
     0    -18.5828119     23  1.200                                             
     0    -13.5018863     23  1.200                                             
     1     -7.0897853     23  1.500                                             
     1      9.5240782     23  1.500                                             
     2     -6.8029130      7  1.500                                             
  local pseudopotential read in
  partial core-charges read in
  partial kinetic energy density read in
  atomic valenz-charges read in
  non local Contribution for L=           0  read in
    real space projection operators read in
  non local Contribution for L=           0  read in
    real space projection operators read in
  non local Contribution for L=           1  read in
    real space projection operators read in
  non local Contribution for L=           1  read in
    real space projection operators read in
    PAW grid and wavefunctions read in
 
   number of l-projection  operators is LMAX  =           4
   number of lm-projection operators is LMMAX =           8
 
 POTCAR:    PAW_PBE C 08Apr2002                   
   SHA256 =  253f7b50bb8d59471dbedb8285d89021f4a42ed1a2c5d38a03a736e69125dd95 C/
   COPYR  = (c) Copyright 08Apr2002 Georg Kresse                                
   COPYR  = This file is part of the software VASP. Any use, copying, and all ot
   COPYR  = If you do not have a valid VASP license, you may not use, copy or di
   VRHFIN =C: s2p2                                                              
   LEXCH  = PE                                                                  
   EATOM  =   147.1560 eV,   10.8157 Ry                                         
                                                                                
   TITEL  = PAW_PBE C 08Apr2002                                                 
   LULTRA =        F    use ultrasoft PP ?                                      
   IUNSCR =        1    unscreen: 0-lin 1-nonlin 2-no                           
   RPACOR =    1.200    partial core radius                                     
   POMASS =   12.011; ZVAL   =    4.000    mass and valenz                      
   RCORE  =    1.500    outmost cutoff radius                                   
   RWIGS  =    1.630; RWIGS  =    0.863    wigner-seitz radius (au A)           
   ENMAX  =  400.000; ENMIN  =  300.000 eV                                      
   ICORE  =        2    local potential                                         
   LCOR   =        T    correct aug charges                                     
   LPAW   =        T    paw PP                                                  
   EAUG   =  644.873                                                            
   DEXC   =    0.000                                                            
   RMAX   =    1.529    core radius for proj-oper                               
   RAUG   =    1.300    factor for augmentation sphere                          
   RDEP   =    1.501    radius for radial grids                                 
   RDEPT  =    1.300    core radius for aug-charge                              
                                                                                
   Atomic configuration                                                         
    4 entries                                                                   
     n  l   j            E        occ.                                          
     1  0  0.50      -273.3789   2.0000                                         
     2  0  0.50       -13.7508   2.0000                                         
     2  1  0.50        -5.2854   2.0000                                         
     3  2  1.50        -5.4423   0.0000                                         
   Description                                                                  
     l       E           TYP  RCUT    TYP  RCUT                                 
     0    -13.7508458     23  1.200                                             
     0     -8.2022199     23  1.200                                             
     1     -5.2854383     23  1.500                                             
     1     34.0145650     23  1.500                                             
     2     -5.4423304      7  1.500                                             
  local pseudopotential read in
  partial core-charges read in
  partial kinetic energy density read in
  atomic valenz-charges read in
  non local Contribution for L=           0  read in
    real space projection operators read in
  non local Contribution for L=           0  read in
    real space projection operators read in
  non local Contribution for L=           1  read in
    real space projection operators read in
  non local Contribution for L=           1  read in
    real space projection operators read in
    PAW grid and wavefunctions read in
 
   number of l-projection  operators is LMAX  =           4
   number of lm-projection operators is LMMAX =           8
 
 POTCAR:    PAW_PBE Cr_pv 02Aug2007               
   SHA256 =  c9a7df34d3cdbacf1090e328ef39c0b420964e11c23f63548d1ac9dd218cdba0 Cr
   COPYR  = (c) Copyright 02Aug2007 Georg Kresse                                
   COPYR  = This file is part of the software VASP. Any use, copying, and all ot
   COPYR  = If you do not have a valid VASP license, you may not use, copy or di
   VRHFIN =Cr : p6d5s1                                                          
   LEXCH  = PE                                                                  
   EATOM  =  1647.9177 eV,  121.1185 Ry                                         
                                                                                
   TITEL  = PAW_PBE Cr_pv 02Aug2007                                             
   LULTRA =        F    use ultrasoft PP ?                                      
   IUNSCR =        1    unscreen: 0-lin 1-nonlin 2-no                           
   RPACOR =    2.080    partial core radius                                     
   POMASS =   51.996; ZVAL   =   12.000    mass and valenz                      
   RCORE  =    2.300    outmost cutoff radius                                   
   RWIGS  =    2.500; RWIGS  =    1.323    wigner-seitz radius (au A)           
   ENMAX  =  265.681; ENMIN  =  199.261 eV                                      
   ICORE  =        3    local potential                                         
   LCOR   =        T    correct aug charges                                     
   LPAW   =        T    paw PP                                                  
   EAUG   =  519.424                                                            
   DEXC   =    0.000                                                            
   RMAX   =    2.356    core radius for proj-oper                               
   RAUG   =    1.300    factor for augmentation sphere                          
   RDEP   =    2.447    radius for radial grids                                 
   RDEPT  =    1.882    core radius for aug-charge                              
                                                                                
   Atomic configuration                                                         
    8 entries                                                                   
     n  l   j            E        occ.                                          
     1  0  0.50     -5880.4963   2.0000                                         
     2  0  0.50      -667.0865   2.0000                                         
     2  1  1.50      -560.6250   6.0000                                         
     3  0  0.50       -73.9860   2.0000                                         
     3  1  1.50       -45.4378   6.0000                                         
     3  2  2.50        -2.9137   5.0000                                         
     4  0  0.50        -4.0071   1.0000                                         
     4  3  2.50        -1.3606   0.0000                                         
   Description                                                                  
     l       E           TYP  RCUT    TYP  RCUT                                 
     1    -45.4377911     23  2.000                                             
     1      1.3605826     23  2.000                                             
     2     -2.9136672     23  2.300                                             
     2     -4.2742498     23  2.300                                             
     0     -4.0071320     23  2.300                                             
     0      9.4498803     23  2.300                                             
     3      2.7211652     23  2.300                                             
  local pseudopotential read in
  partial core-charges read in
  partial kinetic energy density read in
  atomic valenz-charges read in
  non local Contribution for L=           1  read in
    real space projection operators read in
  non local Contribution for L=           1  read in
    real space projection operators read in
  non local Contribution for L=           2  read in
    real space projection operators read in
  non local Contribution for L=           2  read in
    real space projection operators read in
  non local Contribution for L=           0  read in
    real space projection operators read in
  non local Contribution for L=           0  read in
    real space projection operators read in
    PAW grid and wavefunctions read in
 
   number of l-projection  operators is LMAX  =           6
   number of lm-projection operators is LMMAX =          18
 
 Optimization of the real space projectors (new method)

 maximal supplied QI-value         = 25.13
 optimisation between [QCUT,QGAM] = [ 10.56, 21.36] = [ 31.20,127.80] Ry 
 Optimized for a Real-space Cutoff    1.32 Angstroem

   l    n(q)    QCUT    max X(q) W(low)/X(q) W(high)/X(q)  e(spline) 
   0      8    10.556   115.676    0.17E-03    0.39E-03    0.26E-06
   0      8    10.556    87.132    0.17E-03    0.39E-03    0.26E-06
   1      8    10.556     4.429    0.24E-03    0.31E-03    0.16E-06
   1      8    10.556     2.733    0.17E-03    0.22E-03    0.19E-06
 Optimization of the real space projectors (new method)

 maximal supplied QI-value         = 25.13
 optimisation between [QCUT,QGAM] = [ 10.56, 21.36] = [ 31.20,127.80] Ry 
 Optimized for a Real-space Cutoff    1.40 Angstroem

   l    n(q)    QCUT    max X(q) W(low)/X(q) W(high)/X(q)  e(spline) 
   0      9    10.556    79.467    0.20E-03    0.22E-03    0.30E-06
   0      9    10.556    66.151    0.20E-03    0.22E-03    0.30E-06
   1      8    10.556    12.181    0.10E-03    0.78E-03    0.19E-05
   1      8    10.556     8.434    0.11E-03    0.81E-03    0.19E-05
 Optimization of the real space projectors (new method)

 maximal supplied QI-value         = 25.13
 optimisation between [QCUT,QGAM] = [ 10.56, 21.36] = [ 31.20,127.80] Ry 
 Optimized for a Real-space Cutoff    1.32 Angstroem

   l    n(q)    QCUT    max X(q) W(low)/X(q) W(high)/X(q)  e(spline) 
   0      8    10.556   115.676    0.17E-03    0.39E-03    0.26E-06
   0      8    10.556    87.132    0.17E-03    0.39E-03    0.26E-06
   1      8    10.556     4.429    0.24E-03    0.31E-03    0.16E-06
   1      8    10.556     2.733    0.17E-03    0.22E-03    0.19E-06
 Optimization of the real space projectors (new method)

 maximal supplied QI-value         = 16.25
 optimisation between [QCUT,QGAM] = [ 10.73, 21.45] = [ 32.22,128.87] Ry 
 Optimized for a Real-space Cutoff    1.53 Angstroem

   l    n(q)    QCUT    max X(q) W(low)/X(q) W(high)/X(q)  e(spline) 
   1      9    10.726     3.262    0.64E-04    0.35E-04    0.11E-06
   1      9    10.726     5.741    0.13E-03    0.48E-04    0.19E-06
   2      9    10.726    60.438    0.12E-03    0.29E-04    0.13E-06
   2      9    10.726    55.380    0.12E-03    0.29E-04    0.13E-06
   0     10    10.726    80.273    0.43E-04    0.74E-05    0.81E-07
   0     10    10.726    36.654    0.34E-04    0.61E-05    0.73E-07
  PAW_PBE C 08Apr2002                   :
 energy of atom  1       EATOM= -147.1560
 kinetic energy error for atom=    0.0132 (will be added to EATOM!!)
  PAW_PBE N 08Apr2002                   :
 energy of atom  2       EATOM= -264.5486
 kinetic energy error for atom=    0.0298 (will be added to EATOM!!)
  PAW_PBE C 08Apr2002                   :
 energy of atom  3       EATOM= -147.1560
 kinetic energy error for atom=    0.0132 (will be added to EATOM!!)
  PAW_PBE Cr_pv 02Aug2007               :
 energy of atom  4       EATOM=-1647.9177
 kinetic energy error for atom=    0.0134 (will be added to EATOM!!)
 
 
 POSCAR: POSCAR-clean                            
  positions in direct lattice
  velocities in cartesian coordinates
 exchange correlation table for  LEXCH =        8
   RHO(1)=    0.500       N(1)  =     2000
   RHO(2)=  100.500       N(2)  =     4000

 VTST: version 3.2, (02/03/18)

 CHAIN: initializing optimizer
 
 OPT: Using VASP Conjugate-Gradient optimizer
 CHAIN: Read ICHAIN            0
 
 POSCAR: POSCAR-clean                            
  positions in direct lattice
  velocities in cartesian coordinates
 


--------------------------------------------------------------------------------------------------------


 ion  position               nearest neighbor table
   1  1.000  0.999  0.498-  60 1.42   2 1.43  70 1.43
   2  0.056  0.111  0.498-  13 1.42   1 1.43  15 1.43
   3  0.168  0.002  0.498-   4 1.42  62 1.42  60 1.43
   4  0.223  0.113  0.498-   3 1.42  15 1.42  17 1.44
   5  0.334  0.002  0.498-   6 1.42  62 1.43  64 1.43
   6  0.390  0.113  0.498-   5 1.42  19 1.43  17 1.43
   7  0.500  1.000  0.498-  64 1.42   8 1.42  66 1.44
   8  0.556  0.112  0.498-  21 1.42   7 1.42  19 1.43
   9  0.666  0.998  0.498-  10 1.42  66 1.43  68 1.43
  10  0.722  0.109  0.498-   9 1.42  23 1.42  21 1.43
  11  0.832  0.997  0.498-  12 1.42  70 1.43  68 1.43
  12  0.888  0.109  0.498-  11 1.42  23 1.43  13 1.43
  13  0.999  0.165  0.498-  14 1.42   2 1.42  12 1.43
  14  0.055  0.277  0.498-  13 1.42  27 1.42  25 1.43
  15  0.167  0.168  0.498-  16 1.42   4 1.42   2 1.43
  16  0.223  0.279  0.500-  15 1.42  27 1.43  29 1.44
  17  0.335  0.170  0.499-  18 1.42   6 1.43   4 1.44
  18  0.391  0.282  0.502-  17 1.42  29 1.43  31 1.44
  19  0.501  0.169  0.498-  20 1.43   6 1.43   8 1.43
  20  0.557  0.280  0.500-  33 1.42  19 1.43  31 1.45
  21  0.667  0.166  0.498-  22 1.42   8 1.42  10 1.43
  22  0.723  0.277  0.498-  21 1.42  35 1.42  33 1.43
  23  0.833  0.165  0.498-  24 1.42  10 1.42  12 1.43
  24  0.888  0.277  0.498-  25 1.42  23 1.42  35 1.42
  25  0.999  0.332  0.498-  26 1.42  24 1.42  14 1.43
  26  0.054  0.444  0.499-  39 1.42  37 1.42  25 1.42
  27  0.165  0.333  0.500-  28 1.42  14 1.42  16 1.43
  28  0.219  0.444  0.502-  41 1.41  27 1.42  39 1.42
  29  0.335  0.337  0.503-  30 1.41  18 1.43  16 1.44
  30  0.388  0.448  0.509-  41 1.41  29 1.41  71 1.98
  31  0.503  0.339  0.504-  32 1.43  18 1.44  20 1.45
  32  0.562  0.451  0.510-  43 1.41  31 1.43  71 2.00
  33  0.668  0.333  0.500-  34 1.42  20 1.42  22 1.43
  34  0.725  0.444  0.501-  43 1.40  33 1.42  45 1.42
  35  0.834  0.333  0.498-  22 1.42  24 1.42  36 1.43
  36  0.890  0.445  0.498-  37 1.41  45 1.42  35 1.43
  37  1.000  0.500  0.498-  36 1.41  38 1.42  26 1.42
  38  0.055  0.611  0.498-  37 1.42  49 1.42  47 1.42
  39  0.165  0.500  0.500-  26 1.42  40 1.42  28 1.42
  40  0.220  0.611  0.500-  49 1.42  39 1.42  51 1.42
  41  0.329  0.499  0.505-  30 1.41  28 1.41  42 1.43
  42  0.385  0.612  0.505-  53 1.41  51 1.41  41 1.43
  43  0.672  0.500  0.505-  34 1.40  32 1.41  44 1.43
  44  0.728  0.613  0.506-  57 1.39  55 1.40  43 1.43
  45  0.835  0.501  0.499-  46 1.42  34 1.42  36 1.42
  46  0.891  0.612  0.499-  57 1.40  47 1.41  45 1.42
  47  0.001  0.668  0.498-  46 1.41  48 1.42  38 1.42
  48  0.057  0.779  0.498-  47 1.42  61 1.42  59 1.42
  49  0.166  0.667  0.499-  40 1.42  50 1.42  38 1.42
  50  0.222  0.779  0.498-  49 1.42  61 1.42  63 1.42
  51  0.331  0.667  0.502-  42 1.41  52 1.42  40 1.42
  52  0.388  0.778  0.500-  51 1.42  63 1.43  65 1.43
  53  0.495  0.663  0.509-  42 1.41  54 1.41  71 1.98
  54  0.553  0.773  0.503-  53 1.41  67 1.44  65 1.45
  55  0.669  0.662  0.511-  44 1.40  56 1.42  71 2.02
  56  0.720  0.773  0.504-  55 1.42  67 1.43  69 1.44
  57  0.837  0.667  0.501-  44 1.39  46 1.40  58 1.40
  58  0.890  0.777  0.499-  57 1.40  69 1.42  59 1.42
  59  0.001  0.833  0.498-  58 1.42  48 1.42  60 1.42
  60  0.056  0.945  0.498-   1 1.42  59 1.42   3 1.43
  61  0.167  0.835  0.498-  48 1.42  62 1.42  50 1.42
  62  0.223  0.946  0.498-  61 1.42   3 1.42   5 1.43
  63  0.333  0.834  0.498-  64 1.42  50 1.42  52 1.43
  64  0.389  0.946  0.498-  63 1.42   7 1.42   5 1.43
  65  0.499  0.832  0.500-  66 1.42  52 1.43  54 1.45
  66  0.555  0.943  0.498-  65 1.42   9 1.43   7 1.44
  67  0.665  0.829  0.502-  68 1.42  56 1.43  54 1.44
  68  0.721  0.941  0.499-  67 1.42  11 1.43   9 1.43
  69  0.832  0.830  0.500-  58 1.42  70 1.43  56 1.44
  70  0.888  0.942  0.498-  11 1.43   1 1.43  69 1.43
  71  0.525  0.556  0.555-  30 1.98  53 1.98  32 2.00  55 2.02
 

IMPORTANT INFORMATION: All symmetrisations will be switched off!
NOSYMM: (Re-)initialisation of all symmetry stuff for point group C_1.

 
 
 KPOINTS: K-Points                                

Automatic generation of k-mesh.
Space group operators:
 irot       det(A)        alpha          n_x          n_y          n_z        tau_x        tau_y        tau_z
    1     1.000000     0.000001     1.000000     0.000000     0.000000     0.000000     0.000000     0.000000
 
 Subroutine IBZKPT returns following result:
 ===========================================
 
 Found      4 irreducible k-points:
 
 Following reciprocal coordinates:
            Coordinates               Weight
  0.000000  0.000000  0.000000      1.000000
  0.500000  0.000000  0.000000      1.000000
 -0.000000  0.500000  0.000000      1.000000
  0.500000  0.500000  0.000000      1.000000
 
 Following cartesian coordinates:
            Coordinates               Weight
  0.000000  0.000000  0.000000      1.000000
  0.033631  0.019607  0.000000      1.000000
 -0.000010  0.039213  0.000000      1.000000
  0.033622  0.058820  0.000000      1.000000
 


--------------------------------------------------------------------------------------------------------




 Dimension of arrays:
   k-points           NKPTS =      4   k-points in BZ     NKDIM =      4   number of bands    NBANDS=    184
   number of dos      NEDOS =    301   number of ions     NIONS =     71
   non local maximal  LDIM  =      6   non local SUM 2l+1 LMDIM =     18
   total plane-waves  NPLWV = ******
   max r-space proj   IRMAX =   6644   max aug-charges    IRDMAX=  15615
   dimension x,y,z NGX =   108 NGY =  108 NGZ =  108
   dimension x,y,z NGXF=   216 NGYF=  216 NGZF=  216
   support grid    NGXF=   216 NGYF=  216 NGZF=  216
   ions per type =              56   1  13   1
   NGX,Y,Z   is equivalent  to a cutoff of  12.08, 12.17, 11.97 a.u.
   NGXF,Y,Z  is equivalent  to a cutoff of  24.16, 24.33, 23.94 a.u.

 SYSTEM =  unknown system                          
 POSCAR =  POSCAR-clean                            

 Startparameter for this run:
   NWRITE =      2    write-flag & timer
   PREC   = accura    normal or accurate (medium, high low for compatibility)
   ISTART =      0    job   : 0-new  1-cont  2-samecut
   ICHARG =      2    charge: 1-file 2-atom 10-const
   ISPIN  =      2    spin polarized calculation?
   LNONCOLLINEAR =      F non collinear calculations
   LSORBIT =      F    spin-orbit coupling
   INIWAV =      1    electr: 0-lowe 1-rand  2-diag
   LASPH  =      F    aspherical Exc in radial PAW
   METAGGA=      F    non-selfconsistent MetaGGA calc.

 Electronic Relaxation 1
   ENCUT  =  440.0 eV  32.34 Ry    5.69 a.u.  25.42 25.24 25.66*2*pi/ulx,y,z
   ENINI  =  440.0     initial cutoff
   ENAUG  =  644.9 eV  augmentation charge cutoff
   NELM   =     50;   NELMIN=  2; NELMDL= -5     # of ELM steps 
   EDIFF  = 0.1E-04   stopping-criterion for ELM
   LREAL  =      T    real-space projection
   NLSPLINE    = F    spline interpolate recip. space projectors
   LCOMPAT=      F    compatible to vasp.4.4
   GGA_COMPAT  = T    GGA compatible to vasp.4.4-vasp.4.6
   LMAXPAW     = -100 max onsite density
   LMAXMIX     =    2 max onsite mixed and CHGCAR
   VOSKOWN=      0    Vosko Wilk Nusair interpolation
   ROPT   =   -0.00025  -0.00025  -0.00025  -0.00025
 Ionic relaxation
   EDIFFG = -.5E-01   stopping-criterion for IOM
   NSW    =    400    number of steps for IOM
   NBLOCK =      1;   KBLOCK =    400    inner block; outer block 
   IBRION =      2    ionic relax: 0-MD 1-quasi-New 2-CG
   NFREE  =      1    steps in history (QN), initial steepest desc. (CG)
   ISIF   =      2    stress and relaxation
   IWAVPR =     11    prediction:  0-non 1-charg 2-wave 3-comb
   ISYM   =      0    0-nonsym 1-usesym 2-fastsym
   LCORR  =      T    Harris-Foulkes like correction to forces

   POTIM  = 0.3000    time-step for ionic-motion
   TEIN   =    0.0    initial temperature
   TEBEG  =    0.0;   TEEND  =   0.0 temperature during run
   SMASS  =  -3.00    Nose mass-parameter (am)
   estimated Nose-frequenzy (Omega)   =  0.10E-29 period in steps =****** mass=  -0.505E-26a.u.
   SCALEE = 1.0000    scale energy and forces
   NPACO  =    256;   APACO  = 16.0  distance and # of slots for P.C.
   PSTRESS=    0.0 pullay stress

  Mass of Ions in am
   POMASS =  12.01 14.00 12.01 52.00
  Ionic Valenz
   ZVAL   =   4.00  5.00  4.00 12.00
  Atomic Wigner-Seitz radii
   RWIGS  =  -1.00 -1.00 -1.00 -1.00
  virtual crystal weights 
   VCA    =   1.00  1.00  1.00  1.00
   NELECT =     293.0000    total number of electrons
   NUPDOWN=      -1.0000    fix difference up-down

 DOS related values:
   EMIN   =  10.00;   EMAX   =-10.00  energy-range for DOS
   EFERMI =   0.00
   ISMEAR =     0;   SIGMA  =   0.10  broadening in eV -4-tet -1-fermi 0-gaus

 Electronic relaxation 2 (details)
   IALGO  =     68    algorithm
   LDIAG  =      T    sub-space diagonalisation (order eigenvalues)
   LSUBROT=      F    optimize rotation matrix (better conditioning)
   TURBO    =      0    0=normal 1=particle mesh
   IRESTART =      0    0=no restart 2=restart with 2 vectors
   NREBOOT  =      0    no. of reboots
   NMIN     =      0    reboot dimension
   EREF     =   0.00    reference energy to select bands
   IMIX   =      4    mixing-type and parameters
     AMIX     =   0.40;   BMIX     =  1.00
     AMIX_MAG =   1.60;   BMIX_MAG =  1.00
     AMIN     =   0.10
     WC   =   100.;   INIMIX=   1;  MIXPRE=   1;  MAXMIX= -45

 Intra band minimization:
   WEIMIN = 0.0010     energy-eigenvalue tresh-hold
   EBREAK =  0.14E-07  absolut break condition
   DEPER  =   0.30     relativ break condition  

   TIME   =   0.40     timestep for ELM

  volume/ion in A,a.u.               =      40.04       270.23
  Fermi-wavevector in a.u.,A,eV,Ry     =   0.767541  1.450441  8.015444  0.589119
  Thomas-Fermi vector in A             =   1.868119
 
 Write flags
   LWAVE        =      F    write WAVECAR
   LDOWNSAMPLE  =      F    k-point downsampling of WAVECAR
   LCHARG       =      F    write CHGCAR
   LVTOT        =      F    write LOCPOT, total local potential
   LVHAR        =      F    write LOCPOT, Hartree potential only
   LELF         =      F    write electronic localiz. function (ELF)
   LORBIT       =      0    0 simple, 1 ext, 2 COOP (PROOUT), +10 PAW based schemes


 Dipole corrections
   LMONO  =      F    monopole corrections only (constant potential shift)
   LDIPOL =      F    correct potential (dipole corrections)
   IDIPOL =      0    1-x, 2-y, 3-z, 4-all directions 
   EPSILON=  1.0000000 bulk dielectric constant

 Exchange correlation treatment:
   GGA     =    --    GGA type
   LEXCH   =     8    internal setting for exchange type
   VOSKOWN=      0    Vosko Wilk Nusair interpolation
   LHFCALC =     F    Hartree Fock is set to
   LHFONE  =     F    Hartree Fock one center treatment
   AEXX    =    0.0000 exact exchange contribution

 Linear response parameters
   LEPSILON=     F    determine dielectric tensor
   LRPA    =     F    only Hartree local field effects (RPA)
   LNABLA  =     F    use nabla operator in PAW spheres
   LVEL    =     F    velocity operator in full k-point grid
   LINTERFAST=   F  fast interpolation
   KINTER  =     0    interpolate to denser k-point grid
   CSHIFT  =0.1000    complex shift for real part using Kramers Kronig
   OMEGAMAX=  -1.0    maximum frequency
   DEG_THRESHOLD= 0.2000000E-02 threshold for treating states as degnerate
   RTIME   =   -0.100 relaxation time in fs
  (WPLASMAI=    0.000 imaginary part of plasma frequency in eV, 0.658/RTIME)
   DFIELD  = 0.0000000 0.0000000 0.0000000 field for delta impulse in time
 
 Orbital magnetization related:
   ORBITALMAG=     F  switch on orbital magnetization
   LCHIMAG   =     F  perturbation theory with respect to B field
   DQ        =  0.001000  dq finite difference perturbation B field
   LLRAUG    =     F  two centre corrections for induced B field



--------------------------------------------------------------------------------------------------------


 conjugate gradient relaxation of ions
 charge density and potential will be updated during run
 spin polarized calculation
 RMM-DIIS sequential band-by-band and
  variant of blocked Davidson during initial phase
 perform sub-space diagonalisation
    before iterative eigenvector-optimisation
 modified Broyden-mixing scheme, WC =      100.0
 initial mixing is a Kerker type mixing with AMIX =  0.4000 and BMIX =      1.0000
 Hartree-type preconditioning will be used
 using additional bands           37
 real space projection scheme for non local part
 use partial core corrections
 calculate Harris-corrections to forces 
   (improved forces if not selfconsistent)
 use gradient corrections 
 use of overlap-Matrix (Vanderbilt PP)
 Gauss-broadening in eV      SIGMA  =   0.10


--------------------------------------------------------------------------------------------------------


  energy-cutoff  :      440.00
  volume of cell :     2843.07
      direct lattice vectors                 reciprocal lattice vectors
    14.864909407  0.003627638  0.000000000     0.067262956  0.039213486  0.000000000
    -7.432454703 12.748901734  0.000000000    -0.000019139  0.078426971  0.000000000
     0.000000000  0.000000000 15.000000000     0.000000000  0.000000000  0.066666667

  length of vectors
    14.864909849 14.757231392 15.000000000     0.077858864  0.078426973  0.066666667


 
 k-points in units of 2pi/SCALE and weight: K-Points                                
   0.00000000  0.00000000  0.00000000       0.250
   0.03363148  0.01960674  0.00000000       0.250
  -0.00000957  0.03921349  0.00000000       0.250
   0.03362191  0.05882023  0.00000000       0.250
 
 k-points in reciprocal lattice and weights: K-Points                                
   0.00000000  0.00000000  0.00000000       0.250
   0.50000000  0.00000000  0.00000000       0.250
  -0.00000000  0.50000000  0.00000000       0.250
   0.50000000  0.50000000  0.00000000       0.250
 
 position of ions in fractional coordinates (direct lattice) 
   0.99974094  0.99931568  0.49760773
   0.05561643  0.11109725  0.49774347
   0.16763321  0.00158984  0.49756704
   0.22348738  0.11313507  0.49828213
   0.33415888  0.00196162  0.49767776
   0.39001620  0.11342809  0.49838745
   0.50004482  0.99993931  0.49774860
   0.55587817  0.11167071  0.49766792
   0.66606673  0.99777012  0.49829268
   0.72176712  0.10927448  0.49754460
   0.83233607  0.99744257  0.49836819
   0.88792618  0.10905014  0.49770489
   0.99917944  0.16544721  0.49775228
   0.05450282  0.27675240  0.49845889
   0.16718781  0.16776765  0.49843079
   0.22286808  0.27936302  0.50004697
   0.33531003  0.17021502  0.49934167
   0.39124316  0.28181445  0.50231253
   0.50104145  0.16850717  0.49842274
   0.55705021  0.28033553  0.50000567
   0.66675782  0.16568360  0.49754395
   0.72263237  0.27693227  0.49805366
   0.83266124  0.16496730  0.49757318
   0.88838313  0.27664558  0.49768597
   0.99914170  0.33241586  0.49820843
   0.05446267  0.44391995  0.49865966
   0.16539731  0.33282261  0.50013973
   0.21926744  0.44398496  0.50201643
   0.33527627  0.33749206  0.50315778
   0.38759249  0.44810943  0.50931474
   0.50346580  0.33926828  0.50359050
   0.56244455  0.45070619  0.51027008
   0.66788066  0.33314566  0.49955870
   0.72511188  0.44417224  0.50086333
   0.83351719  0.33274491  0.49791922
   0.88979829  0.44450303  0.49828446
   0.99995871  0.50001581  0.49825561
   0.05521237  0.61133086  0.49831796
   0.16462344  0.49994143  0.50036132
   0.22017458  0.61130084  0.50031694
   0.32913492  0.49939623  0.50534288
   0.38519346  0.61173281  0.50521526
   0.67203808  0.50019356  0.50510203
   0.72844133  0.61261039  0.50566779
   0.83544552  0.50080133  0.49942170
   0.89084075  0.61183958  0.49943672
   0.00080598  0.66767685  0.49840779
   0.05685158  0.77886362  0.49806401
   0.16588209  0.66734785  0.49870313
   0.22229875  0.77874598  0.49821310
   0.33074676  0.66714449  0.50184314
   0.38807775  0.77817958  0.50006550
   0.49488146  0.66290219  0.50906957
   0.55329625  0.77333875  0.50327071
   0.66910458  0.66190664  0.51125780
   0.72017937  0.77267637  0.50371080
   0.83660031  0.66694388  0.50076064
   0.88993916  0.77706182  0.49940420
   0.00062271  0.83333492  0.49817189
   0.05599728  0.94496190  0.49760303
   0.16734738  0.83465648  0.49771924
   0.22313783  0.94622682  0.49756139
   0.33322475  0.83432398  0.49843119
   0.38916416  0.94559964  0.49775943
   0.49904309  0.83156525  0.50009886
   0.55498387  0.94312369  0.49846065
   0.66517846  0.82929293  0.50242056
   0.72086261  0.94090982  0.49934227
   0.83234388  0.83010483  0.49961357
   0.88843106  0.94227645  0.49821507
   0.52530991  0.55550108  0.55485044
 
 position of ions in cartesian coordinates  (Angst):
   7.43369005 12.74380405  7.46411596
   0.00100788  1.41656974  7.46615210
   2.48003615  0.02087678  7.46350559
   2.48124839  1.44315864  7.47423188
   4.95266186  0.02622075  7.46516638
   4.95450630  1.44749845  7.47581174
   0.00111726 12.74994201  7.46622896
   7.43309122  1.42569538  7.46501878
   2.48514042 12.72288942  7.47439025
   9.91682519  1.39574793  7.46316895
   4.95915351 12.71931677  7.47552280
  12.38843205  1.39349057  7.46557330
  13.62303291  2.11289489  7.46628427
  -1.24677016  3.52848690  7.47688338
   1.23830613  2.13945976  7.47646186
   1.23656073  3.56238021  7.50070451
   3.71923780  2.17127093  7.49012499
   3.72122103  3.59424402  7.53468791
   6.19551389  2.15009900  7.47634115
   6.19691981  3.57599091  7.50008508
   8.67985874  2.11470271  7.46315919
   8.68357814  3.53320380  7.47080497
  11.15132196  2.10617248  7.46359763
  11.14957904  3.53015008  7.46528962
  12.38148502  4.24156167  7.47312639
  -2.48983235  5.65968944  7.47989493
  -0.01507298  4.24372277  7.50209592
  -0.04050749  5.66111605  7.53024645
   2.47545693  4.30386941  7.54736675
   2.43097419  5.71430907  7.63972108
   4.96237736  4.32712434  7.55385745
   5.01083393  5.74804933  7.65405120
   7.45189555  4.24966408  7.49338055
   7.47743242  5.66533864  7.51294992
   9.91704600  4.24515585  7.46878828
   9.92302225  5.67015334  7.47426697
  11.14795085  6.37827988  7.47383416
  -3.72296208  7.79399738  7.47476943
  -1.26867953  6.37430137  7.50541973
  -1.27059057  7.79421309  7.50475408
   1.18082092  6.36794743  7.58014313
   1.17918955  7.80031877  7.57822884
   6.27211915  6.37935651  7.57653051
   6.27501544  7.81275224  7.58501688
   8.69663877  6.38769763  7.49132556
   8.69479707  7.80351429  7.49155080
  -4.95049718  8.51214947  7.47611680
  -4.94377502  9.92986198  7.47096014
  -2.49421034  8.50855388  7.48054696
  -2.48354347  9.92896240  7.47319649
  -0.04200062  8.50655937  7.52764710
  -0.01504389  9.92234274  7.50098246
   2.42937764  8.45307011  7.63604352
   2.47689339  9.86122687  7.54906068
   5.02658790  8.44100997  7.66886694
   4.96251893  9.85338771  7.55566199
   7.47895766  8.50583682  7.51140963
   7.45338829  9.90991312  7.49106306
  -6.18446743 10.62410720  7.47257834
  -6.19099210 12.04742959  7.46404539
  -3.71594278 10.64156047  7.46578857
  -3.71586429 12.06416216  7.46342084
  -1.24771943 10.63792326  7.47646780
  -1.24323649 12.05676866  7.46639139
   1.23765926 10.60335399  7.50148290
   1.24006086 12.02580449  7.47690982
   3.72413537 10.57498715  7.53630843
   3.72228776 11.99818192  7.49013399
   6.20299985 10.58594430  7.49420359
   6.20302025 12.01621279  7.47322598
   3.67994771  7.08393425  8.32275655
 


--------------------------------------------------------------------------------------------------------


 k-point  1 :   0.0000 0.0000 0.0000  plane waves:   59569
 k-point  2 :   0.5000 0.0000 0.0000  plane waves:   59574
 k-point  3 :  -0.0000 0.5000 0.0000  plane waves:   59658
 k-point  4 :   0.5000 0.5000 0.0000  plane waves:   59566

 maximum and minimum number of plane-waves per node :      4990     4947

 maximum number of plane-waves:     59658
 maximum index in each direction: 
   IXMAX=   25   IYMAX=   25   IZMAX=   25
   IXMIN=  -25   IYMIN=  -25   IZMIN=  -25


 real space projection operators:
  total allocation   :      18891.62 KBytes
  max/ min on nodes  :       1622.23       1537.36


 parallel 3D FFT for wavefunctions:
    minimum data exchange during FFTs selected (reduces bandwidth)
 parallel 3D FFT for charge:
    minimum data exchange during FFTs selected (reduces bandwidth)


 total amount of memory used by VASP MPI-rank0   111516. kBytes
=======================================================================

   base      :      30000. kBytes
   nonlr-proj:       9878. kBytes
   fftplans  :      10852. kBytes
   grid      :      30996. kBytes
   one-center:        186. kBytes
   wavefun   :      29604. kBytes
 
     INWAV:  cpu time    0.0000: real time    0.0000
 Broyden mixing: mesh for mixing (old mesh)
   NGX = 51   NGY = 51   NGZ = 51
  (NGX  =216   NGY  =216   NGZ  =216)
  gives a total of 132651 points

 initial charge density was supplied:
 charge density of overlapping atoms calculated
 number of electron     293.0000000 magnetization       1.0000000
 keeping initial charge density in first step


--------------------------------------------------------------------------------------------------------


 Maximum index for non-local projection operator          552
 Maximum index for augmentation-charges          326 (set IRDMAX)


--------------------------------------------------------------------------------------------------------


 First call to EWALD:  gamma=   0.125
 Maximum number of real-space cells 3x 3x 3
 Maximum number of reciprocal cells 3x 3x 3

    FEWALD:  cpu time    0.0046: real time    0.0047


--------------------------------------- Iteration      1(   1)  ---------------------------------------


    POTLOK:  cpu time    0.3856: real time    0.4186
    SETDIJ:  cpu time    0.0129: real time    0.0129
     EDDAV:  cpu time   11.5159: real time   11.6220
       DOS:  cpu time    0.0016: real time    0.0016
    --------------------------------------------
      LOOP:  cpu time   11.9160: real time   12.0551

 eigenvalue-minimisations  :  3360
 total energy-change (2. order) : 0.2476135E+04  (-0.1079126E+05)
 number of electron     293.0000000 magnetization       1.0000000
 augmentation part      293.0000000 magnetization       1.0000000

 Free energy of the ion-electron system (eV)
  ---------------------------------------------------
  alpha Z        PSCENC =       157.23395323
  Ewald energy   TEWEN  =     30451.48006618
  -Hartree energ DENC   =    -39613.78337457
  -exchange      EXHF   =         0.00000000
  -V(xc)+E(xc)   XCENC  =       982.92949305
  PAW double counting   =      9000.30529238    -9089.18527416
  entropy T*S    EENTRO =        -0.10193537
  eigenvalues    EBANDS =     -1478.02079324
  atomic energy  EATOM  =     12065.27733323
  Solvation  Ediel_sol  =         0.00000000
  ---------------------------------------------------
  free energy    TOTEN  =      2476.13476074 eV

  energy without entropy =     2476.23669611  energy(sigma->0) =     2476.18572842


--------------------------------------------------------------------------------------------------------




--------------------------------------- Iteration      1(   2)  ---------------------------------------


     EDDAV:  cpu time   15.1165: real time   15.4252
       DOS:  cpu time    0.0010: real time    0.0010
    --------------------------------------------
      LOOP:  cpu time   15.1176: real time   15.4262

 eigenvalue-minimisations  :  4232
 total energy-change (2. order) :-0.2705410E+04  (-0.2586191E+04)
 number of electron     293.0000000 magnetization       1.0000000
 augmentation part      293.0000000 magnetization       1.0000000

 Free energy of the ion-electron system (eV)
  ---------------------------------------------------
  alpha Z        PSCENC =       157.23395323
  Ewald energy   TEWEN  =     30451.48006618
  -Hartree energ DENC   =    -39613.78337457
  -exchange      EXHF   =         0.00000000
  -V(xc)+E(xc)   XCENC  =       982.92949305
  PAW double counting   =      9000.30529238    -9089.18527416
  entropy T*S    EENTRO =        -0.02670638
  eigenvalues    EBANDS =     -4183.50628508
  atomic energy  EATOM  =     12065.27733323
  Solvation  Ediel_sol  =         0.00000000
  ---------------------------------------------------
  free energy    TOTEN  =      -229.27550211 eV

  energy without entropy =     -229.24879573  energy(sigma->0) =     -229.26214892


--------------------------------------------------------------------------------------------------------




--------------------------------------- Iteration      1(   3)  ---------------------------------------


     EDDAV:  cpu time   12.6802: real time   12.9015
       DOS:  cpu time    0.0010: real time    0.0010
    --------------------------------------------
      LOOP:  cpu time   12.6812: real time   12.9025

 eigenvalue-minimisations  :  3544
 total energy-change (2. order) :-0.4578858E+03  (-0.4550626E+03)
 number of electron     293.0000000 magnetization       1.0000000
 augmentation part      293.0000000 magnetization       1.0000000

 Free energy of the ion-electron system (eV)
  ---------------------------------------------------
  alpha Z        PSCENC =       157.23395323
  Ewald energy   TEWEN  =     30451.48006618
  -Hartree energ DENC   =    -39613.78337457
  -exchange      EXHF   =         0.00000000
  -V(xc)+E(xc)   XCENC  =       982.92949305
  PAW double counting   =      9000.30529238    -9089.18527416
  entropy T*S    EENTRO =        -0.03558497
  eigenvalues    EBANDS =     -4641.38324469
  atomic energy  EATOM  =     12065.27733323
  Solvation  Ediel_sol  =         0.00000000
  ---------------------------------------------------
  free energy    TOTEN  =      -687.16134032 eV

  energy without entropy =     -687.12575535  energy(sigma->0) =     -687.14354783


--------------------------------------------------------------------------------------------------------




--------------------------------------- Iteration      1(   4)  ---------------------------------------


     EDDAV:  cpu time   12.9915: real time   13.2041
       DOS:  cpu time    0.0011: real time    0.0011
    --------------------------------------------
      LOOP:  cpu time   12.9926: real time   13.2052

 eigenvalue-minimisations  :  3568
 total energy-change (2. order) :-0.1676843E+02  (-0.1662620E+02)
 number of electron     293.0000000 magnetization       1.0000000
 augmentation part      293.0000000 magnetization       1.0000000

 Free energy of the ion-electron system (eV)
  ---------------------------------------------------
  alpha Z        PSCENC =       157.23395323
  Ewald energy   TEWEN  =     30451.48006618
  -Hartree energ DENC   =    -39613.78337457
  -exchange      EXHF   =         0.00000000
  -V(xc)+E(xc)   XCENC  =       982.92949305
  PAW double counting   =      9000.30529238    -9089.18527416
  entropy T*S    EENTRO =        -0.03435783
  eigenvalues    EBANDS =     -4658.15289904
  atomic energy  EATOM  =     12065.27733323
  Solvation  Ediel_sol  =         0.00000000
  ---------------------------------------------------
  free energy    TOTEN  =      -703.92976752 eV

  energy without entropy =     -703.89540970  energy(sigma->0) =     -703.91258861


--------------------------------------------------------------------------------------------------------




--------------------------------------- Iteration      1(   5)  ---------------------------------------


     EDDAV:  cpu time   14.0707: real time   14.2401
       DOS:  cpu time    0.0010: real time    0.0010
    CHARGE:  cpu time    0.4641: real time    0.4732
    MIXING:  cpu time    0.0261: real time    0.0283
    --------------------------------------------
      LOOP:  cpu time   14.5619: real time   14.7427

 eigenvalue-minimisations  :  4064
 total energy-change (2. order) :-0.5477556E+00  (-0.5458297E+00)
 number of electron     292.9999988 magnetization       0.7766234
 augmentation part       11.6664008 magnetization       0.7556030

 Broyden mixing:
  rms(total) = 0.46853E+01    rms(broyden)= 0.46848E+01
  rms(prec ) = 0.54400E+01
  weight for this iteration     100.00

 Free energy of the ion-electron system (eV)
  ---------------------------------------------------
  alpha Z        PSCENC =       157.23395323
  Ewald energy   TEWEN  =     30451.48006618
  -Hartree energ DENC   =    -39613.78337457
  -exchange      EXHF   =         0.00000000
  -V(xc)+E(xc)   XCENC  =       982.92949305
  PAW double counting   =      9000.30529238    -9089.18527416
  entropy T*S    EENTRO =        -0.03450846
  eigenvalues    EBANDS =     -4658.70050401
  atomic energy  EATOM  =     12065.27733323
  Solvation  Ediel_sol  =         0.00000000
  ---------------------------------------------------
  free energy    TOTEN  =      -704.47752312 eV

  energy without entropy =     -704.44301466  energy(sigma->0) =     -704.46026889


--------------------------------------------------------------------------------------------------------




--------------------------------------- Iteration      1(   6)  ---------------------------------------


    POTLOK:  cpu time    0.4046: real time    0.4135
    SETDIJ:  cpu time    0.0122: real time    0.0133
    EDDIAG:  cpu time    2.1023: real time    2.1285
  RMM-DIIS:  cpu time   11.5869: real time   11.6773
    ORTHCH:  cpu time    0.1866: real time    0.1874
       DOS:  cpu time    0.0011: real time    0.0011
    CHARGE:  cpu time    0.4840: real time    0.4940
    MIXING:  cpu time    0.0082: real time    0.0089
    --------------------------------------------
      LOOP:  cpu time   14.7858: real time   14.9239

 eigenvalue-minimisations  :  4095
 total energy-change (2. order) :-0.2561191E+02  (-0.5135453E+02)
 number of electron     292.9999995 magnetization       0.7175588
 augmentation part       17.2638736 magnetization       1.0085103

 Broyden mixing:
  rms(total) = 0.82781E+01    rms(broyden)= 0.82778E+01
  rms(prec ) = 0.91449E+01
  weight for this iteration     100.00

 eigenvalues of (default mixing * dielectric matrix)
  average eigenvalue GAMMA=   0.2200
  0.2200

 Free energy of the ion-electron system (eV)
  ---------------------------------------------------
  alpha Z        PSCENC =       157.23395323
  Ewald energy   TEWEN  =     30451.48006618
  -Hartree energ DENC   =    -39906.92528694
  -exchange      EXHF   =         0.00000000
  -V(xc)+E(xc)   XCENC  =       996.75009114
  PAW double counting   =     15332.67793244   -15421.33885007
  entropy T*S    EENTRO =        -0.04504685
  eigenvalues    EBANDS =     -4405.19962999
  atomic energy  EATOM  =     12065.27733323
  Solvation  Ediel_sol  =         0.00000000
  ---------------------------------------------------
  free energy    TOTEN  =      -730.08943763 eV

  energy without entropy =     -730.04439078  energy(sigma->0) =     -730.06691420


--------------------------------------------------------------------------------------------------------




--------------------------------------- Iteration      1(   7)  ---------------------------------------


    POTLOK:  cpu time    0.4090: real time    0.4188
    SETDIJ:  cpu time    0.0112: real time    0.0112
    EDDIAG:  cpu time    2.0317: real time    2.0560
  RMM-DIIS:  cpu time    8.7966: real time    8.8698
    ORTHCH:  cpu time    0.4941: real time    0.5366
       DOS:  cpu time    0.0009: real time    0.0009
    CHARGE:  cpu time    0.4768: real time    0.4880
    MIXING:  cpu time    0.0072: real time    0.0083
    --------------------------------------------
      LOOP:  cpu time   12.2276: real time   12.3897

 eigenvalue-minimisations  :  3061
 total energy-change (2. order) : 0.6759996E+02  (-0.6053925E+01)
 number of electron     292.9999994 magnetization       0.6152896
 augmentation part       15.1888248 magnetization       0.6230317

 Broyden mixing:
  rms(total) = 0.31584E+01    rms(broyden)= 0.31580E+01
  rms(prec ) = 0.37774E+01
  weight for this iteration     100.00

 eigenvalues of (default mixing * dielectric matrix)
  average eigenvalue GAMMA=   0.4721
  0.5274  0.4169

 Free energy of the ion-electron system (eV)
  ---------------------------------------------------
  alpha Z        PSCENC =       157.23395323
  Ewald energy   TEWEN  =     30451.48006618
  -Hartree energ DENC   =    -40030.10899255
  -exchange      EXHF   =         0.00000000
  -V(xc)+E(xc)   XCENC  =      1001.39501799
  PAW double counting   =     16978.62778321   -17074.11133026
  entropy T*S    EENTRO =        -0.00013864
  eigenvalues    EBANDS =     -4212.28316676
  atomic energy  EATOM  =     12065.27733323
  Solvation  Ediel_sol  =         0.00000000
  ---------------------------------------------------
  free energy    TOTEN  =      -662.48947436 eV

  energy without entropy =     -662.48933573  energy(sigma->0) =     -662.48940504


--------------------------------------------------------------------------------------------------------




--------------------------------------- Iteration      1(   8)  ---------------------------------------


    POTLOK:  cpu time    0.3956: real time    0.4001
    SETDIJ:  cpu time    0.0169: real time    0.0169
    EDDIAG:  cpu time    2.1160: real time    2.1337
  RMM-DIIS:  cpu time    8.8559: real time    8.9212
    ORTHCH:  cpu time    0.3390: real time    0.3396
       DOS:  cpu time    0.0010: real time    0.0010
    CHARGE:  cpu time    0.5036: real time    0.5125
    MIXING:  cpu time    0.0090: real time    0.0092
    --------------------------------------------
      LOOP:  cpu time   12.2371: real time   12.3342

 eigenvalue-minimisations  :  3105
 total energy-change (2. order) : 0.1422709E+00  (-0.2270494E+01)
 number of electron     292.9999989 magnetization       0.3524932
 augmentation part       11.2389815 magnetization       0.2688234

 Broyden mixing:
  rms(total) = 0.28230E+01    rms(broyden)= 0.28221E+01
  rms(prec ) = 0.34567E+01
  weight for this iteration     100.00

 eigenvalues of (default mixing * dielectric matrix)
  average eigenvalue GAMMA=   0.8592
  1.8930  0.3423  0.3423

 Free energy of the ion-electron system (eV)
  ---------------------------------------------------
  alpha Z        PSCENC =       157.23395323
  Ewald energy   TEWEN  =     30451.48006618
  -Hartree energ DENC   =    -40212.54826359
  -exchange      EXHF   =         0.00000000
  -V(xc)+E(xc)   XCENC  =      1008.17314520
  PAW double counting   =     20018.11205924   -20117.59246488
  entropy T*S    EENTRO =        -0.03648706
  eigenvalues    EBANDS =     -4032.44654503
  atomic energy  EATOM  =     12065.27733323
  Solvation  Ediel_sol  =         0.00000000
  ---------------------------------------------------
  free energy    TOTEN  =      -662.34720348 eV

  energy without entropy =     -662.31071642  energy(sigma->0) =     -662.32895995


--------------------------------------------------------------------------------------------------------




--------------------------------------- Iteration      1(   9)  ---------------------------------------


    POTLOK:  cpu time    0.4009: real time    0.4051
    SETDIJ:  cpu time    0.0122: real time    0.0122
    EDDIAG:  cpu time    2.0552: real time    2.0762
  RMM-DIIS:  cpu time    8.4577: real time    8.5184
    ORTHCH:  cpu time    0.3988: real time    0.4156
       DOS:  cpu time    0.0011: real time    0.0011
    CHARGE:  cpu time    0.4464: real time    0.4538
    MIXING:  cpu time    0.0071: real time    0.0073
    --------------------------------------------
      LOOP:  cpu time   11.7794: real time   11.8896

 eigenvalue-minimisations  :  2975
 total energy-change (2. order) : 0.1490415E+02  (-0.2062646E+01)
 number of electron     292.9999992 magnetization       0.2748548
 augmentation part       12.2502879 magnetization       0.2597078

 Broyden mixing:
  rms(total) = 0.11061E+01    rms(broyden)= 0.11055E+01
  rms(prec ) = 0.12305E+01
  weight for this iteration     100.00

 eigenvalues of (default mixing * dielectric matrix)
  average eigenvalue GAMMA=   0.9173
  2.2193  0.7444  0.3528  0.3528

 Free energy of the ion-electron system (eV)
  ---------------------------------------------------
  alpha Z        PSCENC =       157.23395323
  Ewald energy   TEWEN  =     30451.48006618
  -Hartree energ DENC   =    -40520.88975813
  -exchange      EXHF   =         0.00000000
  -V(xc)+E(xc)   XCENC  =      1021.09798313
  PAW double counting   =     28555.68964955   -28657.92045068
  entropy T*S    EENTRO =        -0.02163029
  eigenvalues    EBANDS =     -3719.39019609
  atomic energy  EATOM  =     12065.27733323
  Solvation  Ediel_sol  =         0.00000000
  ---------------------------------------------------
  free energy    TOTEN  =      -647.44304985 eV

  energy without entropy =     -647.42141956  energy(sigma->0) =     -647.43223471


--------------------------------------------------------------------------------------------------------




--------------------------------------- Iteration      1(  10)  ---------------------------------------


    POTLOK:  cpu time    0.3852: real time    0.3887
    SETDIJ:  cpu time    0.0123: real time    0.0124
    EDDIAG:  cpu time    2.1661: real time    2.1839
  RMM-DIIS:  cpu time    8.6003: real time    8.6588
    ORTHCH:  cpu time    0.2773: real time    0.3090
       DOS:  cpu time    0.0011: real time    0.0010
    CHARGE:  cpu time    0.4756: real time    0.4846
    MIXING:  cpu time    0.0090: real time    0.0090
    --------------------------------------------
      LOOP:  cpu time   11.9268: real time   12.0475

 eigenvalue-minimisations  :  3002
 total energy-change (2. order) :-0.6108105E+00  (-0.2823963E+00)
 number of electron     292.9999994 magnetization       0.2200084
 augmentation part       13.7186382 magnetization       0.2499464

 Broyden mixing:
  rms(total) = 0.14035E+01    rms(broyden)= 0.14017E+01
  rms(prec ) = 0.17363E+01
  weight for this iteration     100.00

 eigenvalues of (default mixing * dielectric matrix)
  average eigenvalue GAMMA=   0.9293
  2.3524  1.1034  0.3497  0.3497  0.4914

 Free energy of the ion-electron system (eV)
  ---------------------------------------------------
  alpha Z        PSCENC =       157.23395323
  Ewald energy   TEWEN  =     30451.48006618
  -Hartree energ DENC   =    -40562.44111705
  -exchange      EXHF   =         0.00000000
  -V(xc)+E(xc)   XCENC  =      1021.92145356
  PAW double counting   =     30033.75396468   -30134.80272989
  entropy T*S    EENTRO =        -0.00321676
  eigenvalues    EBANDS =     -3680.47356752
  atomic energy  EATOM  =     12065.27733323
  Solvation  Ediel_sol  =         0.00000000
  ---------------------------------------------------
  free energy    TOTEN  =      -648.05386033 eV

  energy without entropy =     -648.05064357  energy(sigma->0) =     -648.05225195


--------------------------------------------------------------------------------------------------------




--------------------------------------- Iteration      1(  11)  ---------------------------------------


    POTLOK:  cpu time    0.3963: real time    0.3996
    SETDIJ:  cpu time    0.0125: real time    0.0128
    EDDIAG:  cpu time    2.0492: real time    2.0676
  RMM-DIIS:  cpu time    8.9277: real time    9.0001
    ORTHCH:  cpu time    0.2429: real time    0.2479
       DOS:  cpu time    0.0011: real time    0.0011
    CHARGE:  cpu time    0.4438: real time    0.4515
    MIXING:  cpu time    0.0087: real time    0.0088
    --------------------------------------------
      LOOP:  cpu time   12.0822: real time   12.1894

 eigenvalue-minimisations  :  3106
 total energy-change (2. order) : 0.1145375E+01  (-0.4019847E-01)
 number of electron     292.9999993 magnetization       0.1873110
 augmentation part       12.5752920 magnetization       0.0985065

 Broyden mixing:
  rms(total) = 0.72622E+00    rms(broyden)= 0.72409E+00
  rms(prec ) = 0.76406E+00
  weight for this iteration     100.00

 eigenvalues of (default mixing * dielectric matrix)
  average eigenvalue GAMMA=   0.9812
  2.1092  2.1092  0.3482  0.3482  0.5901  0.3826

 Free energy of the ion-electron system (eV)
  ---------------------------------------------------
  alpha Z        PSCENC =       157.23395323
  Ewald energy   TEWEN  =     30451.48006618
  -Hartree energ DENC   =    -40595.26298002
  -exchange      EXHF   =         0.00000000
  -V(xc)+E(xc)   XCENC  =      1022.31505640
  PAW double counting   =     30700.06203067   -30800.40082606
  entropy T*S    EENTRO =        -0.05216955
  eigenvalues    EBANDS =     -3647.56094979
  atomic energy  EATOM  =     12065.27733323
  Solvation  Ediel_sol  =         0.00000000
  ---------------------------------------------------
  free energy    TOTEN  =      -646.90848571 eV

  energy without entropy =     -646.85631616  energy(sigma->0) =     -646.88240093


--------------------------------------------------------------------------------------------------------




--------------------------------------- Iteration      1(  12)  ---------------------------------------


    POTLOK:  cpu time    0.3966: real time    0.4002
    SETDIJ:  cpu time    0.0127: real time    0.0127
    EDDIAG:  cpu time    2.0864: real time    2.1042
  RMM-DIIS:  cpu time    8.3408: real time    8.4018
    ORTHCH:  cpu time    0.2496: real time    0.2501
       DOS:  cpu time    0.0010: real time    0.0010
    CHARGE:  cpu time    0.4768: real time    0.4849
    MIXING:  cpu time    0.0091: real time    0.0091
    --------------------------------------------
      LOOP:  cpu time   11.5730: real time   11.6641

 eigenvalue-minimisations  :  2944
 total energy-change (2. order) :-0.5606153E-01  (-0.1848431E-01)
 number of electron     292.9999993 magnetization       0.1857431
 augmentation part       12.9959962 magnetization      -0.2184592

 Broyden mixing:
  rms(total) = 0.69649E+00    rms(broyden)= 0.69537E+00
  rms(prec ) = 0.74123E+00
  weight for this iteration     100.00

 eigenvalues of (default mixing * dielectric matrix)
  average eigenvalue GAMMA=   0.8445
  2.1123  2.1123  0.3483  0.3483  0.5723  0.3811  0.0371

 Free energy of the ion-electron system (eV)
  ---------------------------------------------------
  alpha Z        PSCENC =       157.23395323
  Ewald energy   TEWEN  =     30451.48006618
  -Hartree energ DENC   =    -40620.19965615
  -exchange      EXHF   =         0.00000000
  -V(xc)+E(xc)   XCENC  =      1021.87447271
  PAW double counting   =     31126.47391034   -31225.28452337
  entropy T*S    EENTRO =        -0.03821422
  eigenvalues    EBANDS =     -3623.78188920
  atomic energy  EATOM  =     12065.27733323
  Solvation  Ediel_sol  =         0.00000000
  ---------------------------------------------------
  free energy    TOTEN  =      -646.96454724 eV

  energy without entropy =     -646.92633302  energy(sigma->0) =     -646.94544013


--------------------------------------------------------------------------------------------------------




--------------------------------------- Iteration      1(  13)  ---------------------------------------


    POTLOK:  cpu time    0.3880: real time    0.3910
    SETDIJ:  cpu time    0.0125: real time    0.0126
    EDDIAG:  cpu time    2.0541: real time    2.0709
  RMM-DIIS:  cpu time    8.5045: real time    8.5675
    ORTHCH:  cpu time    0.3352: real time    0.3363
       DOS:  cpu time    0.0011: real time    0.0011
    CHARGE:  cpu time    0.4595: real time    0.4661
    MIXING:  cpu time    0.0080: real time    0.0080
    --------------------------------------------
      LOOP:  cpu time   11.7630: real time   11.8536

 eigenvalue-minimisations  :  2994
 total energy-change (2. order) : 0.3760237E-02  (-0.2191087E-02)
 number of electron     292.9999993 magnetization       0.1646105
 augmentation part       12.9810244 magnetization      -0.2711192

 Broyden mixing:
  rms(total) = 0.71416E+00    rms(broyden)= 0.71408E+00
  rms(prec ) = 0.75257E+00
  weight for this iteration     100.00

 eigenvalues of (default mixing * dielectric matrix)
  average eigenvalue GAMMA=   0.8249
  2.2593  2.2593  0.6726  0.3493  0.3493  0.3933  0.1581  0.1581

 Free energy of the ion-electron system (eV)
  ---------------------------------------------------
  alpha Z        PSCENC =       157.23395323
  Ewald energy   TEWEN  =     30451.48006618
  -Hartree energ DENC   =    -40620.06524318
  -exchange      EXHF   =         0.00000000
  -V(xc)+E(xc)   XCENC  =      1021.88098913
  PAW double counting   =     31126.63874528   -31225.41995054
  entropy T*S    EENTRO =        -0.03356576
  eigenvalues    EBANDS =     -3623.95311457
  atomic energy  EATOM  =     12065.27733323
  Solvation  Ediel_sol  =         0.00000000
  ---------------------------------------------------
  free energy    TOTEN  =      -646.96078700 eV

  energy without entropy =     -646.92722124  energy(sigma->0) =     -646.94400412


--------------------------------------------------------------------------------------------------------




--------------------------------------- Iteration      1(  14)  ---------------------------------------


    POTLOK:  cpu time    0.3903: real time    0.3944
    SETDIJ:  cpu time    0.0250: real time    0.0251
    EDDIAG:  cpu time    2.0237: real time    2.0398
  RMM-DIIS:  cpu time    8.4349: real time    8.5020
    ORTHCH:  cpu time    0.2447: real time    0.2467
       DOS:  cpu time    0.0010: real time    0.0010
    CHARGE:  cpu time    0.4505: real time    0.4588
    MIXING:  cpu time    0.0089: real time    0.0090
    --------------------------------------------
      LOOP:  cpu time   11.5790: real time   11.6768

 eigenvalue-minimisations  :  2966
 total energy-change (2. order) : 0.1622412E+00  (-0.3692035E-02)
 number of electron     292.9999993 magnetization       0.1460046
 augmentation part       12.8391055 magnetization      -0.2742275

 Broyden mixing:
  rms(total) = 0.66937E+00    rms(broyden)= 0.66934E+00
  rms(prec ) = 0.67964E+00
  weight for this iteration     100.00

 eigenvalues of (default mixing * dielectric matrix)
  average eigenvalue GAMMA=   0.8288
  2.3027  2.3027  0.6605  0.4580  0.4580  0.4015  0.3366  0.3366  0.2027

 Free energy of the ion-electron system (eV)
  ---------------------------------------------------
  alpha Z        PSCENC =       157.23395323
  Ewald energy   TEWEN  =     30451.48006618
  -Hartree energ DENC   =    -40631.88967694
  -exchange      EXHF   =         0.00000000
  -V(xc)+E(xc)   XCENC  =      1021.92638998
  PAW double counting   =     31270.75646069   -31369.19777830
  entropy T*S    EENTRO =        -0.04010840
  eigenvalues    EBANDS =     -3612.34518550
  atomic energy  EATOM  =     12065.27733323
  Solvation  Ediel_sol  =         0.00000000
  ---------------------------------------------------
  free energy    TOTEN  =      -646.79854582 eV

  energy without entropy =     -646.75843742  energy(sigma->0) =     -646.77849162


--------------------------------------------------------------------------------------------------------




--------------------------------------- Iteration      1(  15)  ---------------------------------------


    POTLOK:  cpu time    0.4464: real time    0.4507
    SETDIJ:  cpu time    0.0128: real time    0.0129
    EDDIAG:  cpu time    2.0477: real time    2.0640
  RMM-DIIS:  cpu time    8.3585: real time    8.4218
    ORTHCH:  cpu time    0.2085: real time    0.2091
       DOS:  cpu time    0.0010: real time    0.0010
    CHARGE:  cpu time    0.4434: real time    0.4515
    MIXING:  cpu time    0.0083: real time    0.0085
    --------------------------------------------
      LOOP:  cpu time   11.5268: real time   11.6194

 eigenvalue-minimisations  :  2946
 total energy-change (2. order) : 0.2305078E-01  (-0.3383423E-02)
 number of electron     292.9999993 magnetization       0.1265996
 augmentation part       13.0017571 magnetization      -0.2704912

 Broyden mixing:
  rms(total) = 0.74861E+00    rms(broyden)= 0.74859E+00
  rms(prec ) = 0.78552E+00
  weight for this iteration     100.00

 eigenvalues of (default mixing * dielectric matrix)
  average eigenvalue GAMMA=   0.8181
  2.3236  2.3236  0.7002  0.7002  0.6179  0.3468  0.3468  0.4161  0.2029  0.2029

 Free energy of the ion-electron system (eV)
  ---------------------------------------------------
  alpha Z        PSCENC =       157.23395323
  Ewald energy   TEWEN  =     30451.48006618
  -Hartree energ DENC   =    -40645.13606017
  -exchange      EXHF   =         0.00000000
  -V(xc)+E(xc)   XCENC  =      1022.08082544
  PAW double counting   =     31328.17922332   -31426.46260819
  entropy T*S    EENTRO =        -0.03464359
  eigenvalues    EBANDS =     -3599.39358449
  atomic energy  EATOM  =     12065.27733323
  Solvation  Ediel_sol  =         0.00000000
  ---------------------------------------------------
  free energy    TOTEN  =      -646.77549504 eV

  energy without entropy =     -646.74085144  energy(sigma->0) =     -646.75817324


--------------------------------------------------------------------------------------------------------




--------------------------------------- Iteration      1(  16)  ---------------------------------------


    POTLOK:  cpu time    0.4027: real time    0.4066
    SETDIJ:  cpu time    0.0125: real time    0.0125
    EDDIAG:  cpu time    2.0504: real time    2.0670
  RMM-DIIS:  cpu time    8.6904: real time    8.7528
    ORTHCH:  cpu time    0.1814: real time    0.1819
       DOS:  cpu time    0.0011: real time    0.0011
    CHARGE:  cpu time    0.4819: real time    0.4886
    MIXING:  cpu time    0.0103: real time    0.0104
    --------------------------------------------
      LOOP:  cpu time   11.8308: real time   11.9209

 eigenvalue-minimisations  :  3074
 total energy-change (2. order) : 0.5902263E-01  (-0.7534862E-02)
 number of electron     292.9999993 magnetization       0.1384466
 augmentation part       12.5879373 magnetization       0.0186783

 Broyden mixing:
  rms(total) = 0.52300E+00    rms(broyden)= 0.52212E+00
  rms(prec ) = 0.57834E+00
  weight for this iteration     100.00

 eigenvalues of (default mixing * dielectric matrix)
  average eigenvalue GAMMA=   0.8028
  2.3024  2.3024  0.7170  0.7170  0.6188  0.6188  0.3514  0.3514  0.3972  0.2269
  0.2269

 Free energy of the ion-electron system (eV)
  ---------------------------------------------------
  alpha Z        PSCENC =       157.23395323
  Ewald energy   TEWEN  =     30451.48006618
  -Hartree energ DENC   =    -40669.05376741
  -exchange      EXHF   =         0.00000000
  -V(xc)+E(xc)   XCENC  =      1022.33544261
  PAW double counting   =     31372.39864778   -31470.46791519
  entropy T*S    EENTRO =        -0.05624192
  eigenvalues    EBANDS =     -3575.86399091
  atomic energy  EATOM  =     12065.27733323
  Solvation  Ediel_sol  =         0.00000000
  ---------------------------------------------------
  free energy    TOTEN  =      -646.71647241 eV

  energy without entropy =     -646.66023048  energy(sigma->0) =     -646.68835144


--------------------------------------------------------------------------------------------------------




--------------------------------------- Iteration      1(  17)  ---------------------------------------


    POTLOK:  cpu time    0.3842: real time    0.3873
    SETDIJ:  cpu time    0.0166: real time    0.0167
    EDDIAG:  cpu time    2.0288: real time    2.0443
  RMM-DIIS:  cpu time    8.3353: real time    8.4054
    ORTHCH:  cpu time    0.2604: real time    0.2618
       DOS:  cpu time    0.0016: real time    0.0024
    CHARGE:  cpu time    0.4418: real time    0.4464
    MIXING:  cpu time    0.0095: real time    0.0096
    --------------------------------------------
      LOOP:  cpu time   11.4783: real time   11.5738

 eigenvalue-minimisations  :  2951
 total energy-change (2. order) :-0.8164923E-01  (-0.2180318E-02)
 number of electron     292.9999993 magnetization       0.1591546
 augmentation part       12.6380844 magnetization       0.0165411

 Broyden mixing:
  rms(total) = 0.46162E+00    rms(broyden)= 0.46160E+00
  rms(prec ) = 0.49687E+00
  weight for this iteration     100.00

 eigenvalues of (default mixing * dielectric matrix)
  average eigenvalue GAMMA=   0.7675
  2.2984  2.2984  0.7654  0.7654  0.5826  0.4885  0.4885  0.3447  0.3447  0.4047
  0.2144  0.2144

 Free energy of the ion-electron system (eV)
  ---------------------------------------------------
  alpha Z        PSCENC =       157.23395323
  Ewald energy   TEWEN  =     30451.48006618
  -Hartree energ DENC   =    -40679.37193484
  -exchange      EXHF   =         0.00000000
  -V(xc)+E(xc)   XCENC  =      1022.44902044
  PAW double counting   =     31333.73820414   -31431.85217070
  entropy T*S    EENTRO =        -0.05729025
  eigenvalues    EBANDS =     -3565.69530307
  atomic energy  EATOM  =     12065.27733323
  Solvation  Ediel_sol  =         0.00000000
  ---------------------------------------------------
  free energy    TOTEN  =      -646.79812164 eV

  energy without entropy =     -646.74083139  energy(sigma->0) =     -646.76947651


--------------------------------------------------------------------------------------------------------




--------------------------------------- Iteration      1(  18)  ---------------------------------------


    POTLOK:  cpu time    0.4033: real time    0.4073
    SETDIJ:  cpu time    0.0159: real time    0.0159
    EDDIAG:  cpu time    2.0170: real time    2.0308
  RMM-DIIS:  cpu time    8.4156: real time    8.4774
    ORTHCH:  cpu time    0.2637: real time    0.2643
       DOS:  cpu time    0.0010: real time    0.0010
    CHARGE:  cpu time    0.4482: real time    0.4540
    MIXING:  cpu time    0.0099: real time    0.0100
    --------------------------------------------
      LOOP:  cpu time   11.5744: real time   11.6607

 eigenvalue-minimisations  :  2987
 total energy-change (2. order) :-0.4311627E-01  (-0.1772758E-02)
 number of electron     292.9999993 magnetization       0.2194209
 augmentation part       12.5850517 magnetization       0.1339219

 Broyden mixing:
  rms(total) = 0.42218E+00    rms(broyden)= 0.42213E+00
  rms(prec ) = 0.47951E+00
  weight for this iteration     100.00

 eigenvalues of (default mixing * dielectric matrix)
  average eigenvalue GAMMA=   0.9598
  2.3946  2.3946  1.6634  1.6634  0.8381  0.8381  0.5795  0.5795  0.3479  0.3479
  0.3945  0.2179  0.2179

 Free energy of the ion-electron system (eV)
  ---------------------------------------------------
  alpha Z        PSCENC =       157.23395323
  Ewald energy   TEWEN  =     30451.48006618
  -Hartree energ DENC   =    -40695.90236755
  -exchange      EXHF   =         0.00000000
  -V(xc)+E(xc)   XCENC  =      1022.62022005
  PAW double counting   =     31272.24206845   -31370.30897627
  entropy T*S    EENTRO =        -0.05167155
  eigenvalues    EBANDS =     -3549.43186367
  atomic energy  EATOM  =     12065.27733323
  Solvation  Ediel_sol  =         0.00000000
  ---------------------------------------------------
  free energy    TOTEN  =      -646.84123790 eV

  energy without entropy =     -646.78956635  energy(sigma->0) =     -646.81540213


--------------------------------------------------------------------------------------------------------




--------------------------------------- Iteration      1(  19)  ---------------------------------------


    POTLOK:  cpu time    0.4450: real time    0.4484
    SETDIJ:  cpu time    0.0122: real time    0.0125
    EDDIAG:  cpu time    2.0534: real time    2.0683
  RMM-DIIS:  cpu time    8.3010: real time    8.3583
    ORTHCH:  cpu time    0.2236: real time    0.2330
       DOS:  cpu time    0.0011: real time    0.0011
    CHARGE:  cpu time    0.4460: real time    0.4514
    MIXING:  cpu time    0.0103: real time    0.0104
    --------------------------------------------
      LOOP:  cpu time   11.4926: real time   11.5833

 eigenvalue-minimisations  :  2951
 total energy-change (2. order) :-0.4999973E-01  (-0.3195388E-02)
 number of electron     292.9999993 magnetization       0.2402215
 augmentation part       12.5889475 magnetization       0.1778736

 Broyden mixing:
  rms(total) = 0.33502E+00    rms(broyden)= 0.33495E+00
  rms(prec ) = 0.39547E+00
  weight for this iteration     100.00

 eigenvalues of (default mixing * dielectric matrix)
  average eigenvalue GAMMA=   0.9307
  2.4160  2.4160  1.6110  1.6110  0.9054  0.9054  0.5558  0.5558  0.3479  0.3479
  0.5225  0.3995  0.2178  0.2178

 Free energy of the ion-electron system (eV)
  ---------------------------------------------------
  alpha Z        PSCENC =       157.23395323
  Ewald energy   TEWEN  =     30451.48006618
  -Hartree energ DENC   =    -40720.87995229
  -exchange      EXHF   =         0.00000000
  -V(xc)+E(xc)   XCENC  =      1022.87062669
  PAW double counting   =     31209.13226855   -31307.11057002
  entropy T*S    EENTRO =        -0.04943971
  eigenvalues    EBANDS =     -3524.84552350
  atomic energy  EATOM  =     12065.27733323
  Solvation  Ediel_sol  =         0.00000000
  ---------------------------------------------------
  free energy    TOTEN  =      -646.89123764 eV

  energy without entropy =     -646.84179792  energy(sigma->0) =     -646.86651778


--------------------------------------------------------------------------------------------------------




--------------------------------------- Iteration      1(  20)  ---------------------------------------


    POTLOK:  cpu time    0.3211: real time    0.3250
    SETDIJ:  cpu time    0.0122: real time    0.0124
    EDDIAG:  cpu time    2.0497: real time    2.0711
  RMM-DIIS:  cpu time    8.7132: real time    8.7721
    ORTHCH:  cpu time    0.1951: real time    0.1956
       DOS:  cpu time    0.0010: real time    0.0010
    CHARGE:  cpu time    0.4551: real time    0.4610
    MIXING:  cpu time    0.0112: real time    0.0112
    --------------------------------------------
      LOOP:  cpu time   11.7587: real time   11.8493

 eigenvalue-minimisations  :  3090
 total energy-change (2. order) :-0.1590660E-01  (-0.5739342E-03)
 number of electron     292.9999993 magnetization       0.2804791
 augmentation part       12.5840866 magnetization       0.1878168

 Broyden mixing:
  rms(total) = 0.32428E+00    rms(broyden)= 0.32427E+00
  rms(prec ) = 0.38468E+00
  weight for this iteration     100.00

 eigenvalues of (default mixing * dielectric matrix)
  average eigenvalue GAMMA=   0.8850
  2.4270  2.4270  1.5870  1.5870  0.9275  0.9275  0.5056  0.5056  0.3477  0.3477
  0.4329  0.4329  0.3843  0.2178  0.2178

 Free energy of the ion-electron system (eV)
  ---------------------------------------------------
  alpha Z        PSCENC =       157.23395323
  Ewald energy   TEWEN  =     30451.48006618
  -Hartree energ DENC   =    -40723.68066436
  -exchange      EXHF   =         0.00000000
  -V(xc)+E(xc)   XCENC  =      1022.90791496
  PAW double counting   =     31197.00586188   -31295.01283165
  entropy T*S    EENTRO =        -0.05088312
  eigenvalues    EBANDS =     -3522.06789459
[...]
  Hartree 40015.31410 39970.06935-39209.90345     4.37682    -4.16624    -6.36364
  E(xc)   -1110.97685 -1110.66548 -1150.12968    -0.00332    -0.00332    -0.00974
  Local  -83775.12392-83723.08925 86077.07143    -8.40409     8.78988    13.01642
  n-local  -288.85263  -286.36884  -269.42670    -0.17015    -0.06733     0.16779
  augment    66.31286    65.03545    65.78152    -0.05053     0.06651     0.50324
  Kinetic  4382.76549  4370.98078  4983.58535     0.45437     0.44616     1.04771
  Fock        0.00000     0.00000     0.00000     0.00000     0.00000     0.00000
  vdW        -1.53984    -1.67831    -0.04221     0.00178    -0.00031     0.02302
  -------------------------------------------------------------------------------------
  Total      -1.93539    -1.95288    -3.50993     0.00323    -0.01572    -0.02818
  in kB      -1.09066    -1.10052    -1.97798     0.00182    -0.00886    -0.01588
  external pressure =       -1.39 kB  Pullay stress =        0.00 kB


 VOLUME and BASIS-vectors are now :
 -----------------------------------------------------------------------------
  energy-cutoff  :      440.00
  volume of cell :     2843.07
      direct lattice vectors                 reciprocal lattice vectors
    14.864909407  0.003627638  0.000000000     0.067262956  0.039213486  0.000000000
    -7.432454703 12.748901734  0.000000000    -0.000019139  0.078426971  0.000000000
     0.000000000  0.000000000 15.000000000     0.000000000  0.000000000  0.066666667

  length of vectors
    14.864909849 14.757231392 15.000000000     0.077858864  0.078426973  0.066666667


 FORCES acting on ions
    electron-ion (+dipol)            ewald-force                    non-local-force                 convergence-correction
 -----------------------------------------------------------------------------------------------
   0.188E+01 -.447E+01 0.797E+01   -.197E+01 0.471E+01 -.801E+01   0.101E+00 -.242E+00 0.289E-01   0.548E-04 -.498E-05 0.874E-04
   -.170E+01 -.516E+00 0.744E+01   0.177E+01 0.735E+00 -.747E+01   -.576E-01 -.228E+00 0.266E-01   0.336E-03 -.380E-05 0.132E-03
   0.557E+00 -.147E+01 0.721E+01   -.400E+00 0.177E+01 -.723E+01   -.162E+00 -.306E+00 0.253E-01   -.174E-03 -.429E-03 0.147E-03
   -.274E+01 -.197E+00 0.734E+01   0.285E+01 0.415E+00 -.735E+01   -.105E+00 -.221E+00 0.734E-02   -.478E-03 -.527E-03 0.160E-03
   -.114E+01 -.184E+00 0.685E+01   0.120E+01 0.355E+00 -.687E+01   -.610E-01 -.164E+00 0.238E-01   0.113E-03 -.225E-03 0.995E-04
   0.777E+00 0.547E+00 0.674E+01   -.857E+00 -.419E+00 -.674E+01   0.799E-01 -.116E+00 -.427E-02   0.445E-03 -.376E-03 0.124E-03
   -.199E+01 -.520E+00 0.753E+01   0.206E+01 0.480E+00 -.756E+01   -.640E-01 0.379E-01 0.258E-01   0.270E-03 -.197E-04 0.188E-03
   0.183E+01 0.669E+00 0.775E+01   -.193E+01 -.651E+00 -.778E+01   0.100E+00 -.301E-01 0.299E-01   0.458E-04 -.816E-04 0.172E-03
   -.873E+00 -.875E+00 0.732E+01   0.885E+00 0.830E+00 -.733E+01   -.186E-01 0.424E-01 0.100E-01   -.470E-03 0.372E-03 0.169E-03
   0.111E+01 -.155E+00 0.730E+01   -.106E+01 0.452E-01 -.733E+01   -.403E-01 0.104E+00 0.269E-01   -.196E-03 0.464E-03 0.145E-03
   0.171E+01 -.244E+01 0.668E+01   -.192E+01 0.250E+01 -.667E+01   0.209E+00 -.814E-01 -.184E-01   0.163E-03 0.519E-03 0.685E-04
   0.566E+00 -.820E+00 0.658E+01   -.610E+00 0.813E+00 -.661E+01   0.295E-01 -.113E-01 0.198E-01   -.256E-04 0.743E-04 0.728E-04
   0.216E+01 0.331E+01 0.717E+01   -.218E+01 -.328E+01 -.719E+01   0.272E-01 -.275E-01 0.192E-01   -.267E-03 -.295E-04 0.147E-03
   0.229E+01 0.318E+01 0.662E+01   -.219E+01 -.319E+01 -.664E+01   -.929E-01 0.850E-02 0.171E-01   -.955E-03 -.469E-04 0.167E-03
   0.159E+01 0.444E+01 0.826E+01   -.152E+01 -.426E+01 -.828E+01   -.836E-01 -.166E+00 0.210E-01   -.613E-03 -.604E-03 0.226E-03
   -.166E+01 0.698E+01 0.102E+02   0.211E+01 -.672E+01 -.103E+02   -.466E+00 -.240E+00 0.134E+00   -.190E-03 -.211E-03 0.396E-03
   0.459E+00 0.529E+01 0.748E+01   -.440E+00 -.488E+01 -.750E+01   -.235E-01 -.433E+00 0.234E-01   0.340E-03 -.878E-03 0.261E-03
   -.196E+01 0.850E+01 0.716E+01   0.195E+01 -.787E+01 -.677E+01   0.367E-02 -.624E+00 -.391E+00   0.961E-04 -.132E-02 0.691E-03
   -.157E+01 0.493E+01 0.816E+01   0.149E+01 -.486E+01 -.818E+01   0.984E-01 -.720E-01 0.166E-01   0.228E-03 -.713E-03 0.197E-03
   0.335E+01 0.904E+01 0.990E+01   -.398E+01 -.888E+01 -.100E+02   0.636E+00 -.151E+00 0.106E+00   0.510E-03 -.250E-03 0.392E-03
   -.187E+01 0.536E+01 0.764E+01   0.191E+01 -.549E+01 -.765E+01   -.436E-01 0.150E+00 0.134E-01   0.321E-03 0.117E-03 0.184E-03
   -.225E+01 0.519E+01 0.760E+01   0.225E+01 -.536E+01 -.763E+01   -.500E-02 0.186E+00 0.260E-01   0.689E-03 -.166E-05 0.135E-03
   -.547E+00 0.188E+01 0.611E+01   0.522E+00 -.195E+01 -.610E+01   0.272E-01 0.604E-01 -.148E-01   -.135E-03 -.207E-03 0.893E-04
   0.610E-01 0.368E+01 0.628E+01   -.324E-02 -.378E+01 -.631E+01   -.640E-01 0.974E-01 0.247E-01   -.395E-04 0.169E-03 0.781E-04
   0.560E+00 0.445E+01 0.574E+01   -.471E+00 -.453E+01 -.572E+01   -.817E-01 0.823E-01 -.193E-01   0.221E-03 -.572E-03 0.129E-03
   0.230E+01 0.453E+01 0.626E+01   -.211E+01 -.464E+01 -.631E+01   -.196E+00 0.984E-01 0.458E-01   -.378E-03 -.208E-04 0.182E-03
   0.398E+01 0.989E+01 0.634E+01   -.377E+01 -.992E+01 -.631E+01   -.222E+00 0.350E-01 -.263E-01   -.295E-03 -.469E-03 0.339E-03
   0.118E+02 0.721E+01 0.427E+01   -.116E+02 -.714E+01 -.435E+01   -.209E+00 -.711E-01 0.866E-01   -.871E-03 -.408E-03 0.521E-03
   -.634E-01 0.197E+02 0.138E+02   0.351E+00 -.189E+02 -.140E+02   -.299E+00 -.842E+00 0.222E+00   -.211E-02 -.322E-03 0.560E-03
   -.526E+01 0.381E+02 0.284E+02   0.115E+02 -.347E+02 -.275E+02   -.623E+01 -.337E+01 -.950E+00   -.324E-02 -.249E-02 0.439E-03
   0.211E+01 0.184E+02 0.113E+02   -.250E+01 -.174E+02 -.115E+02   0.393E+00 -.997E+00 0.211E+00   0.182E-02 -.637E-03 0.677E-03
   0.823E+01 0.367E+02 0.201E+02   -.150E+02 -.331E+02 -.188E+02   0.677E+01 -.356E+01 -.120E+01   0.354E-02 -.180E-02 0.582E-03
   -.369E+01 0.134E+02 0.803E+01   0.346E+01 -.139E+02 -.798E+01   0.239E+00 0.493E+00 -.563E-01   0.660E-03 -.352E-03 0.224E-03
   -.117E+02 0.164E+02 0.963E+01   0.113E+02 -.170E+02 -.976E+01   0.414E+00 0.584E+00 0.121E+00   0.125E-02 -.935E-03 0.348E-03
   -.251E+01 0.504E+01 0.639E+01   0.253E+01 -.527E+01 -.637E+01   -.244E-01 0.246E+00 -.151E-01   -.464E-03 -.466E-03 0.101E-03
   -.399E+01 0.767E+01 0.693E+01   0.447E+01 -.805E+01 -.697E+01   -.482E+00 0.381E+00 0.273E-01   -.202E-03 0.297E-03 0.104E-03
   -.379E+01 0.242E+01 0.635E+01   0.402E+01 -.256E+01 -.637E+01   -.232E+00 0.147E+00 0.179E-01   -.146E-03 -.400E-03 0.115E-03
   -.386E+01 -.495E+00 0.605E+01   0.441E+01 0.190E+00 -.607E+01   -.552E+00 0.283E+00 0.101E-01   -.382E-04 0.149E-03 0.105E-03
   0.472E+01 0.151E+01 0.396E+01   -.456E+01 -.151E+01 -.391E+01   -.132E+00 0.483E-02 -.472E-01   -.479E-03 -.989E-03 0.330E-03
   0.496E+01 -.123E+01 0.417E+01   -.477E+01 0.118E+01 -.413E+01   -.183E+00 0.275E-01 -.372E-01   -.111E-02 0.700E-03 0.321E-03
   0.267E+02 0.104E+02 0.140E+02   -.260E+02 -.109E+02 -.147E+02   -.690E+00 0.516E+00 0.719E+00   -.689E-03 -.319E-02 0.881E-03
   0.268E+02 -.986E+01 0.146E+02   -.261E+02 0.103E+02 -.153E+02   -.669E+00 -.504E+00 0.652E+00   -.245E-03 0.272E-02 0.885E-03
   -.155E+02 0.168E+02 0.132E+02   0.141E+02 -.186E+02 -.136E+02   0.146E+01 0.181E+01 0.406E+00   0.858E-04 -.303E-02 0.951E-03
   0.145E+01 0.634E+01 0.843E+01   -.796E+01 -.892E+01 -.824E+01   0.653E+01 0.254E+01 -.161E+00   0.154E-03 0.242E-02 0.101E-02
   -.120E+02 0.105E+02 0.716E+01   0.122E+02 -.119E+02 -.717E+01   -.196E+00 0.135E+01 -.134E-02   0.101E-02 -.933E-03 0.127E-03
   -.289E+02 0.124E+02 0.743E+01   0.342E+02 -.155E+02 -.749E+01   -.530E+01 0.310E+01 0.566E-01   0.877E-03 0.496E-03 0.171E-03
   -.139E+02 -.235E+01 0.647E+01   0.152E+02 0.281E+01 -.649E+01   -.126E+01 -.437E+00 0.196E-01   0.143E-04 -.354E-03 0.124E-03
   -.849E+01 -.841E+01 0.577E+01   0.916E+01 0.886E+01 -.577E+01   -.662E+00 -.438E+00 -.196E-02   -.105E-03 0.642E-03 0.912E-04
   0.129E+01 -.302E+01 0.598E+01   -.103E+01 0.307E+01 -.601E+01   -.269E+00 -.368E-01 0.361E-01   -.156E-03 -.370E-03 0.182E-03
   -.922E+00 -.470E+01 0.580E+01   0.114E+01 0.474E+01 -.578E+01   -.224E+00 -.425E-01 -.175E-01   0.601E-04 0.594E-03 0.149E-03
   0.119E+02 -.670E+01 0.522E+01   -.117E+02 0.662E+01 -.530E+01   -.217E+00 0.941E-01 0.856E-01   -.924E-03 0.389E-03 0.509E-03
   0.384E+01 -.108E+02 0.670E+01   -.361E+01 0.108E+02 -.668E+01   -.231E+00 -.278E-02 -.261E-01   -.365E-03 0.116E-02 0.301E-03
   -.505E+01 -.368E+02 0.299E+02   0.113E+02 0.333E+02 -.291E+02   -.623E+01 0.348E+01 -.815E+00   -.305E-02 0.197E-02 0.424E-03
   0.551E+00 -.206E+02 0.131E+02   -.357E+00 0.197E+02 -.133E+02   -.194E+00 0.915E+00 0.213E+00   -.200E-02 0.526E-03 0.488E-03
   0.185E+02 -.311E+02 0.114E+02   -.266E+02 0.271E+02 -.100E+02   0.805E+01 0.402E+01 -.136E+01   0.309E-02 0.157E-02 0.701E-03
   0.850E+01 -.208E+02 0.111E+02   -.957E+01 0.199E+02 -.112E+02   0.106E+01 0.894E+00 0.131E+00   0.143E-02 0.796E-03 0.818E-03
   -.143E+02 -.923E+01 0.133E+02   0.139E+02 0.893E+01 -.139E+02   0.388E+00 0.306E+00 0.588E+00   0.221E-02 0.820E-03 0.493E-03
   -.321E+01 -.370E+02 0.939E+01   0.286E+01 0.432E+02 -.941E+01   0.363E+00 -.626E+01 0.147E-01   0.679E-03 0.581E-03 0.299E-03
   -.586E+01 -.136E+02 0.703E+01   0.683E+01 0.145E+02 -.705E+01   -.970E+00 -.964E+00 0.123E-01   0.674E-03 0.353E-03 0.107E-03
   -.427E+01 -.736E+01 0.732E+01   0.431E+01 0.804E+01 -.733E+01   -.506E-01 -.696E+00 0.511E-02   0.209E-03 -.116E-03 0.115E-03
   -.334E+01 -.478E+01 0.628E+01   0.374E+01 0.506E+01 -.632E+01   -.380E+00 -.262E+00 0.318E-01   -.121E-03 0.259E-03 0.122E-03
   -.188E+01 -.373E+01 0.630E+01   0.197E+01 0.393E+01 -.629E+01   -.834E-01 -.211E+00 -.119E-01   0.114E-03 -.117E-03 0.124E-03
   0.121E+01 -.366E+01 0.674E+01   -.103E+01 0.373E+01 -.676E+01   -.157E+00 -.607E-01 0.202E-01   -.551E-03 0.369E-03 0.173E-03
   0.117E+01 -.480E+01 0.713E+01   -.113E+01 0.486E+01 -.714E+01   -.243E-01 -.562E-01 0.982E-02   -.159E-03 0.202E-03 0.148E-03
   -.116E+01 -.749E+01 0.992E+01   0.158E+01 0.727E+01 -.101E+02   -.429E+00 0.220E+00 0.124E+00   -.444E-03 0.551E-03 0.331E-03
   0.214E+01 -.599E+01 0.818E+01   -.211E+01 0.589E+01 -.819E+01   -.388E-01 0.112E+00 0.168E-01   -.513E-03 0.831E-03 0.237E-03
   0.242E+01 -.944E+01 0.673E+01   -.276E+01 0.895E+01 -.635E+01   0.314E+00 0.511E+00 -.365E+00   0.114E-03 0.158E-02 0.744E-03
   0.177E+01 -.678E+01 0.758E+01   -.186E+01 0.648E+01 -.762E+01   0.878E-01 0.319E+00 0.371E-01   0.309E-04 0.108E-02 0.259E-03
   0.703E+01 -.172E+02 0.127E+02   -.867E+01 0.179E+02 -.129E+02   0.164E+01 -.600E+00 0.169E+00   0.655E-03 0.719E-03 0.486E-03
   0.106E+01 -.714E+01 0.916E+01   -.117E+01 0.763E+01 -.917E+01   0.122E+00 -.487E+00 -.106E-02   0.404E-03 0.618E-03 0.145E-03
   -.134E+00 0.120E+01 -.628E+03   0.198E+01 -.144E+01 0.610E+03   -.190E+01 0.224E+00 0.180E+02   0.275E-03 0.153E-02 0.206E-01
 -----------------------------------------------------------------------------------------------
   0.115E+01 -.492E+00 -.172E+02   -.130E-12 -.213E-12 -.227E-12   -.115E+01 0.491E+00 0.171E+02   0.993E-03 0.174E-02 0.418E-01
 
 
 POSITION                                       TOTAL-FORCE (eV/Angst)
 -----------------------------------------------------------------------------------
      7.43369     12.74379      7.46412         0.006717      0.003330     -0.004397
      0.00110      1.41657      7.46617         0.010298     -0.010496     -0.001382
      2.48002      0.02082      7.46354        -0.003927     -0.008873      0.002658
      2.48118      1.44314      7.47424        -0.001535     -0.001981     -0.003466
      4.95266      0.02624      7.46518         0.001659      0.008510     -0.002120
      4.95454      1.44755      7.47581         0.000109      0.013507     -0.005074
      0.00118     12.74990      7.46626         0.005532     -0.001756      0.002371
      7.43310      1.42567      7.46504         0.006940     -0.014298      0.001041
      2.48509     12.72283      7.47440        -0.007333     -0.003906     -0.003304
      9.91681      1.39576      7.46320         0.004155     -0.006398      0.001027
      4.95916     12.71923      7.47551        -0.001120     -0.019150     -0.009295
     12.38840      1.39340      7.46558        -0.015251     -0.019863     -0.003916
     13.62302      2.11287      7.46632         0.004122     -0.004327      0.002215
     -1.24686      3.52849      7.47690         0.005727     -0.004963     -0.002658
      1.23823      2.13949      7.47649        -0.006246      0.015658      0.001155
      1.23659      3.56244      7.50073        -0.007502      0.018749      0.002122
      3.71926      2.17123      7.49014        -0.003890     -0.013007     -0.002523
      3.72121      3.59427      7.53474        -0.002427      0.010783      0.005279
      6.19555      2.15006      7.47635         0.009188      0.002067     -0.002703
      6.19690      3.57604      7.50010         0.007457      0.008976      0.000055
      8.67987      2.11476      7.46320        -0.004163      0.014602      0.004416
      8.68366      3.53326      7.47081        -0.003614      0.014673     -0.004049
     11.15132      2.10609      7.46361         0.001363     -0.007902     -0.001450
     11.14957      3.53019      7.46530        -0.006046     -0.005987     -0.002119
     12.38157      4.24149      7.47315         0.006322      0.000563     -0.000442
     -2.48984      5.65971      7.47992        -0.004705     -0.015020      0.000030
     -0.01507      4.24370      7.50211        -0.007249     -0.000973     -0.001085
     -0.04054      5.66114      7.53029         0.017409     -0.014226      0.009783
      2.47526      4.30390      7.54738        -0.000773     -0.007801     -0.009229
      2.43042      5.71384      7.63944        -0.000603     -0.019094     -0.006852
      4.96249      4.32716      7.55392        -0.011319     -0.016659      0.003833
      5.01140      5.74772      7.65387        -0.011550     -0.010347      0.026284
      7.45188      4.24958      7.49337         0.007038     -0.015084     -0.008231
      7.47752      5.66524      7.51294        -0.004333     -0.032538     -0.003481
      9.91699      4.24514      7.46880        -0.000888      0.013913     -0.001749
      9.92299      5.67025      7.47427        -0.002028     -0.002064     -0.005342
     11.14797      6.37818      7.47385         0.003998      0.000838     -0.000866
     -3.72296      7.79400      7.47478         0.001936     -0.019806     -0.002349
     -1.26858      6.37416      7.50545         0.025891      0.001317      0.003953
     -1.27067      7.79428      7.50479        -0.002668     -0.016928      0.004331
      1.18088      6.36760      7.58022        -0.016145      0.013215     -0.001686
      1.17929      7.80063      7.57829        -0.010148     -0.020546     -0.003023
      6.27199      6.37899      7.57662         0.013519      0.012142      0.014591
      6.27488      7.81300      7.58514         0.026750     -0.033349      0.019952
      8.69663      6.38760      7.49131        -0.014574      0.002801     -0.010431
      8.69488      7.80356      7.49155         0.008261     -0.016397     -0.006182
     -4.95048      8.51217      7.47613         0.011359      0.018932     -0.003256
     -4.94376      9.92998      7.47097         0.011042      0.010314     -0.003638
     -2.49421      8.50851      7.48057        -0.008156      0.010014     -0.000621
     -2.48349      9.92902      7.47322        -0.005231      0.001811      0.000331
     -0.04208      8.50654      7.52768         0.005606      0.016806      0.007088
     -0.01502      9.92248      7.50099        -0.005026      0.022629     -0.002888
      2.42889      8.45343      7.63578         0.017010     -0.000806     -0.007306
      2.47669      9.86121      7.54905         0.010874      0.013666     -0.013454
      5.02709      8.44138      7.66871        -0.032285      0.020761      0.030228
      4.96256      9.85346      7.55575        -0.023095      0.032458      0.011507
      7.47912      8.50586      7.51144        -0.002874      0.009788      0.004728
      7.45336      9.90998      7.49108         0.012359      0.002705     -0.001198
     -6.18441     10.62408      7.47258        -0.004249      0.001909     -0.006285
     -6.19101     12.04736      7.46407        -0.014000     -0.014588     -0.000756
     -3.71593     10.64159      7.46582         0.019528      0.017888      0.001845
     -3.71583     12.06418      7.46344         0.003589     -0.007994      0.000548
     -1.24776     10.63795      7.47649         0.019616      0.009674     -0.001499
     -1.24322     12.05681      7.46641         0.016044      0.005242      0.000061
      1.23765     10.60340      7.50147        -0.013171     -0.000637     -0.003515
      1.24000     12.02587      7.47694        -0.009084      0.012021      0.000611
      3.72410     10.57506      7.53639        -0.021325      0.010374      0.010742
      3.72228     11.99828      7.49014        -0.005126      0.013771     -0.004307
      6.20303     10.58599      7.49426         0.001837      0.018832      0.009191
      6.20308     12.01625      7.47321         0.014577     -0.000452     -0.008675
      3.67993      7.08385      8.32210        -0.024170     -0.017023     -0.015173
 -----------------------------------------------------------------------------------
    total drift:                               -0.000994      0.001194     -0.005220


--------------------------------------------------------------------------------------------------------



  FREE ENERGIE OF THE ION-ELECTRON SYSTEM (eV)
  ---------------------------------------------------
  free  energy   TOTEN  =      -653.76222117 eV

  energy  without entropy=     -653.72105124  energy(sigma->0) =     -653.74163620
 
 d Force = 0.6365632E-05[ 0.102E-05, 0.117E-04]  d Energy = 0.1125079E-03-0.106E-03
 d Force = 0.1055748E+00[ 0.106E+00, 0.106E+00]  d Ewald  = 0.1055748E+00-0.291E-09


--------------------------------------------------------------------------------------------------------


    POTLOK:  cpu time    0.4208: real time    0.4225


--------------------------------------------------------------------------------------------------------


 stress matrix after NEB project (eV)
     -1.93539      0.00323     -0.02818
      0.00323     -1.95288     -0.01572
     -0.02818     -0.01572     -3.50993
  FORCES: max atom, RMS     0.048857    0.019458
  FORCE total and by dimension    0.163955    0.033349
  Stress total and by dimension    4.458834    3.509931


--------------------------------------------------------------------------------------------------------


  
 reached required accuracy - stopping structural energy minimisation
     LOOP+:  cpu time   43.9479: real time   44.2632
    4ORBIT:  cpu time    0.0000: real time    0.0000

 total amount of memory used by VASP MPI-rank0   111516. kBytes
=======================================================================

   base      :      30000. kBytes
   nonlr-proj:       9878. kBytes
   fftplans  :      10852. kBytes
   grid      :      30996. kBytes
   one-center:        186. kBytes
   wavefun   :      29604. kBytes
 
  
  
 General timing and accounting informations for this job:
 ========================================================
  
                  Total CPU time used (sec):     1058.510
                            User time (sec):     1048.926
                          System time (sec):        9.584
                         Elapsed time (sec):     1072.882
  
                   Maximum memory used (kb):      486092.
                   Average memory used (kb):           0.
  
                          Minor page faults:      1796046
                          Major page faults:            0
                 Voluntary context switches:        10867
