 running on   48 total cores
 distrk:  each k-point on   48 cores,    1 groups
 distr:  one band on   12 cores,    4 groups
 using from now: INCAR     
 vasp.5.4.4.18Apr17-6-g9f103f2a35 (build Jan 14 2022 15:04:31) complex          
  
 POSCAR found type information on POSCAR  C  N  C  Cr
 POSCAR found :  4 types and      71 ions
 scaLAPACK will be used
 LDA part: xc-table for Pade appr. of Perdew
 POSCAR found type information on POSCAR  C  N  C  Cr
 POSCAR found :  4 types and      71 ions


 VERY BAD NEWS! internal error in subroutine IBZKPT:
 Reciprocal lattice and k-lattice belong to different class of lattices. Often results are still useful...      96


 VERY BAD NEWS! internal error in subroutine IBZKPT:
 Reciprocal lattice and k-lattice belong to different class of lattices. Often results are still useful...      96


 VERY BAD NEWS! internal error in subroutine IBZKPT:
 Reciprocal lattice and k-lattice belong to different class of lattices. Often results are still useful...      96


 VERY BAD NEWS! internal error in subroutine IBZKPT:
 Reciprocal lattice and k-lattice belong to different class of lattices. Often results are still useful...      96


 VERY BAD NEWS! internal error in subroutine IBZKPT:
 Reciprocal lattice and k-lattice belong to different class of lattices. Often results are still useful...      96


 VERY BAD NEWS! internal error in subroutine IBZKPT:
 Reciprocal lattice and k-lattice belong to different class of lattices. Often results are still useful...      96


 VERY BAD NEWS! internal error in subroutine IBZKPT:
 Reciprocal lattice and k-lattice belong to different class of lattices. Often results are still useful...      96


 VERY BAD NEWS! internal error in subroutine IBZKPT:
 Reciprocal lattice and k-lattice belong to different class of lattices. Often results are still useful...      96


 VERY BAD NEWS! internal error in subroutine IBZKPT:
 Reciprocal lattice and k-lattice belong to different class of lattices. Often results are still useful...      96


 VERY BAD NEWS! internal error in subroutine IBZKPT:
 Reciprocal lattice and k-lattice belong to different class of lattices. Often results are still useful...      96


 VERY BAD NEWS! internal error in subroutine IBZKPT:
 Reciprocal lattice and k-lattice belong to different class of lattices. Often results are still useful...      96


 VERY BAD NEWS! internal error in subroutine IBZKPT:
 Reciprocal lattice and k-lattice belong to different class of lattices. Often results are still useful...      96


 VERY BAD NEWS! internal error in subroutine IBZKPT:
 Reciprocal lattice and k-lattice belong to different class of lattices. Often results are still useful...      96


 VERY BAD NEWS! internal error in subroutine IBZKPT:
 Reciprocal lattice and k-lattice belong to different class of lattices. Often results are still useful...      96


 VERY BAD NEWS! internal error in subroutine IBZKPT:
 Reciprocal lattice and k-lattice belong to different class of lattices. Often results are still useful...      96


 VERY BAD NEWS! internal error in subroutine IBZKPT:
 Reciprocal lattice and k-lattice belong to different class of lattices. Often results are still useful...      96


 VERY BAD NEWS! internal error in subroutine IBZKPT:
 Reciprocal lattice and k-lattice belong to different class of lattices. Often results are still useful...      96


 VERY BAD NEWS! internal error in subroutine IBZKPT:
 Reciprocal lattice and k-lattice belong to different class of lattices. Often results are still useful...      96


 VERY BAD NEWS! internal error in subroutine IBZKPT:
 Reciprocal lattice and k-lattice belong to different class of lattices. Often results are still useful...      96


 VERY BAD NEWS! internal error in subroutine IBZKPT:
 Reciprocal lattice and k-lattice belong to different class of lattices. Often results are still useful...      96


 VERY BAD NEWS! internal error in subroutine IBZKPT:
 Reciprocal lattice and k-lattice belong to different class of lattices. Often results are still useful...      96


 VERY BAD NEWS! internal error in subroutine IBZKPT:
 Reciprocal lattice and k-lattice belong to different class of lattices. Often results are still useful...      96


 VERY BAD NEWS! internal error in subroutine IBZKPT:
 Reciprocal lattice and k-lattice belong to different class of lattices. Often results are still useful...      96


 VERY BAD NEWS! internal error in subroutine IBZKPT:
 Reciprocal lattice and k-lattice belong to different class of lattices. Often results are still useful...      96


 VERY BAD NEWS! internal error in subroutine IBZKPT:
 Reciprocal lattice and k-lattice belong to different class of lattices. Often results are still useful...      96


 VERY BAD NEWS! internal error in subroutine IBZKPT:
 Reciprocal lattice and k-lattice belong to different class of lattices. Often results are still useful...      96


 VERY BAD NEWS! internal error in subroutine IBZKPT:
 Reciprocal lattice and k-lattice belong to different class of lattices. Often results are still useful...      96


 VERY BAD NEWS! internal error in subroutine IBZKPT:
 Reciprocal lattice and k-lattice belong to different class of lattices. Often results are still useful...      96


 VERY BAD NEWS! internal error in subroutine IBZKPT:
 Reciprocal lattice and k-lattice belong to different class of lattices. Often results are still useful...      96


 VERY BAD NEWS! internal error in subroutine IBZKPT:
 Reciprocal lattice and k-lattice belong to different class of lattices. Often results are still useful...      96


 VERY BAD NEWS! internal error in subroutine IBZKPT:
 Reciprocal lattice and k-lattice belong to different class of lattices. Often results are still useful...      96


 VERY BAD NEWS! internal error in subroutine IBZKPT:
 Reciprocal lattice and k-lattice belong to different class of lattices. Often results are still useful...      96


 VERY BAD NEWS! internal error in subroutine IBZKPT:
 Reciprocal lattice and k-lattice belong to different class of lattices. Often results are still useful...      96


 VERY BAD NEWS! internal error in subroutine IBZKPT:
 Reciprocal lattice and k-lattice belong to different class of lattices. Often results are still useful...      96


 VERY BAD NEWS! internal error in subroutine IBZKPT:
 Reciprocal lattice and k-lattice belong to different class of lattices. Often results are still useful...      96


 VERY BAD NEWS! internal error in subroutine IBZKPT:
 Reciprocal lattice and k-lattice belong to different class of lattices. Often results are still useful...      96


 VERY BAD NEWS! internal error in subroutine IBZKPT:
 Reciprocal lattice and k-lattice belong to different class of lattices. Often results are still useful...      96


 VERY BAD NEWS! internal error in subroutine IBZKPT:
 Reciprocal lattice and k-lattice belong to different class of lattices. Often results are still useful...      96


 VERY BAD NEWS! internal error in subroutine IBZKPT:
 Reciprocal lattice and k-lattice belong to different class of lattices. Often results are still useful...      96


 VERY BAD NEWS! internal error in subroutine IBZKPT:
 Reciprocal lattice and k-lattice belong to different class of lattices. Often results are still useful...      96


 VERY BAD NEWS! internal error in subroutine IBZKPT:
 Reciprocal lattice and k-lattice belong to different class of lattices. Often results are still useful...      96


 VERY BAD NEWS! internal error in subroutine IBZKPT:
 Reciprocal lattice and k-lattice belong to different class of lattices. Often results are still useful...      96


 VERY BAD NEWS! internal error in subroutine IBZKPT:
 Reciprocal lattice and k-lattice belong to different class of lattices. Often results are still useful...      96


 VERY BAD NEWS! internal error in subroutine IBZKPT:
 Reciprocal lattice and k-lattice belong to different class of lattices. Often results are still useful...      96


 VERY BAD NEWS! internal error in subroutine IBZKPT:
 Reciprocal lattice and k-lattice belong to different class of lattices. Often results are still useful...      96


 VERY BAD NEWS! internal error in subroutine IBZKPT:
 Reciprocal lattice and k-lattice belong to different class of lattices. Often results are still useful...      96


 VERY BAD NEWS! internal error in subroutine IBZKPT:
 Reciprocal lattice and k-lattice belong to different class of lattices. Often results are still useful...      96


 VERY BAD NEWS! internal error in subroutine IBZKPT:
 Reciprocal lattice and k-lattice belong to different class of lattices. Often results are still useful...      96
 POSCAR, INCAR and KPOINTS ok, starting setup
 FFT: planning ...
 WAVECAR not read
 entering main loop
       N       E                     dE             d eps       ncg     rms          rms(c)
DAV:   1     0.247613476074E+04    0.24761E+04   -0.10791E+05  3360   0.107E+03
DAV:   2    -0.229275502110E+03   -0.27054E+04   -0.25862E+04  4232   0.280E+02
DAV:   3    -0.687161340318E+03   -0.45789E+03   -0.45506E+03  3544   0.122E+02
DAV:   4    -0.703929767523E+03   -0.16768E+02   -0.16626E+02  3568   0.286E+01
DAV:   5    -0.704477523123E+03   -0.54776E+00   -0.54583E+00  4064   0.435E+00    0.469E+01
RMM:   6    -0.730089437627E+03   -0.25612E+02   -0.51355E+02  4095   0.390E+01    0.828E+01
RMM:   7    -0.662489474365E+03    0.67600E+02   -0.60539E+01  3061   0.140E+01    0.316E+01
RMM:   8    -0.662347203485E+03    0.14227E+00   -0.22705E+01  3105   0.724E+00    0.282E+01
RMM:   9    -0.647443049850E+03    0.14904E+02   -0.20626E+01  2975   0.851E+00    0.111E+01
RMM:  10    -0.648053860326E+03   -0.61081E+00   -0.28240E+00  3002   0.301E+00    0.140E+01
RMM:  11    -0.646908485708E+03    0.11454E+01   -0.40198E-01  3106   0.104E+00    0.726E+00
RMM:  12    -0.646964547240E+03   -0.56062E-01   -0.18484E-01  2944   0.982E-01    0.696E+00
RMM:  13    -0.646960787003E+03    0.37602E-02   -0.21911E-02  2994   0.386E-01    0.714E+00
RMM:  14    -0.646798545817E+03    0.16224E+00   -0.36920E-02  2966   0.391E-01    0.669E+00
RMM:  15    -0.646775495039E+03    0.23051E-01   -0.33834E-02  2946   0.335E-01    0.749E+00
RMM:  16    -0.646716472405E+03    0.59023E-01   -0.75349E-02  3074   0.394E-01    0.523E+00
RMM:  17    -0.646798121637E+03   -0.81649E-01   -0.21803E-02  2951   0.352E-01    0.462E+00
RMM:  18    -0.646841237905E+03   -0.43116E-01   -0.17728E-02  2987   0.210E-01    0.422E+00
RMM:  19    -0.646891237635E+03   -0.50000E-01   -0.31954E-02  2951   0.330E-01    0.335E+00
RMM:  20    -0.646907144232E+03   -0.15907E-01   -0.57393E-03  3090   0.127E-01    0.324E+00
RMM:  21    -0.646923165677E+03   -0.16021E-01   -0.39064E-03  2961   0.955E-02    0.329E+00
RMM:  22    -0.646922165250E+03    0.10004E-02   -0.18659E-03  2886   0.594E-02    0.347E+00
RMM:  23    -0.646944516794E+03   -0.22352E-01   -0.71776E-03  2948   0.166E-01    0.317E+00
RMM:  24    -0.646939980641E+03    0.45362E-02   -0.13963E-03  2963   0.845E-02    0.323E+00
RMM:  25    -0.646966326174E+03   -0.26346E-01   -0.91643E-03  2954   0.156E-01    0.379E+00
RMM:  26    -0.646988013568E+03   -0.21687E-01   -0.22227E-02  2975   0.233E-01    0.440E+00
RMM:  27    -0.647002848176E+03   -0.14835E-01   -0.19958E-02  3004   0.190E-01    0.451E+00
RMM:  28    -0.647007482038E+03   -0.46339E-02   -0.35270E-03  2997   0.862E-02    0.438E+00
RMM:  29    -0.647015270924E+03   -0.77889E-02   -0.12983E-03  3314   0.330E-02    0.436E+00
RMM:  30    -0.647015376821E+03   -0.10590E-03   -0.15474E-04  2139   0.120E-02    0.436E+00
RMM:  31    -0.647076544451E+03   -0.61168E-01   -0.13588E-02  2965   0.180E-01    0.433E+00
RMM:  32    -0.647094724000E+03   -0.18180E-01   -0.11746E-02  3011   0.145E-01    0.432E+00
RMM:  33    -0.647096828379E+03   -0.21044E-02   -0.15401E-03  2920   0.477E-02    0.427E+00
RMM:  34    -0.647085840819E+03    0.10988E-01   -0.10965E-03  2877   0.491E-02    0.434E+00
RMM:  35    -0.647167732724E+03   -0.81892E-01   -0.10133E-02  2970   0.184E-01    0.374E+00
RMM:  36    -0.647232943872E+03   -0.65211E-01   -0.12108E-02  3001   0.177E-01    0.324E+00
RMM:  37    -0.647316881453E+03   -0.83938E-01   -0.16334E-02  2987   0.186E-01    0.278E+00
RMM:  38    -0.647332447063E+03   -0.15566E-01   -0.50511E-03  3008   0.126E-01    0.271E+00
RMM:  39    -0.647347528429E+03   -0.15081E-01   -0.38608E-03  3025   0.895E-02    0.265E+00
RMM:  40    -0.647349070097E+03   -0.15417E-02   -0.24261E-03  3052   0.679E-02    0.272E+00
RMM:  41    -0.647346714611E+03    0.23555E-02   -0.14921E-03  3022   0.529E-02    0.287E+00
RMM:  42    -0.647348152616E+03   -0.14380E-02   -0.18899E-04  2316   0.201E-02    0.279E+00
RMM:  43    -0.647348115753E+03    0.36863E-04   -0.57184E-05  1872   0.646E-03    0.281E+00
RMM:  44    -0.647354007721E+03   -0.58920E-02   -0.19450E-04  2449   0.281E-02    0.271E+00
RMM:  45    -0.647354178198E+03   -0.17048E-03   -0.26680E-05  1911   0.772E-03    0.272E+00
RMM:  46    -0.647356074995E+03   -0.18968E-02   -0.15761E-04  2507   0.247E-02    0.274E+00
RMM:  47    -0.647351631204E+03    0.44438E-02   -0.30836E-04  2683   0.291E-02    0.285E+00
RMM:  48    -0.647350759611E+03    0.87159E-03   -0.15245E-04  2404   0.223E-02    0.297E+00
RMM:  49    -0.647361233263E+03   -0.10474E-01   -0.20416E-03  2966   0.787E-02    0.238E+00
RMM:  50    -0.647370031244E+03   -0.87980E-02   -0.88866E-03  2995   0.152E-01
   1 F= -.65376952E+03 E0= -.65374829E+03  d E =-.653770E+03  mag=     1.5874
 curvature:   0.00 expect dE= 0.000E+00 dE for cont linesearch  0.000E+00
 trial: gam= 0.00000 g(F)=  0.656E-02 g(S)=  0.000E+00 ort = 0.000E+00 (trialstep = 0.100E+01)
 search vector abs. value=  0.656E-02
 bond charge predicted
       N       E                     dE             d eps       ncg     rms          rms(c)
DAV:   1    -0.647364681732E+03   -0.34485E-02   -0.57717E-01  3480   0.240E+00    0.200E+00
RMM:   2    -0.647427947961E+03   -0.63266E-01   -0.23877E-01  3080   0.757E-01    0.301E+00
RMM:   3    -0.647362672279E+03    0.65276E-01   -0.11994E-01  3106   0.512E-01    0.109E+00
RMM:   4    -0.647358109398E+03    0.45629E-02   -0.79379E-03  3218   0.161E-01    0.572E-01
RMM:   5    -0.647358538552E+03   -0.42915E-03   -0.43025E-03  3000   0.993E-02    0.146E-01
RMM:   6    -0.647359077847E+03   -0.53930E-03   -0.72422E-04  2637   0.315E-02    0.127E-01
RMM:   7    -0.647359429774E+03   -0.35193E-03   -0.14400E-04  2123   0.127E-02    0.108E-01
RMM:   8    -0.647360386064E+03   -0.95629E-03   -0.13277E-04  2226   0.165E-02    0.643E-02
RMM:   9    -0.647360374862E+03    0.11202E-04   -0.28074E-05  1907   0.113E-02    0.506E-02
RMM:  10    -0.647360621685E+03   -0.24682E-03   -0.13513E-05  1748   0.564E-03    0.922E-03
RMM:  11    -0.647360721601E+03   -0.99916E-04   -0.49108E-06  1224   0.268E-03    0.490E-03
RMM:  12    -0.647360829207E+03   -0.10761E-03   -0.71259E-06  1272   0.315E-03    0.663E-03
RMM:  13    -0.647360845997E+03   -0.16791E-04   -0.18098E-06  1072   0.216E-03    0.304E-03
RMM:  14    -0.647360858181E+03   -0.12183E-04   -0.17481E-06  1065   0.203E-03    0.110E-03
RMM:  15    -0.647360864046E+03   -0.58653E-05   -0.97925E-07   921   0.178E-03
   2 F= -.65375995E+03 E0= -.65373898E+03  d E =0.956749E-02  mag=     1.6077
 trial-energy change:    0.009567  1 .order   -0.000577   -0.006561    0.005406
 step:   0.5483(harm=  0.5483)  dis= 0.00234  next Energy=  -653.771316 (dE=-0.180E-02)
 bond charge predicted
       N       E                     dE             d eps       ncg     rms          rms(c)
DAV:   1    -0.647362059345E+03   -0.12012E-02   -0.11904E-01  3560   0.109E+00    0.145E-01
RMM:   2    -0.647363327386E+03   -0.12680E-02   -0.11433E-02  3019   0.197E-01    0.333E-01
RMM:   3    -0.647362224669E+03    0.11027E-02   -0.13528E-03  3165   0.637E-02    0.639E-02
RMM:   4    -0.647362151735E+03    0.72934E-04   -0.14575E-04  2440   0.222E-02    0.445E-02
RMM:   5    -0.647362080305E+03    0.71430E-04   -0.58157E-05  2059   0.155E-02    0.193E-02
RMM:   6    -0.647362189790E+03   -0.10949E-03   -0.15827E-05  1851   0.878E-03    0.601E-03
RMM:   7    -0.647362328933E+03   -0.13914E-03   -0.54340E-06  1765   0.461E-03    0.310E-03
RMM:   8    -0.647362420726E+03   -0.91793E-04   -0.29130E-06  1390   0.293E-03    0.154E-03
RMM:   9    -0.647362474903E+03   -0.54178E-04   -0.14223E-06  1062   0.212E-03    0.897E-04
RMM:  10    -0.647362498397E+03   -0.23494E-04   -0.76923E-07   856   0.176E-03    0.505E-04
RMM:  11    -0.647362511751E+03   -0.13354E-04   -0.76698E-07   868   0.170E-03    0.375E-04
RMM:  12    -0.647362512862E+03   -0.11114E-05   -0.17156E-07   634   0.148E-03
   3 F= -.65376178E+03 E0= -.65374098E+03  d E =0.773427E-02  mag=     1.5877
 curvature:  -0.27 expect dE=-0.919E-03 dE for cont linesearch -0.283E-03
 ZBRENT: interpolating
 opt :   0.3926  next Energy=  -653.761986 (dE= 0.753E-02)
 bond charge predicted
       N       E                     dE             d eps       ncg     rms          rms(c)
DAV:   1    -0.647362730251E+03   -0.21850E-03   -0.14141E-02  3512   0.376E-01    0.502E-02
RMM:   2    -0.647362853507E+03   -0.12326E-03   -0.13763E-03  3011   0.682E-02    0.117E-01
RMM:   3    -0.647362723150E+03    0.13036E-03   -0.15933E-04  2087   0.222E-02    0.218E-02
RMM:   4    -0.647362714785E+03    0.83653E-05   -0.18536E-05  1875   0.929E-03
   4 F= -.65376205E+03 E0= -.65374132E+03  d E =0.747014E-02  mag=     1.5837
 curvature:  -0.20 expect dE=-0.391E-03 dE for cont linesearch -0.826E-04
 ZBRENT: interpolating
 opt :   0.1729  next Energy=  -653.762267 (dE= 0.725E-02)
 bond charge predicted
       N       E                     dE             d eps       ncg     rms          rms(c)
DAV:   1    -0.647362721400E+03    0.17499E-05   -0.27879E-02  3496   0.529E-01    0.690E-02
RMM:   2    -0.647362952691E+03   -0.23129E-03   -0.26230E-03  3017   0.939E-02    0.157E-01
RMM:   3    -0.647362711288E+03    0.24140E-03   -0.29309E-04  2348   0.302E-02    0.326E-02
RMM:   4    -0.647362688343E+03    0.22945E-04   -0.35618E-05  1958   0.124E-02    0.223E-02
RMM:   5    -0.647362689364E+03   -0.10202E-05   -0.16847E-05  1838   0.899E-03
   5 F= -.65376211E+03 E0= -.65374150E+03  d E =0.740905E-02  mag=     1.5747
 curvature:  -0.52 expect dE=-0.445E-03 dE for cont linesearch -0.697E-05
 ZBRENT: interpolating
 opt :   0.1334  next Energy=  -653.762116 (dE= 0.740E-02)
 bond charge predicted
       N       E                     dE             d eps       ncg     rms          rms(c)
DAV:   1    -0.647362739815E+03   -0.51472E-04   -0.89264E-04  3416   0.947E-02    0.134E-02
RMM:   2    -0.647362785901E+03   -0.46085E-04   -0.84429E-05  1983   0.177E-02    0.294E-02
RMM:   3    -0.647362786444E+03   -0.54365E-06   -0.11074E-05  1786   0.798E-03
   6 F= -.65376222E+03 E0= -.65374164E+03  d E =0.729654E-02  mag=     1.5727
 curvature:  -0.51 expect dE=-0.399E-03 dE for cont linesearch -0.522E-07
 trial: gam= 0.12254 g(F)=  0.778E-03 g(S)=  0.000E+00 ort =-0.259E-04 (trialstep = 0.827E+00)
 search vector abs. value=  0.870E-03
 reached required accuracy - stopping structural energy minimisation
