 vasp.5.4.4.18Apr17-6-g9f103f2a35 (build Jan 14 2022 15:04:31) complex          
  
 executed on             LinuxIFC date 2023.01.27  22:53:26
 running on   48 total cores
 distrk:  each k-point on   48 cores,    1 groups
 distr:  one band on NCORES_PER_BAND=  12 cores,    4 groups


--------------------------------------------------------------------------------------------------------


 INCAR:
 POTCAR:    PAW_PBE C 08Apr2002                   
 POTCAR:    PAW_PBE N 08Apr2002                   
 POTCAR:    PAW_PBE C 08Apr2002                   
 POTCAR:    PAW_PBE Cr_pv 02Aug2007               
 POTCAR:    PAW_PBE C 08Apr2002                   
 POTCAR:    PAW_PBE O 08Apr2002                   
 POTCAR:    PAW_PBE C 08Apr2002                   
   SHA256 =  253f7b50bb8d59471dbedb8285d89021f4a42ed1a2c5d38a03a736e69125dd95 C/
   COPYR  = (c) Copyright 08Apr2002 Georg Kresse                                
   COPYR  = This file is part of the software VASP. Any use, copying, and all ot
   COPYR  = If you do not have a valid VASP license, you may not use, copy or di
   VRHFIN =C: s2p2                                                              
   LEXCH  = PE                                                                  
   EATOM  =   147.1560 eV,   10.8157 Ry                                         
                                                                                
   TITEL  = PAW_PBE C 08Apr2002                                                 
   LULTRA =        F    use ultrasoft PP ?                                      
   IUNSCR =        1    unscreen: 0-lin 1-nonlin 2-no                           
   RPACOR =    1.200    partial core radius                                     
   POMASS =   12.011; ZVAL   =    4.000    mass and valenz                      
   RCORE  =    1.500    outmost cutoff radius                                   
   RWIGS  =    1.630; RWIGS  =    0.863    wigner-seitz radius (au A)           
   ENMAX  =  400.000; ENMIN  =  300.000 eV                                      
   ICORE  =        2    local potential                                         
   LCOR   =        T    correct aug charges                                     
   LPAW   =        T    paw PP                                                  
   EAUG   =  644.873                                                            
   DEXC   =    0.000                                                            
   RMAX   =    1.529    core radius for proj-oper                               
   RAUG   =    1.300    factor for augmentation sphere                          
   RDEP   =    1.501    radius for radial grids                                 
   RDEPT  =    1.300    core radius for aug-charge                              
                                                                                
   Atomic configuration                                                         
    4 entries                                                                   
     n  l   j            E        occ.                                          
     1  0  0.50      -273.3789   2.0000                                         
     2  0  0.50       -13.7508   2.0000                                         
     2  1  0.50        -5.2854   2.0000                                         
     3  2  1.50        -5.4423   0.0000                                         
   Description                                                                  
     l       E           TYP  RCUT    TYP  RCUT                                 
     0    -13.7508458     23  1.200                                             
     0     -8.2022199     23  1.200                                             
     1     -5.2854383     23  1.500                                             
     1     34.0145650     23  1.500                                             
     2     -5.4423304      7  1.500                                             
  local pseudopotential read in
  partial core-charges read in
  partial kinetic energy density read in
  atomic valenz-charges read in
  non local Contribution for L=           0  read in
    real space projection operators read in
  non local Contribution for L=           0  read in
    real space projection operators read in
  non local Contribution for L=           1  read in
    real space projection operators read in
  non local Contribution for L=           1  read in
    real space projection operators read in
    PAW grid and wavefunctions read in
 
   number of l-projection  operators is LMAX  =           4
   number of lm-projection operators is LMMAX =           8
 
 POTCAR:    PAW_PBE N 08Apr2002                   
   SHA256 =  e053789ff3a61a86a1b75d8a110fcc91f86041011e7b0817c7c99e4e8a6349d7 N/
   COPYR  = (c) Copyright 08Apr2002 Georg Kresse                                
   COPYR  = This file is part of the software VASP. Any use, copying, and all ot
   COPYR  = If you do not have a valid VASP license, you may not use, copy or di
   VRHFIN =N: s2p3                                                              
   LEXCH  = PE                                                                  
   EATOM  =   264.5486 eV,   19.4438 Ry                                         
                                                                                
   TITEL  = PAW_PBE N 08Apr2002                                                 
   LULTRA =        F    use ultrasoft PP ?                                      
   IUNSCR =        1    unscreen: 0-lin 1-nonlin 2-no                           
   RPACOR =    1.200    partial core radius                                     
   POMASS =   14.001; ZVAL   =    5.000    mass and valenz                      
   RCORE  =    1.500    outmost cutoff radius                                   
   RWIGS  =    1.400; RWIGS  =    0.741    wigner-seitz radius (au A)           
   ENMAX  =  400.000; ENMIN  =  300.000 eV                                      
   ICORE  =        2    local potential                                         
   LCOR   =        T    correct aug charges                                     
   LPAW   =        T    paw PP                                                  
   EAUG   =  627.112                                                            
   DEXC   =    0.000                                                            
   RMAX   =    1.529    core radius for proj-oper                               
   RAUG   =    1.300    factor for augmentation sphere                          
   RDEP   =    1.514    radius for radial grids                                 
   RDEPT  =    1.338    core radius for aug-charge                              
                                                                                
   Atomic configuration                                                         
    4 entries                                                                   
     n  l   j            E        occ.                                          
     1  0  0.50      -384.7179   2.0000                                         
     2  0  0.50       -18.5828   2.0000                                         
     2  1  0.50        -7.0898   3.0000                                         
     3  2  1.50        -6.8029   0.0000                                         
   Description                                                                  
     l       E           TYP  RCUT    TYP  RCUT                                 
     0    -18.5828119     23  1.200                                             
     0    -13.5018863     23  1.200                                             
     1     -7.0897853     23  1.500                                             
     1      9.5240782     23  1.500                                             
     2     -6.8029130      7  1.500                                             
  local pseudopotential read in
  partial core-charges read in
  partial kinetic energy density read in
  atomic valenz-charges read in
  non local Contribution for L=           0  read in
    real space projection operators read in
  non local Contribution for L=           0  read in
    real space projection operators read in
  non local Contribution for L=           1  read in
    real space projection operators read in
  non local Contribution for L=           1  read in
    real space projection operators read in
    PAW grid and wavefunctions read in
 
   number of l-projection  operators is LMAX  =           4
   number of lm-projection operators is LMMAX =           8
 
 POTCAR:    PAW_PBE C 08Apr2002                   
   SHA256 =  253f7b50bb8d59471dbedb8285d89021f4a42ed1a2c5d38a03a736e69125dd95 C/
   COPYR  = (c) Copyright 08Apr2002 Georg Kresse                                
   COPYR  = This file is part of the software VASP. Any use, copying, and all ot
   COPYR  = If you do not have a valid VASP license, you may not use, copy or di
   VRHFIN =C: s2p2                                                              
   LEXCH  = PE                                                                  
   EATOM  =   147.1560 eV,   10.8157 Ry                                         
                                                                                
   TITEL  = PAW_PBE C 08Apr2002                                                 
   LULTRA =        F    use ultrasoft PP ?                                      
   IUNSCR =        1    unscreen: 0-lin 1-nonlin 2-no                           
   RPACOR =    1.200    partial core radius                                     
   POMASS =   12.011; ZVAL   =    4.000    mass and valenz                      
   RCORE  =    1.500    outmost cutoff radius                                   
   RWIGS  =    1.630; RWIGS  =    0.863    wigner-seitz radius (au A)           
   ENMAX  =  400.000; ENMIN  =  300.000 eV                                      
   ICORE  =        2    local potential                                         
   LCOR   =        T    correct aug charges                                     
   LPAW   =        T    paw PP                                                  
   EAUG   =  644.873                                                            
   DEXC   =    0.000                                                            
   RMAX   =    1.529    core radius for proj-oper                               
   RAUG   =    1.300    factor for augmentation sphere                          
   RDEP   =    1.501    radius for radial grids                                 
   RDEPT  =    1.300    core radius for aug-charge                              
                                                                                
   Atomic configuration                                                         
    4 entries                                                                   
     n  l   j            E        occ.                                          
     1  0  0.50      -273.3789   2.0000                                         
     2  0  0.50       -13.7508   2.0000                                         
     2  1  0.50        -5.2854   2.0000                                         
     3  2  1.50        -5.4423   0.0000                                         
   Description                                                                  
     l       E           TYP  RCUT    TYP  RCUT                                 
     0    -13.7508458     23  1.200                                             
     0     -8.2022199     23  1.200                                             
     1     -5.2854383     23  1.500                                             
     1     34.0145650     23  1.500                                             
     2     -5.4423304      7  1.500                                             
  local pseudopotential read in
  partial core-charges read in
  partial kinetic energy density read in
  atomic valenz-charges read in
  non local Contribution for L=           0  read in
    real space projection operators read in
  non local Contribution for L=           0  read in
    real space projection operators read in
  non local Contribution for L=           1  read in
    real space projection operators read in
  non local Contribution for L=           1  read in
    real space projection operators read in
    PAW grid and wavefunctions read in
 
   number of l-projection  operators is LMAX  =           4
   number of lm-projection operators is LMMAX =           8
 
 POTCAR:    PAW_PBE Cr_pv 02Aug2007               
   SHA256 =  c9a7df34d3cdbacf1090e328ef39c0b420964e11c23f63548d1ac9dd218cdba0 Cr
   COPYR  = (c) Copyright 02Aug2007 Georg Kresse                                
   COPYR  = This file is part of the software VASP. Any use, copying, and all ot
   COPYR  = If you do not have a valid VASP license, you may not use, copy or di
   VRHFIN =Cr : p6d5s1                                                          
   LEXCH  = PE                                                                  
   EATOM  =  1647.9177 eV,  121.1185 Ry                                         
                                                                                
   TITEL  = PAW_PBE Cr_pv 02Aug2007                                             
   LULTRA =        F    use ultrasoft PP ?                                      
   IUNSCR =        1    unscreen: 0-lin 1-nonlin 2-no                           
   RPACOR =    2.080    partial core radius                                     
   POMASS =   51.996; ZVAL   =   12.000    mass and valenz                      
   RCORE  =    2.300    outmost cutoff radius                                   
   RWIGS  =    2.500; RWIGS  =    1.323    wigner-seitz radius (au A)           
   ENMAX  =  265.681; ENMIN  =  199.261 eV                                      
   ICORE  =        3    local potential                                         
   LCOR   =        T    correct aug charges                                     
   LPAW   =        T    paw PP                                                  
   EAUG   =  519.424                                                            
   DEXC   =    0.000                                                            
   RMAX   =    2.356    core radius for proj-oper                               
   RAUG   =    1.300    factor for augmentation sphere                          
   RDEP   =    2.447    radius for radial grids                                 
   RDEPT  =    1.882    core radius for aug-charge                              
                                                                                
   Atomic configuration                                                         
    8 entries                                                                   
     n  l   j            E        occ.                                          
     1  0  0.50     -5880.4963   2.0000                                         
     2  0  0.50      -667.0865   2.0000                                         
     2  1  1.50      -560.6250   6.0000                                         
     3  0  0.50       -73.9860   2.0000                                         
     3  1  1.50       -45.4378   6.0000                                         
     3  2  2.50        -2.9137   5.0000                                         
     4  0  0.50        -4.0071   1.0000                                         
     4  3  2.50        -1.3606   0.0000                                         
   Description                                                                  
     l       E           TYP  RCUT    TYP  RCUT                                 
     1    -45.4377911     23  2.000                                             
     1      1.3605826     23  2.000                                             
     2     -2.9136672     23  2.300                                             
     2     -4.2742498     23  2.300                                             
     0     -4.0071320     23  2.300                                             
     0      9.4498803     23  2.300                                             
     3      2.7211652     23  2.300                                             
  local pseudopotential read in
  partial core-charges read in
  partial kinetic energy density read in
  atomic valenz-charges read in
  non local Contribution for L=           1  read in
    real space projection operators read in
  non local Contribution for L=           1  read in
    real space projection operators read in
  non local Contribution for L=           2  read in
    real space projection operators read in
  non local Contribution for L=           2  read in
    real space projection operators read in
  non local Contribution for L=           0  read in
    real space projection operators read in
  non local Contribution for L=           0  read in
    real space projection operators read in
    PAW grid and wavefunctions read in
 
   number of l-projection  operators is LMAX  =           6
   number of lm-projection operators is LMMAX =          18
 
 POTCAR:    PAW_PBE C 08Apr2002                   
   SHA256 =  253f7b50bb8d59471dbedb8285d89021f4a42ed1a2c5d38a03a736e69125dd95 C/
   COPYR  = (c) Copyright 08Apr2002 Georg Kresse                                
   COPYR  = This file is part of the software VASP. Any use, copying, and all ot
   COPYR  = If you do not have a valid VASP license, you may not use, copy or di
   VRHFIN =C: s2p2                                                              
   LEXCH  = PE                                                                  
   EATOM  =   147.1560 eV,   10.8157 Ry                                         
                                                                                
   TITEL  = PAW_PBE C 08Apr2002                                                 
   LULTRA =        F    use ultrasoft PP ?                                      
   IUNSCR =        1    unscreen: 0-lin 1-nonlin 2-no                           
   RPACOR =    1.200    partial core radius                                     
   POMASS =   12.011; ZVAL   =    4.000    mass and valenz                      
   RCORE  =    1.500    outmost cutoff radius                                   
   RWIGS  =    1.630; RWIGS  =    0.863    wigner-seitz radius (au A)           
   ENMAX  =  400.000; ENMIN  =  300.000 eV                                      
   ICORE  =        2    local potential                                         
   LCOR   =        T    correct aug charges                                     
   LPAW   =        T    paw PP                                                  
   EAUG   =  644.873                                                            
   DEXC   =    0.000                                                            
   RMAX   =    1.529    core radius for proj-oper                               
   RAUG   =    1.300    factor for augmentation sphere                          
   RDEP   =    1.501    radius for radial grids                                 
   RDEPT  =    1.300    core radius for aug-charge                              
                                                                                
   Atomic configuration                                                         
    4 entries                                                                   
     n  l   j            E        occ.                                          
     1  0  0.50      -273.3789   2.0000                                         
     2  0  0.50       -13.7508   2.0000                                         
     2  1  0.50        -5.2854   2.0000                                         
     3  2  1.50        -5.4423   0.0000                                         
   Description                                                                  
     l       E           TYP  RCUT    TYP  RCUT                                 
     0    -13.7508458     23  1.200                                             
     0     -8.2022199     23  1.200                                             
     1     -5.2854383     23  1.500                                             
     1     34.0145650     23  1.500                                             
     2     -5.4423304      7  1.500                                             
  local pseudopotential read in
  partial core-charges read in
  partial kinetic energy density read in
  atomic valenz-charges read in
  non local Contribution for L=           0  read in
    real space projection operators read in
  non local Contribution for L=           0  read in
    real space projection operators read in
  non local Contribution for L=           1  read in
    real space projection operators read in
  non local Contribution for L=           1  read in
    real space projection operators read in
    PAW grid and wavefunctions read in
 
   number of l-projection  operators is LMAX  =           4
   number of lm-projection operators is LMMAX =           8
 
 POTCAR:    PAW_PBE O 08Apr2002                   
   SHA256 =  818f92134a0a090dccd8ba1447fa70422a3b330e708bb4f08108d8ae51209ddf O/
   COPYR  = (c) Copyright 08Apr2002 Georg Kresse                                
   COPYR  = This file is part of the software VASP. Any use, copying, and all ot
   COPYR  = If you do not have a valid VASP license, you may not use, copy or di
   VRHFIN =O: s2p4                                                              
   LEXCH  = PE                                                                  
   EATOM  =   432.3788 eV,   31.7789 Ry                                         
                                                                                
   TITEL  = PAW_PBE O 08Apr2002                                                 
   LULTRA =        F    use ultrasoft PP ?                                      
   IUNSCR =        1    unscreen: 0-lin 1-nonlin 2-no                           
   RPACOR =    1.200    partial core radius                                     
   POMASS =   16.000; ZVAL   =    6.000    mass and valenz                      
   RCORE  =    1.520    outmost cutoff radius                                   
   RWIGS  =    1.550; RWIGS  =    0.820    wigner-seitz radius (au A)           
   ENMAX  =  400.000; ENMIN  =  300.000 eV                                      
   ICORE  =        2    local potential                                         
   LCOR   =        T    correct aug charges                                     
   LPAW   =        T    paw PP                                                  
   EAUG   =  605.392                                                            
   DEXC   =    0.000                                                            
   RMAX   =    1.553    core radius for proj-oper                               
   RAUG   =    1.300    factor for augmentation sphere                          
   RDEP   =    1.550    radius for radial grids                                 
   RDEPT  =    1.329    core radius for aug-charge                              
                                                                                
   Atomic configuration                                                         
    4 entries                                                                   
     n  l   j            E        occ.                                          
     1  0  0.50      -514.6923   2.0000                                         
     2  0  0.50       -23.9615   2.0000                                         
     2  1  0.50        -9.0305   4.0000                                         
     3  2  1.50        -9.5241   0.0000                                         
   Description                                                                  
     l       E           TYP  RCUT    TYP  RCUT                                 
     0    -23.9615318     23  1.200                                             
     0     -9.5240782     23  1.200                                             
     1     -9.0304911     23  1.520                                             
     1      8.1634956     23  1.520                                             
     2     -9.5240782      7  1.500                                             
  local pseudopotential read in
  partial core-charges read in
  partial kinetic energy density read in
  kinetic energy density of atom read in
  atomic valenz-charges read in
  non local Contribution for L=           0  read in
    real space projection operators read in
  non local Contribution for L=           0  read in
    real space projection operators read in
  non local Contribution for L=           1  read in
    real space projection operators read in
  non local Contribution for L=           1  read in
    real space projection operators read in
    PAW grid and wavefunctions read in
 
   number of l-projection  operators is LMAX  =           4
   number of lm-projection operators is LMMAX =           8
 

 ----------------------------------------------------------------------------- 
|                                                                             |
|  ADVICE TO THIS USER RUNNING 'VASP/VAMP'   (HEAR YOUR MASTER'S VOICE ...):  |
|                                                                             |
|      You have a (more or less) 'large supercell' and for larger cells       |
|      it might be more efficient to use real space projection opertators     |
|      So try LREAL= Auto  in the INCAR   file.                               |
|      Mind:          For very  accurate calculation you might also keep the  |
|      reciprocal projection scheme          (i.e. LREAL=.FALSE.)             |
|                                                                             |
 ----------------------------------------------------------------------------- 

  PAW_PBE C 08Apr2002                   :
 energy of atom  1       EATOM= -147.1560
 kinetic energy error for atom=    0.0132 (will be added to EATOM!!)
  PAW_PBE N 08Apr2002                   :
 energy of atom  2       EATOM= -264.5486
 kinetic energy error for atom=    0.0298 (will be added to EATOM!!)
  PAW_PBE C 08Apr2002                   :
 energy of atom  3       EATOM= -147.1560
 kinetic energy error for atom=    0.0132 (will be added to EATOM!!)
  PAW_PBE Cr_pv 02Aug2007               :
 energy of atom  4       EATOM=-1647.9177
 kinetic energy error for atom=    0.0134 (will be added to EATOM!!)
  PAW_PBE C 08Apr2002                   :
 energy of atom  5       EATOM= -147.1560
 kinetic energy error for atom=    0.0132 (will be added to EATOM!!)
  PAW_PBE O 08Apr2002                   :
 energy of atom  6       EATOM= -432.3788
 kinetic energy error for atom=    0.0458 (will be added to EATOM!!)
 
 
 POSCAR: POSCAR-clean                            
  positions in direct lattice
  velocities in cartesian coordinates
 exchange correlation table for  LEXCH =        8
   RHO(1)=    0.500       N(1)  =     2000
   RHO(2)=  100.500       N(2)  =     4000

 VTST: version 3.2, (02/03/18)

 CHAIN: initializing optimizer
 
 OPT: Using VASP Dynamics algorithm
 CHAIN: Read ICHAIN            0
 
 POSCAR: POSCAR-clean                            
  positions in direct lattice
  velocities in cartesian coordinates
 


--------------------------------------------------------------------------------------------------------


 ion  position               nearest neighbor table
   1  0.001  0.001  0.490-   2 1.42  60 1.43  70 1.43
   2  0.057  0.113  0.492-   1 1.42  13 1.43  15 1.43
   3  0.168  0.002  0.491-   4 1.42  62 1.43  60 1.43
   4  0.224  0.113  0.494-   3 1.42  15 1.43  17 1.43
   5  0.335  0.001  0.491-   6 1.42  64 1.42  62 1.43
   6  0.390  0.113  0.492-   5 1.42  19 1.42  17 1.43
   7  0.500  0.998  0.492-  64 1.42   8 1.43  66 1.43
   8  0.556  0.110  0.492-  21 1.42   7 1.43  19 1.43
   9  0.666  0.998  0.493-  66 1.42  10 1.43  68 1.43
  10  0.722  0.109  0.492-  21 1.42   9 1.43  23 1.43
  11  0.833  0.999  0.490-  12 1.42  70 1.43  68 1.43
  12  0.889  0.110  0.491-  11 1.42  23 1.42  13 1.43
  13  0.000  0.167  0.492-  14 1.42   2 1.43  12 1.43
  14  0.056  0.278  0.494-  13 1.42  25 1.43  27 1.43
  15  0.169  0.169  0.495-   4 1.43  16 1.43   2 1.43
  16  0.225  0.281  0.499-  27 1.43  15 1.43  29 1.45
  17  0.335  0.169  0.494-  18 1.42   4 1.43   6 1.43
  18  0.391  0.281  0.497-  17 1.42  31 1.43  29 1.44
  19  0.501  0.167  0.492-  20 1.42   6 1.42   8 1.43
  20  0.557  0.278  0.491-  19 1.42  33 1.43  31 1.44
  21  0.667  0.166  0.492-   8 1.42  10 1.42  22 1.42
  22  0.723  0.277  0.492-  33 1.42  21 1.42  35 1.42
  23  0.833  0.166  0.491-  24 1.42  12 1.42  10 1.43
  24  0.889  0.277  0.492-  23 1.42  35 1.42  25 1.43
  25  0.000  0.333  0.493-  26 1.42  14 1.43  24 1.43
  26  0.056  0.445  0.493-  37 1.42  39 1.42  25 1.42
  27  0.167  0.334  0.498-  28 1.42  14 1.43  16 1.43
  28  0.221  0.445  0.500-  41 1.41  27 1.42  39 1.42
  29  0.338  0.339  0.504-  18 1.44  30 1.44  16 1.45
  30  0.393  0.452  0.514-  41 1.43  29 1.44  71 2.04
  31  0.502  0.335  0.492-  32 1.41  18 1.43  20 1.44
  32  0.559  0.445  0.492-  31 1.41  43 1.42  71 1.91
  33  0.668  0.333  0.492-  34 1.42  22 1.42  20 1.43
  34  0.724  0.444  0.494-  43 1.42  45 1.42  33 1.42
  35  0.834  0.333  0.492-  36 1.42  24 1.42  22 1.42
  36  0.890  0.444  0.493-  45 1.42  35 1.42  37 1.42
  37  0.001  0.500  0.492-  26 1.42  38 1.42  36 1.42
  38  0.056  0.612  0.492-  37 1.42  47 1.42  49 1.42
  39  0.166  0.501  0.496-  40 1.42  26 1.42  28 1.42
  40  0.222  0.612  0.496-  49 1.42  39 1.42  51 1.43
  41  0.331  0.501  0.508-  28 1.41  42 1.42  30 1.43
  42  0.387  0.612  0.507-  51 1.41  41 1.42  53 1.42
  43  0.669  0.500  0.490-  34 1.42  32 1.42  44 1.44  71 2.51
  44  0.726  0.613  0.488-  57 1.42  55 1.42  43 1.44  71 2.51
  45  0.835  0.500  0.494-  36 1.42  34 1.42  46 1.42
  46  0.891  0.612  0.493-  47 1.42  57 1.42  45 1.42
  47  0.001  0.668  0.492-  46 1.42  38 1.42  48 1.42
  48  0.057  0.779  0.491-  47 1.42  59 1.43  61 1.43
  49  0.167  0.667  0.493-  40 1.42  50 1.42  38 1.42
  50  0.223  0.779  0.492-  49 1.42  61 1.43  63 1.43
  51  0.333  0.668  0.499-  42 1.41  52 1.41  40 1.43
  52  0.390  0.779  0.496-  65 1.41  51 1.41  63 1.42
  53  0.497  0.663  0.514-  54 1.42  42 1.42  71 2.06
  54  0.553  0.773  0.502-  53 1.42  67 1.44  65 1.44
  55  0.669  0.666  0.484-  56 1.40  44 1.42  71 1.93
  56  0.721  0.776  0.487-  55 1.40  67 1.44  69 1.44
  57  0.836  0.668  0.491-  58 1.42  44 1.42  46 1.42
  58  0.890  0.779  0.489-  57 1.42  59 1.43  69 1.43
  59  0.002  0.835  0.490-  60 1.42  48 1.43  58 1.43
  60  0.057  0.946  0.490-  59 1.42   1 1.43   3 1.43
  61  0.168  0.835  0.491-  62 1.42  50 1.43  48 1.43
  62  0.223  0.946  0.491-  61 1.42   5 1.43   3 1.43
  63  0.335  0.834  0.493-  64 1.42  52 1.42  50 1.43
  64  0.389  0.945  0.492-  63 1.42   7 1.42   5 1.42
  65  0.500  0.832  0.497-  52 1.41  66 1.41  54 1.44
  66  0.555  0.942  0.494-  65 1.41   9 1.42   7 1.43
  67  0.665  0.831  0.493-  68 1.41  56 1.44  54 1.44
  68  0.721  0.942  0.492-  67 1.41   9 1.43  11 1.43
  69  0.834  0.833  0.487-  70 1.42  58 1.43  56 1.44
  70  0.890  0.945  0.489-  69 1.42  11 1.43   1 1.43
  71  0.545  0.557  0.541-  72 1.90  32 1.91  55 1.93  30 2.04  53 2.06  43 2.51  44 2.51
  72  0.498  0.522  0.661-  73 1.17  71 1.90
  73  0.474  0.504  0.735-  72 1.17
 

IMPORTANT INFORMATION: All symmetrisations will be switched off!
NOSYMM: (Re-)initialisation of all symmetry stuff for point group C_1.

 
 
 KPOINTS: K-Points                                

Automatic generation of k-mesh.
Space group operators:
 irot       det(A)        alpha          n_x          n_y          n_z        tau_x        tau_y        tau_z
    1     1.000000     0.000001     1.000000     0.000000     0.000000     0.000000     0.000000     0.000000
 
 Subroutine IBZKPT returns following result:
 ===========================================
 
 Found      5 irreducible k-points:
 
 Following reciprocal coordinates:
            Coordinates               Weight
  0.000000  0.000000  0.000000      1.000000
  0.333333  0.000000  0.000000      2.000000
 -0.000000  0.333333  0.000000      2.000000
  0.333333  0.333333  0.000000      2.000000
 -0.333333  0.333333  0.000000      2.000000
 
 Following cartesian coordinates:
            Coordinates               Weight
  0.000000  0.000000  0.000000      1.000000
  0.022441  0.013064  0.000000      2.000000
  0.000017  0.026128  0.000000      2.000000
  0.022459  0.039192  0.000000      2.000000
 -0.022424  0.013064  0.000000      2.000000
 
 TETIRR: Found     24 inequivalent tetrahedra from       54


--------------------------------------------------------------------------------------------------------




 Dimension of arrays:
   k-points           NKPTS =      5   k-points in BZ     NKDIM =      5   number of bands    NBANDS=    192
   number of dos      NEDOS =   4000   number of ions     NIONS =     73
   non local maximal  LDIM  =      6   non local SUM 2l+1 LMDIM =     18
   total plane-waves  NPLWV = 512000
   max r-space proj   IRMAX =      1   max aug-charges    IRDMAX=   6464
   dimension x,y,z NGX =    80 NGY =   80 NGZ =   80
   dimension x,y,z NGXF=   160 NGYF=  160 NGZF=  160
   support grid    NGXF=   160 NGYF=  160 NGZF=  160
   ions per type =              64   1   5   1   1   1
   NGX,Y,Z   is equivalent  to a cutoff of   8.95,  9.01,  8.87 a.u.
   NGXF,Y,Z  is equivalent  to a cutoff of  17.90, 18.01, 17.73 a.u.

 SYSTEM =  unknown system                          
 POSCAR =  POSCAR-clean                            

 Startparameter for this run:
   NWRITE =      2    write-flag & timer
   PREC   = normal    normal or accurate (medium, high low for compatibility)
   ISTART =      0    job   : 0-new  1-cont  2-samecut
   ICHARG =      2    charge: 1-file 2-atom 10-const
   ISPIN  =      2    spin polarized calculation?
   LNONCOLLINEAR =      F non collinear calculations
   LSORBIT =      F    spin-orbit coupling
   INIWAV =      1    electr: 0-lowe 1-rand  2-diag
   LASPH  =      F    aspherical Exc in radial PAW
   METAGGA=      F    non-selfconsistent MetaGGA calc.

 Electronic Relaxation 1
   ENCUT  =  440.0 eV  32.34 Ry    5.69 a.u.  25.41 25.26 25.66*2*pi/ulx,y,z
   ENINI  =  440.0     initial cutoff
   ENAUG  =  644.9 eV  augmentation charge cutoff
   NELM   =    100;   NELMIN=  2; NELMDL= -5     # of ELM steps 
   EDIFF  = 0.1E-03   stopping-criterion for ELM
   LREAL  =      F    real-space projection
   NLSPLINE    = F    spline interpolate recip. space projectors
   LCOMPAT=      F    compatible to vasp.4.4
   GGA_COMPAT  = T    GGA compatible to vasp.4.4-vasp.4.6
   LMAXPAW     = -100 max onsite density
   LMAXMIX     =    2 max onsite mixed and CHGCAR
   VOSKOWN=      0    Vosko Wilk Nusair interpolation
   ROPT   =    0.00000   0.00000   0.00000   0.00000
   ROPT   =    0.00000   0.00000
 Ionic relaxation
   EDIFFG = -.1E-01   stopping-criterion for IOM
   NSW    =      0    number of steps for IOM
   NBLOCK =      1;   KBLOCK =      1    inner block; outer block 
   IBRION =     -1    ionic relax: 0-MD 1-quasi-New 2-CG
   NFREE  =      0    steps in history (QN), initial steepest desc. (CG)
   ISIF   =      2    stress and relaxation
   IWAVPR =     10    prediction:  0-non 1-charg 2-wave 3-comb
   ISYM   =      0    0-nonsym 1-usesym 2-fastsym
   LCORR  =      T    Harris-Foulkes like correction to forces

   POTIM  = 0.5000    time-step for ionic-motion
   TEIN   =    0.0    initial temperature
   TEBEG  =    0.0;   TEEND  =   0.0 temperature during run
   SMASS  =  -3.00    Nose mass-parameter (am)
   estimated Nose-frequenzy (Omega)   =  0.10E-29 period in steps =****** mass=  -0.505E-26a.u.
   SCALEE = 1.0000    scale energy and forces
   NPACO  =    256;   APACO  = 16.0  distance and # of slots for P.C.
   PSTRESS=    0.0 pullay stress

  Mass of Ions in am
   POMASS =  12.01 14.00 12.01 52.00 12.01 16.00
  Ionic Valenz
   ZVAL   =   4.00  5.00  4.00 12.00  4.00  6.00
  Atomic Wigner-Seitz radii
   RWIGS  =  -1.00 -1.00 -1.00 -1.00 -1.00 -1.00
  virtual crystal weights 
   VCA    =   1.00  1.00  1.00  1.00  1.00  1.00
   NELECT =     303.0000    total number of electrons
   NUPDOWN=      -1.0000    fix difference up-down

 DOS related values:
   EMIN   = -14.00;   EMAX   =  6.00  energy-range for DOS
   EFERMI =   0.00
   ISMEAR =    -5;   SIGMA  =   0.20  broadening in eV -4-tet -1-fermi 0-gaus

 Electronic relaxation 2 (details)
   IALGO  =     38    algorithm
   LDIAG  =      T    sub-space diagonalisation (order eigenvalues)
   LSUBROT=      F    optimize rotation matrix (better conditioning)
   TURBO    =      0    0=normal 1=particle mesh
   IRESTART =      0    0=no restart 2=restart with 2 vectors
   NREBOOT  =      0    no. of reboots
   NMIN     =      0    reboot dimension
   EREF     =   0.00    reference energy to select bands
   IMIX   =      4    mixing-type and parameters
     AMIX     =   0.25;   BMIX     =  0.00
     AMIX_MAG =   1.00;   BMIX_MAG =  0.00
     AMIN     =   0.10
     WC   =   100.;   INIMIX=   1;  MIXPRE=   1;  MAXMIX= -45

 Intra band minimization:
   WEIMIN = 0.0000     energy-eigenvalue tresh-hold
   EBREAK =  0.13E-06  absolut break condition
   DEPER  =   0.30     relativ break condition  

   TIME   =   0.40     timestep for ELM

  volume/ion in A,a.u.               =      38.95       262.87
  Fermi-wavevector in a.u.,A,eV,Ry     =   0.776132  1.466677  8.195894  0.602381
  Thomas-Fermi vector in A             =   1.878546
 
 Write flags
   LWAVE        =      F    write WAVECAR
   LDOWNSAMPLE  =      F    k-point downsampling of WAVECAR
   LCHARG       =      F    write CHGCAR
   LVTOT        =      F    write LOCPOT, total local potential
   LVHAR        =      F    write LOCPOT, Hartree potential only
   LELF         =      F    write electronic localiz. function (ELF)
   LORBIT       =     11    0 simple, 1 ext, 2 COOP (PROOUT), +10 PAW based schemes


 Dipole corrections
   LMONO  =      F    monopole corrections only (constant potential shift)
   LDIPOL =      F    correct potential (dipole corrections)
   IDIPOL =      0    1-x, 2-y, 3-z, 4-all directions 
   EPSILON=  1.0000000 bulk dielectric constant

 Exchange correlation treatment:
   GGA     =    --    GGA type
   LEXCH   =     8    internal setting for exchange type
   VOSKOWN=      0    Vosko Wilk Nusair interpolation
   LHFCALC =     F    Hartree Fock is set to
   LHFONE  =     F    Hartree Fock one center treatment
   AEXX    =    0.0000 exact exchange contribution

 Linear response parameters
   LEPSILON=     F    determine dielectric tensor
   LRPA    =     F    only Hartree local field effects (RPA)
   LNABLA  =     F    use nabla operator in PAW spheres
   LVEL    =     F    velocity operator in full k-point grid
   LINTERFAST=   F  fast interpolation
   KINTER  =     0    interpolate to denser k-point grid
   CSHIFT  =0.1000    complex shift for real part using Kramers Kronig
   OMEGAMAX=  -1.0    maximum frequency
   DEG_THRESHOLD= 0.2000000E-02 threshold for treating states as degnerate
   RTIME   =   -0.100 relaxation time in fs
  (WPLASMAI=    0.000 imaginary part of plasma frequency in eV, 0.658/RTIME)
   DFIELD  = 0.0000000 0.0000000 0.0000000 field for delta impulse in time
 
 Orbital magnetization related:
   ORBITALMAG=     F  switch on orbital magnetization
   LCHIMAG   =     F  perturbation theory with respect to B field
   DQ        =  0.001000  dq finite difference perturbation B field
   LLRAUG    =     F  two centre corrections for induced B field



--------------------------------------------------------------------------------------------------------


 Static calculation
 charge density and potential will be updated during run
 spin polarized calculation
 Variant of blocked Davidson
 Davidson routine will perform the subspace rotation
 perform sub-space diagonalisation
    after iterative eigenvector-optimisation
 modified Broyden-mixing scheme, WC =      100.0
 initial mixing is a Kerker type mixing with AMIX =  0.2500 and BMIX =      0.0001
 Hartree-type preconditioning will be used
 using additional bands           40
 reciprocal scheme for non local part
 use partial core corrections
 calculate Harris-corrections to forces 
   (improved forces if not selfconsistent)
 use gradient corrections 
 use of overlap-Matrix (Vanderbilt PP)
 Fermi weights with tetrahedron method with Bloechl corrections


--------------------------------------------------------------------------------------------------------


  energy-cutoff  :      440.00
  volume of cell :     2843.54
      direct lattice vectors                 reciprocal lattice vectors
    14.859192569 -0.009793846  0.000000000     0.067324240  0.039191913  0.000000000
    -7.429596285 12.762630739  0.000000000     0.000051664  0.078383827  0.000000000
     0.000000000  0.000000000 15.000000000     0.000000000  0.000000000  0.066666667

  length of vectors
    14.859195797 14.767655343 15.000000000     0.077900958  0.078383844  0.066666667


 
 k-points in units of 2pi/SCALE and weight: K-Points                                
   0.00000000  0.00000000  0.00000000       0.111
   0.02244141  0.01306397  0.00000000       0.222
   0.00001722  0.02612794  0.00000000       0.222
   0.02245863  0.03919191  0.00000000       0.222
  -0.02242419  0.01306397  0.00000000       0.222
 
 k-points in reciprocal lattice and weights: K-Points                                
   0.00000000  0.00000000  0.00000000       0.111
   0.33333333  0.00000000  0.00000000       0.222
  -0.00000000  0.33333333  0.00000000       0.222
   0.33333333  0.33333333  0.00000000       0.222
  -0.33333333  0.33333333  0.00000000       0.222
 
 position of ions in fractional coordinates (direct lattice) 
   0.00115820  0.00095526  0.49026612
   0.05705050  0.11256109  0.49211735
   0.16827573  0.00174984  0.49148367
   0.22391153  0.11327140  0.49369129
   0.33454057  0.00133863  0.49137977
   0.39019099  0.11285007  0.49195901
   0.50017496  0.99848006  0.49245063
   0.55626966  0.11035247  0.49194584
   0.66563336  0.99752868  0.49277900
   0.72168648  0.10949594  0.49174246
   0.83303051  0.99897932  0.48951966
   0.88882387  0.11041776  0.49055412
   0.00022714  0.16672676  0.49197312
   0.05591116  0.27808040  0.49401021
   0.16876848  0.16913129  0.49462269
   0.22500993  0.28116184  0.49894843
   0.33526261  0.16947111  0.49416105
   0.39080790  0.28097693  0.49741308
   0.50101494  0.16672441  0.49175566
   0.55674277  0.27821342  0.49124061
   0.66697503  0.16560761  0.49190866
   0.72292298  0.27723243  0.49221056
   0.83305381  0.16556905  0.49120825
   0.88909276  0.27718897  0.49170928
   0.00014099  0.33327712  0.49277479
   0.05568668  0.44478634  0.49333163
   0.16687610  0.33403591  0.49812581
   0.22148571  0.44519279  0.50027300
   0.33750993  0.33944584  0.50389778
   0.39252082  0.45163063  0.51427520
   0.50186067  0.33505344  0.49236772
   0.55869400  0.44519519  0.49243612
   0.66786247  0.33296380  0.49244875
   0.72447597  0.44435743  0.49389615
   0.83389400  0.33288723  0.49219328
   0.88980397  0.44440358  0.49254687
   0.00065021  0.50035849  0.49236244
   0.05627116  0.61175066  0.49196671
   0.16637985  0.50087455  0.49611664
   0.22196163  0.61222329  0.49566645
   0.33119084  0.50085971  0.50771164
   0.38651066  0.61189608  0.50726614
   0.66934629  0.49966744  0.49042722
   0.72558530  0.61252040  0.48778386
   0.83516074  0.50021565  0.49367343
   0.89087338  0.61176936  0.49298263
   0.00143525  0.66756030  0.49156653
   0.05699658  0.77903412  0.49068559
   0.16709031  0.66749809  0.49275566
   0.22341726  0.77866029  0.49209727
   0.33334838  0.66795485  0.49893798
   0.39007026  0.77880712  0.49637040
   0.49670740  0.66272622  0.51405240
   0.55313908  0.77302982  0.50192649
   0.66860749  0.66594301  0.48351867
   0.72125540  0.77584030  0.48665482
   0.83610603  0.66760964  0.49135329
   0.89037394  0.77880521  0.48884624
   0.00154856  0.83461603  0.48979649
   0.05706864  0.94591353  0.49028756
   0.16820177  0.83456720  0.49091406
   0.22346178  0.94590218  0.49106160
   0.33480489  0.83428758  0.49312758
   0.38944895  0.94531714  0.49200056
   0.49952713  0.83151983  0.49699355
   0.55497247  0.94201851  0.49378047
   0.66500104  0.83120961  0.49339245
   0.72146953  0.94206783  0.49159110
   0.83364247  0.83321331  0.48703822
   0.88955035  0.94452069  0.48873568
   0.54500149  0.55701402  0.54080155
   0.49826997  0.52155139  0.66073069
   0.47375756  0.50437708  0.73540834
 
 position of ions in cartesian coordinates  (Angst):
   0.01011275  0.01218033  7.35399183
   0.01144083  1.43601691  7.38176032
   2.48744082  0.02068445  7.37225509
   2.48558374  1.44344809  7.40536932
   4.96105730  0.01380794  7.37069652
   4.95949264  1.43644227  7.37938518
   0.01389229 12.73833368  7.38675946
   7.44584371  1.40293985  7.37918755
   2.47953899 12.72457105  7.39168495
   9.91016771  1.39038813  7.37613689
   4.95614773 12.74144557  7.34279490
  12.38684558  1.40051613  7.35831187
  -1.23533736  2.12786988  7.37959681
  -1.23523041  3.54848987  7.41015321
   1.25118614  2.15690728  7.41934031
   1.25454696  3.58616105  7.48422641
   3.72262977  2.15961374  7.41241572
   3.71954464  3.58217729  7.46119620
   6.20598245  2.12293524  7.37633488
   6.20573457  3.54528256  7.36860915
   8.68031272  2.10705652  7.37862989
   8.68232666  3.53113500  7.38315834
  11.14839580  2.10493779  7.36812369
  11.15179847  3.52895278  7.37563925
  -2.47401946  4.25349146  7.39162178
  -2.47712377  5.67609838  7.39997440
  -0.00210787  4.26154258  7.47188712
  -0.01650392  5.67966199  7.50409500
   2.49317944  4.32891639  7.55846671
   2.47710925  5.76015070  7.71412803
   4.96793253  4.27124816  7.38551573
   4.99412118  5.67639000  7.38654178
   7.45011045  4.24295311  7.38673118
   7.46373169  5.66407442  7.40844220
   9.91777383  4.24034972  7.38289913
   9.92002939  5.66304413  7.38820298
  -3.70780003  6.38588426  7.38543664
  -3.70891636  7.80699663  7.37950071
  -1.24902544  6.39084744  7.44174963
  -1.25040124  7.81140595  7.43499673
   1.20004310  6.38904385  7.61567456
   1.19709556  7.80561830  7.60899216
   6.23361801  6.37051562  7.35640833
   6.23083245  7.81026537  7.31675795
   8.69341388  6.37588816  7.40510140
   8.69245983  7.79906133  7.39473946
  -4.93837687  8.51981149  7.37349802
  -4.94098579  9.94196654  7.36028387
  -2.47641418  8.51739521  7.39133496
  -2.46533145  9.93556558  7.38145912
  -0.00934712  8.52159631  7.48406971
   0.00990663  9.93580737  7.44555597
   2.45688268  8.45326530  7.71078602
   2.47590065  9.86047679  7.52889740
   4.98727971  8.49263647  7.25277999
   4.95309268  9.89469942  7.29982226
   7.46379043  8.51226666  7.37029931
   7.44402954  9.93088318  7.33269361
  -6.17784975 10.65188100  7.34694741
  -6.17976176 12.07178611  7.35431333
  -3.70115495 10.64962569  7.36371096
  -3.70720977 12.07001173  7.36592406
  -1.22348956 10.64442532  7.39691365
  -1.23642774 12.06091933  7.38000836
   1.24471323 10.60748828  7.45490319
   1.24762558 12.01719913  7.40670705
   3.70582668 10.60190844  7.40088672
   3.72127109 12.01619788  7.37386646
   6.19681551 10.62582919  7.30557331
   6.20059252 12.04585666  7.33103526
   3.95989279  7.10362660  8.11202321
   3.52897312  6.65148785  9.91096041
   3.29233671  6.43253855 11.03112504
 


--------------------------------------------------------------------------------------------------------


 k-point  1 :   0.0000 0.0000 0.0000  plane waves:   59587
 k-point  2 :   0.3333 0.0000 0.0000  plane waves:   59569
 k-point  3 :  -0.0000 0.3333 0.0000  plane waves:   59626
 k-point  4 :   0.3333 0.3333 0.0000  plane waves:   59635
 k-point  5 :  -0.3333 0.3333 0.0000  plane waves:   59560

 maximum and minimum number of plane-waves per node :      4992     4935

 maximum number of plane-waves:     59635
 maximum index in each direction: 
   IXMAX=   25   IYMAX=   25   IZMAX=   25
   IXMIN=  -25   IYMIN=  -25   IZMIN=  -25


 parallel 3D FFT for wavefunctions:
    minimum data exchange during FFTs selected (reduces bandwidth)
 parallel 3D FFT for charge:
    minimum data exchange during FFTs selected (reduces bandwidth)


 total amount of memory used by VASP MPI-rank0   116305. kBytes
=======================================================================

   base      :      30000. kBytes
   nonl-proj :      27396. kBytes
   fftplans  :       4700. kBytes
   grid      :      15193. kBytes
   one-center:        217. kBytes
   wavefun   :      38799. kBytes
 
     INWAV:  cpu time    0.0000: real time    0.0001
 Broyden mixing: mesh for mixing (old mesh)
   NGX = 51   NGY = 51   NGZ = 51
  (NGX  =160   NGY  =160   NGZ  =160)
  gives a total of 132651 points

 initial charge density was supplied:
 charge density of overlapping atoms calculated
 number of electron     303.0000000 magnetization       2.0000000
 keeping initial charge density in first step


--------------------------------------------------------------------------------------------------------


 Maximum index for augmentation-charges          182 (set IRDMAX)


--------------------------------------------------------------------------------------------------------


 First call to EWALD:  gamma=   0.125
 Maximum number of real-space cells 3x 3x 3
 Maximum number of reciprocal cells 3x 3x 3

    FEWALD:  cpu time    0.0053: real time    0.0056


--------------------------------------- Iteration      1(   1)  ---------------------------------------


    POTLOK:  cpu time    0.1604: real time    0.2671
    SETDIJ:  cpu time    0.0087: real time    0.0096
     EDDAV:  cpu time   11.3921: real time   11.4867
 BZINTS: Fermi energy:  8.096227;303.000000 electrons
         Band energy:***********;  BLOECHL correction: -0.012969
       DOS:  cpu time    0.1161: real time    0.1168
    --------------------------------------------
      LOOP:  cpu time   11.6773: real time   11.8802

 eigenvalue-minimisations  :  4416
 total energy-change (2. order) : 0.2503657E+04  (-0.1123069E+05)
 number of electron     303.0000000 magnetization       2.0000000
 augmentation part      303.0000000 magnetization       2.0000000

 Free energy of the ion-electron system (eV)
  ---------------------------------------------------
  alpha Z        PSCENC =       167.22946921
  Ewald energy   TEWEN  =     30892.73687118
  -Hartree energ DENC   =    -40563.60128903
  -exchange      EXHF   =         0.00000000
  -V(xc)+E(xc)   XCENC  =      1023.23255082
  PAW double counting   =      9455.23336183    -9546.47664214
  entropy T*S    EENTRO =         0.00000000
  eigenvalues    EBANDS =     -1569.45086743
  atomic energy  EATOM  =     12644.75315347
  Solvation  Ediel_sol  =         0.00000000
  ---------------------------------------------------
  free energy    TOTEN  =      2503.65660792 eV

  energy without entropy =     2503.65660792  energy(sigma->0) =     2503.65660792


--------------------------------------------------------------------------------------------------------




--------------------------------------- Iteration      1(   2)  ---------------------------------------


     EDDAV:  cpu time   14.7869: real time   15.0459
 BZINTS: Fermi energy: -1.916823;303.000000 electrons
         Band energy:***********;  BLOECHL correction:  0.000000
       DOS:  cpu time    0.0053: real time    0.0053
    --------------------------------------------
      LOOP:  cpu time   14.7921: real time   15.0512

 eigenvalue-minimisations  :  5456
 total energy-change (2. order) :-0.2749921E+04  (-0.2626125E+04)
 number of electron     303.0000000 magnetization       2.0000000
 augmentation part      303.0000000 magnetization       2.0000000

 Free energy of the ion-electron system (eV)
  ---------------------------------------------------
  alpha Z        PSCENC =       167.22946921
  Ewald energy   TEWEN  =     30892.73687118
  -Hartree energ DENC   =    -40563.60128903
  -exchange      EXHF   =         0.00000000
  -V(xc)+E(xc)   XCENC  =      1023.23255082
  PAW double counting   =      9455.23336183    -9546.47664214
  entropy T*S    EENTRO =         0.00000000
  eigenvalues    EBANDS =     -4319.37158441
  atomic energy  EATOM  =     12644.75315347
  Solvation  Ediel_sol  =         0.00000000
  ---------------------------------------------------
  free energy    TOTEN  =      -246.26410906 eV

  energy without entropy =     -246.26410906  energy(sigma->0) =     -246.26410906


--------------------------------------------------------------------------------------------------------




--------------------------------------- Iteration      1(   3)  ---------------------------------------


     EDDAV:  cpu time   12.4794: real time   12.7638
 BZINTS: Fermi energy: -4.601714;303.000000 electrons
         Band energy:***********;  BLOECHL correction: -0.045042
       DOS:  cpu time    0.0115: real time    0.0115
    --------------------------------------------
      LOOP:  cpu time   12.4909: real time   12.7754

 eigenvalue-minimisations  :  4576
 total energy-change (2. order) :-0.4540304E+03  (-0.4498281E+03)
 number of electron     303.0000000 magnetization       2.0000000
 augmentation part      303.0000000 magnetization       2.0000000

 Free energy of the ion-electron system (eV)
  ---------------------------------------------------
  alpha Z        PSCENC =       167.22946921
  Ewald energy   TEWEN  =     30892.73687118
  -Hartree energ DENC   =    -40563.60128903
  -exchange      EXHF   =         0.00000000
  -V(xc)+E(xc)   XCENC  =      1023.23255082
  PAW double counting   =      9455.23336183    -9546.47664214
  entropy T*S    EENTRO =         0.00000000
  eigenvalues    EBANDS =     -4773.40194024
  atomic energy  EATOM  =     12644.75315347
  Solvation  Ediel_sol  =         0.00000000
  ---------------------------------------------------
  free energy    TOTEN  =      -700.29446489 eV

  energy without entropy =     -700.29446489  energy(sigma->0) =     -700.29446489


--------------------------------------------------------------------------------------------------------




--------------------------------------- Iteration      1(   4)  ---------------------------------------


     EDDAV:  cpu time   12.9512: real time   13.1723
 BZINTS: Fermi energy: -4.733147;303.000000 electrons
         Band energy:***********;  BLOECHL correction: -0.045488
       DOS:  cpu time    0.0115: real time    0.0116
    --------------------------------------------
      LOOP:  cpu time   12.9628: real time   13.1839

 eigenvalue-minimisations  :  4672
 total energy-change (2. order) :-0.1638167E+02  (-0.1623648E+02)
 number of electron     303.0000000 magnetization       2.0000000
 augmentation part      303.0000000 magnetization       2.0000000

 Free energy of the ion-electron system (eV)
  ---------------------------------------------------
  alpha Z        PSCENC =       167.22946921
  Ewald energy   TEWEN  =     30892.73687118
  -Hartree energ DENC   =    -40563.60128903
  -exchange      EXHF   =         0.00000000
  -V(xc)+E(xc)   XCENC  =      1023.23255082
  PAW double counting   =      9455.23336183    -9546.47664214
  entropy T*S    EENTRO =         0.00000000
  eigenvalues    EBANDS =     -4789.78360810
  atomic energy  EATOM  =     12644.75315347
  Solvation  Ediel_sol  =         0.00000000
  ---------------------------------------------------
  free energy    TOTEN  =      -716.67613275 eV

  energy without entropy =     -716.67613275  energy(sigma->0) =     -716.67613275


--------------------------------------------------------------------------------------------------------




--------------------------------------- Iteration      1(   5)  ---------------------------------------


     EDDAV:  cpu time   14.0734: real time   14.3020
 BZINTS: Fermi energy: -4.740252;303.000000 electrons
         Band energy:***********;  BLOECHL correction: -0.045401
       DOS:  cpu time    0.0114: real time    0.0115
    CHARGE:  cpu time    0.1665: real time    0.1708
    MIXING:  cpu time    0.0045: real time    0.0047
    --------------------------------------------
      LOOP:  cpu time   14.2559: real time   14.4890

 eigenvalue-minimisations  :  5336
 total energy-change (2. order) :-0.5414812E+00  (-0.5400456E+00)
 number of electron     303.0000032 magnetization       0.0652588
 augmentation part       12.4728967 magnetization       0.0885243

 Broyden mixing:
  rms(total) = 0.48003E+01    rms(broyden)= 0.47997E+01
  rms(prec ) = 0.54831E+01
  weight for this iteration     100.00

 Free energy of the ion-electron system (eV)
  ---------------------------------------------------
  alpha Z        PSCENC =       167.22946921
  Ewald energy   TEWEN  =     30892.73687118
  -Hartree energ DENC   =    -40563.60128903
  -exchange      EXHF   =         0.00000000
  -V(xc)+E(xc)   XCENC  =      1023.23255082
  PAW double counting   =      9455.23336183    -9546.47664214
  entropy T*S    EENTRO =         0.00000000
  eigenvalues    EBANDS =     -4790.32508927
  atomic energy  EATOM  =     12644.75315347
  Solvation  Ediel_sol  =         0.00000000
  ---------------------------------------------------
  free energy    TOTEN  =      -717.21761392 eV

  energy without entropy =     -717.21761392  energy(sigma->0) =     -717.21761392


--------------------------------------------------------------------------------------------------------




--------------------------------------- Iteration      1(   6)  ---------------------------------------


    POTLOK:  cpu time    0.1378: real time    0.1401
    SETDIJ:  cpu time    0.0102: real time    0.0103
     EDDAV:  cpu time   12.3654: real time   12.4511
 BZINTS: Fermi energy: -5.562130;303.000000 electrons
         Band energy:***********;  BLOECHL correction: -0.023075
       DOS:  cpu time    0.0119: real time    0.0119
    CHARGE:  cpu time    0.2014: real time    0.2090
    MIXING:  cpu time    0.0032: real time    0.0040
    --------------------------------------------
      LOOP:  cpu time   12.7300: real time   12.8265

 eigenvalue-minimisations  :  4728
 total energy-change (2. order) : 0.5179570E+01  (-0.6822190E+01)
 number of electron     303.0000059 magnetization       0.0476965
 augmentation part       17.8468783 magnetization       0.0743388

 Broyden mixing:
  rms(total) = 0.72427E+01    rms(broyden)= 0.72424E+01
  rms(prec ) = 0.82782E+01
  weight for this iteration     100.00

 eigenvalues of (default mixing * dielectric matrix)
  average eigenvalue GAMMA=   0.2773
  0.2773

 Free energy of the ion-electron system (eV)
  ---------------------------------------------------
  alpha Z        PSCENC =       167.22946921
  Ewald energy   TEWEN  =     30892.73687118
  -Hartree energ DENC   =    -40922.40231961
  -exchange      EXHF   =         0.00000000
  -V(xc)+E(xc)   XCENC  =      1035.83216501
  PAW double counting   =     13272.22968068   -13363.83118089
  entropy T*S    EENTRO =         0.00000000
  eigenvalues    EBANDS =     -4438.58588271
  atomic energy  EATOM  =     12644.75315347
  Solvation  Ediel_sol  =         0.00000000
  ---------------------------------------------------
  free energy    TOTEN  =      -712.03804366 eV

  energy without entropy =     -712.03804366  energy(sigma->0) =     -712.03804366


--------------------------------------------------------------------------------------------------------




--------------------------------------- Iteration      1(   7)  ---------------------------------------


    POTLOK:  cpu time    0.1364: real time    0.1429
    SETDIJ:  cpu time    0.0111: real time    0.0112
     EDDAV:  cpu time   13.5745: real time   13.7138
 BZINTS: Fermi energy: -4.086507;303.000000 electrons
         Band energy:***********;  BLOECHL correction: -0.012479
       DOS:  cpu time    0.0122: real time    0.0122
    CHARGE:  cpu time    0.2083: real time    0.2149
    MIXING:  cpu time    0.0040: real time    0.0042
    --------------------------------------------
      LOOP:  cpu time   13.9465: real time   14.0992

 eigenvalue-minimisations  :  5288
 total energy-change (2. order) : 0.3643147E+02  (-0.7547853E+01)
 number of electron     303.0000034 magnetization       0.5477603
 augmentation part       14.0364440 magnetization       0.2384181

 Broyden mixing:
  rms(total) = 0.25435E+01    rms(broyden)= 0.25430E+01
  rms(prec ) = 0.27831E+01
  weight for this iteration     100.00

 eigenvalues of (default mixing * dielectric matrix)
  average eigenvalue GAMMA=   0.7467
  1.2107  0.2826

 Free energy of the ion-electron system (eV)
  ---------------------------------------------------
  alpha Z        PSCENC =       167.22946921
  Ewald energy   TEWEN  =     30892.73687118
  -Hartree energ DENC   =    -41074.94641329
  -exchange      EXHF   =         0.00000000
  -V(xc)+E(xc)   XCENC  =      1040.14787249
  PAW double counting   =     14442.20700079   -14538.09481348
  entropy T*S    EENTRO =         0.00000000
  eigenvalues    EBANDS =     -4249.63971345
  atomic energy  EATOM  =     12644.75315347
  Solvation  Ediel_sol  =         0.00000000
  ---------------------------------------------------
  free energy    TOTEN  =      -675.60657307 eV

  energy without entropy =     -675.60657307  energy(sigma->0) =     -675.60657307


--------------------------------------------------------------------------------------------------------




--------------------------------------- Iteration      1(   8)  ---------------------------------------


    POTLOK:  cpu time    0.1427: real time    0.1450
    SETDIJ:  cpu time    0.0103: real time    0.0104
     EDDAV:  cpu time   12.5329: real time   12.6189
 BZINTS: Fermi energy: -2.483240;303.000000 electrons
         Band energy:***********;  BLOECHL correction: -0.029282
       DOS:  cpu time    0.0115: real time    0.0116
    CHARGE:  cpu time    0.1627: real time    0.1643
    MIXING:  cpu time    0.0032: real time    0.0032
    --------------------------------------------
      LOOP:  cpu time   12.8633: real time   12.9534

 eigenvalue-minimisations  :  4872
 total energy-change (2. order) : 0.6459908E+01  (-0.3199124E+01)
 number of electron     303.0000036 magnetization       0.2687049
 augmentation part       12.4413876 magnetization       0.1458687

 Broyden mixing:
  rms(total) = 0.23118E+01    rms(broyden)= 0.23114E+01
  rms(prec ) = 0.26851E+01
  weight for this iteration     100.00

 eigenvalues of (default mixing * dielectric matrix)
  average eigenvalue GAMMA=   1.2091
  2.7737  0.5335  0.3201

 Free energy of the ion-electron system (eV)
  ---------------------------------------------------
  alpha Z        PSCENC =       167.22946921
  Ewald energy   TEWEN  =     30892.73687118
  -Hartree energ DENC   =    -41392.32732126
  -exchange      EXHF   =         0.00000000
  -V(xc)+E(xc)   XCENC  =      1051.34394004
  PAW double counting   =     18809.03665664   -18908.34154138
  entropy T*S    EENTRO =         0.00000000
  eigenvalues    EBANDS =     -3933.57789272
  atomic energy  EATOM  =     12644.75315347
  Solvation  Ediel_sol  =         0.00000000
  ---------------------------------------------------
  free energy    TOTEN  =      -669.14666480 eV

  energy without entropy =     -669.14666480  energy(sigma->0) =     -669.14666480


--------------------------------------------------------------------------------------------------------




--------------------------------------- Iteration      1(   9)  ---------------------------------------


    POTLOK:  cpu time    0.1432: real time    0.1455
    SETDIJ:  cpu time    0.0087: real time    0.0087
     EDDAV:  cpu time   12.1931: real time   12.3178
 BZINTS: Fermi energy: -2.682044;303.000000 electrons
         Band energy:***********;  BLOECHL correction: -0.049083
       DOS:  cpu time    0.0100: real time    0.0101
    CHARGE:  cpu time    0.1618: real time    0.1630
    MIXING:  cpu time    0.0037: real time    0.0037
    --------------------------------------------
      LOOP:  cpu time   12.5205: real time   12.6487

 eigenvalue-minimisations  :  4624
 total energy-change (2. order) : 0.4452747E+01  (-0.2170813E+01)
 number of electron     303.0000034 magnetization       0.1686708
 augmentation part       14.3427774 magnetization      -0.0823483

 Broyden mixing:
  rms(total) = 0.14726E+01    rms(broyden)= 0.14717E+01
  rms(prec ) = 0.17865E+01
  weight for this iteration     100.00

 eigenvalues of (default mixing * dielectric matrix)
  average eigenvalue GAMMA=   1.2411
  3.1900  1.0586  0.3578  0.3578

 Free energy of the ion-electron system (eV)
  ---------------------------------------------------
  alpha Z        PSCENC =       167.22946921
  Ewald energy   TEWEN  =     30892.73687118
  -Hartree energ DENC   =    -41780.24574462
  -exchange      EXHF   =         0.00000000
  -V(xc)+E(xc)   XCENC  =      1065.64028161
  PAW double counting   =     26476.74206052   -26579.25636909
  entropy T*S    EENTRO =         0.00000000
  eigenvalues    EBANDS =     -3552.29364004
  atomic energy  EATOM  =     12644.75315347
  Solvation  Ediel_sol  =         0.00000000
  ---------------------------------------------------
  free energy    TOTEN  =      -664.69391775 eV

  energy without entropy =     -664.69391775  energy(sigma->0) =     -664.69391775


--------------------------------------------------------------------------------------------------------




--------------------------------------- Iteration      1(  10)  ---------------------------------------


    POTLOK:  cpu time    0.1619: real time    0.1642
    SETDIJ:  cpu time    0.0088: real time    0.0089
     EDDAV:  cpu time   13.3196: real time   13.4220
 BZINTS: Fermi energy: -1.956235;303.000000 electrons
         Band energy:***********;  BLOECHL correction: -0.002013
       DOS:  cpu time    0.0115: real time    0.0116
    CHARGE:  cpu time    0.1863: real time    0.1873
    MIXING:  cpu time    0.0040: real time    0.0040
    --------------------------------------------
      LOOP:  cpu time   13.6922: real time   13.7980

 eigenvalue-minimisations  :  5256
 total energy-change (2. order) : 0.1095269E+01  (-0.8452659E+00)
 number of electron     303.0000034 magnetization       0.7748818
 augmentation part       12.9926594 magnetization       0.1177554

 Broyden mixing:
  rms(total) = 0.75497E+00    rms(broyden)= 0.75443E+00
  rms(prec ) = 0.83341E+00
  weight for this iteration     100.00

 eigenvalues of (default mixing * dielectric matrix)
  average eigenvalue GAMMA=   1.2568
  3.4996  1.4831  0.6115  0.3448  0.3448

 Free energy of the ion-electron system (eV)
  ---------------------------------------------------
  alpha Z        PSCENC =       167.22946921
  Ewald energy   TEWEN  =     30892.73687118
  -Hartree energ DENC   =    -41796.00963599
  -exchange      EXHF   =         0.00000000
  -V(xc)+E(xc)   XCENC  =      1066.21403737
  PAW double counting   =     28528.68706025   -28631.47523016
  entropy T*S    EENTRO =         0.00000000
  eigenvalues    EBANDS =     -3535.73437450
  atomic energy  EATOM  =     12644.75315347
  Solvation  Ediel_sol  =         0.00000000
  ---------------------------------------------------
  free energy    TOTEN  =      -663.59864917 eV

  energy without entropy =     -663.59864917  energy(sigma->0) =     -663.59864917


--------------------------------------------------------------------------------------------------------




--------------------------------------- Iteration      1(  11)  ---------------------------------------


    POTLOK:  cpu time    0.1343: real time    0.1366
    SETDIJ:  cpu time    0.0100: real time    0.0100
     EDDAV:  cpu time   12.5446: real time   12.6659
 BZINTS: Fermi energy: -2.001688;303.000000 electrons
         Band energy:***********;  BLOECHL correction:  0.000000
       DOS:  cpu time    0.0050: real time    0.0050
    CHARGE:  cpu time    0.1622: real time    0.1632
    MIXING:  cpu time    0.0038: real time    0.0039
    --------------------------------------------
      LOOP:  cpu time   12.8599: real time   12.9846

 eigenvalue-minimisations  :  4808
 total energy-change (2. order) : 0.8144022E-01  (-0.1028475E+00)
 number of electron     303.0000035 magnetization       1.1045693
 augmentation part       13.0628472 magnetization       0.4547496

 Broyden mixing:
  rms(total) = 0.55428E+00    rms(broyden)= 0.55410E+00
  rms(prec ) = 0.63028E+00
  weight for this iteration     100.00

 eigenvalues of (default mixing * dielectric matrix)
  average eigenvalue GAMMA=   1.2547
  3.5353  1.8691  0.7072  0.7072  0.3546  0.3546

 Free energy of the ion-electron system (eV)
  ---------------------------------------------------
  alpha Z        PSCENC =       167.22946921
  Ewald energy   TEWEN  =     30892.73687118
  -Hartree energ DENC   =    -41768.49918683
  -exchange      EXHF   =         0.00000000
  -V(xc)+E(xc)   XCENC  =      1065.77712207
  PAW double counting   =     30176.37337011   -30278.70683859
  entropy T*S    EENTRO =         0.00000000
  eigenvalues    EBANDS =     -3563.18116956
  atomic energy  EATOM  =     12644.75315347
  Solvation  Ediel_sol  =         0.00000000
  ---------------------------------------------------
  free energy    TOTEN  =      -663.51720895 eV

  energy without entropy =     -663.51720895  energy(sigma->0) =     -663.51720895


--------------------------------------------------------------------------------------------------------




--------------------------------------- Iteration      1(  12)  ---------------------------------------


    POTLOK:  cpu time    0.1449: real time    0.1472
    SETDIJ:  cpu time    0.0092: real time    0.0095
     EDDAV:  cpu time   12.2406: real time   12.3331
 BZINTS: Fermi energy: -2.227056;303.000000 electrons
         Band energy:***********;  BLOECHL correction:  0.000000
       DOS:  cpu time    0.0071: real time    0.0071
    CHARGE:  cpu time    0.1623: real time    0.1638
    MIXING:  cpu time    0.0036: real time    0.0036
    --------------------------------------------
      LOOP:  cpu time   12.5677: real time   12.6644

 eigenvalue-minimisations  :  4680
 total energy-change (2. order) : 0.1579932E+00  (-0.4482256E-01)
 number of electron     303.0000036 magnetization       1.0025510
 augmentation part       13.3081115 magnetization       0.4840177

 Broyden mixing:
  rms(total) = 0.29734E+00    rms(broyden)= 0.29720E+00
  rms(prec ) = 0.30522E+00
  weight for this iteration     100.00

 eigenvalues of (default mixing * dielectric matrix)
  average eigenvalue GAMMA=   1.3466
  3.7916  2.3649  0.3540  0.3540  0.8862  0.8862  0.7890

 Free energy of the ion-electron system (eV)
  ---------------------------------------------------
  alpha Z        PSCENC =       167.22946921
  Ewald energy   TEWEN  =     30892.73687118
  -Hartree energ DENC   =    -41718.66467827
  -exchange      EXHF   =         0.00000000
  -V(xc)+E(xc)   XCENC  =      1064.29866080
  PAW double counting   =     31305.28173364   -31406.94664751
  entropy T*S    EENTRO =         0.00000000
  eigenvalues    EBANDS =     -3612.04777825
  atomic energy  EATOM  =     12644.75315347
  Solvation  Ediel_sol  =         0.00000000
  ---------------------------------------------------
  free energy    TOTEN  =      -663.35921573 eV

  energy without entropy =     -663.35921573  energy(sigma->0) =     -663.35921573


--------------------------------------------------------------------------------------------------------




--------------------------------------- Iteration      1(  13)  ---------------------------------------


    POTLOK:  cpu time    0.1353: real time    0.1373
    SETDIJ:  cpu time    0.0102: real time    0.0103
     EDDAV:  cpu time   12.2839: real time   12.3792
 BZINTS: Fermi energy: -2.302075;303.000000 electrons
         Band energy:***********;  BLOECHL correction:  0.000000
       DOS:  cpu time    0.0075: real time    0.0075
    CHARGE:  cpu time    0.1604: real time    0.1622
    MIXING:  cpu time    0.0041: real time    0.0041
    --------------------------------------------
      LOOP:  cpu time   12.6014: real time   12.7007

 eigenvalue-minimisations  :  4784
 total energy-change (2. order) :-0.1424518E-01  (-0.1909412E-01)
 number of electron     303.0000036 magnetization       0.9632840
 augmentation part       13.4069280 magnetization       0.5147954

 Broyden mixing:
  rms(total) = 0.21177E+00    rms(broyden)= 0.21170E+00
  rms(prec ) = 0.21702E+00
  weight for this iteration     100.00

 eigenvalues of (default mixing * dielectric matrix)
  average eigenvalue GAMMA=   1.3708
  3.7760  2.2923  1.6264  1.0315  0.3538  0.3538  0.7661  0.7661

 Free energy of the ion-electron system (eV)
  ---------------------------------------------------
  alpha Z        PSCENC =       167.22946921
  Ewald energy   TEWEN  =     30892.73687118
  -Hartree energ DENC   =    -41700.83968560
  -exchange      EXHF   =         0.00000000
  -V(xc)+E(xc)   XCENC  =      1063.76654776
  PAW double counting   =     31870.80385983   -31972.17663618
  entropy T*S    EENTRO =         0.00000000
  eigenvalues    EBANDS =     -3629.64704058
  atomic energy  EATOM  =     12644.75315347
  Solvation  Ediel_sol  =         0.00000000
  ---------------------------------------------------
  free energy    TOTEN  =      -663.37346091 eV

  energy without entropy =     -663.37346091  energy(sigma->0) =     -663.37346091


--------------------------------------------------------------------------------------------------------




--------------------------------------- Iteration      1(  14)  ---------------------------------------


    POTLOK:  cpu time    0.1474: real time    0.1501
    SETDIJ:  cpu time    0.0100: real time    0.0104
     EDDAV:  cpu time   11.8809: real time   12.0153
 BZINTS: Fermi energy: -2.287071;303.000000 electrons
         Band energy:***********;  BLOECHL correction:  0.000000
       DOS:  cpu time    0.0077: real time    0.0078
    CHARGE:  cpu time    0.1612: real time    0.1616
    MIXING:  cpu time    0.0038: real time    0.0038
    --------------------------------------------
      LOOP:  cpu time   12.2110: real time   12.3491

 eigenvalue-minimisations  :  4440
 total energy-change (2. order) :-0.5447144E-02  (-0.3930800E-02)
 number of electron     303.0000035 magnetization       0.9736409
 augmentation part       13.4017878 magnetization       0.5389540

 Broyden mixing:
  rms(total) = 0.17173E+00    rms(broyden)= 0.17171E+00
  rms(prec ) = 0.17838E+00
  weight for this iteration     100.00

 eigenvalues of (default mixing * dielectric matrix)
  average eigenvalue GAMMA=   1.3689
  3.7051  2.4430  2.0592  0.3539  0.3539  0.9630  0.8247  0.8247  0.7925

 Free energy of the ion-electron system (eV)
  ---------------------------------------------------
  alpha Z        PSCENC =       167.22946921
  Ewald energy   TEWEN  =     30892.73687118
  -Hartree energ DENC   =    -41706.79782578
  -exchange      EXHF   =         0.00000000
  -V(xc)+E(xc)   XCENC  =      1063.95530961
  PAW double counting   =     31862.44443565   -31963.83089568
  entropy T*S    EENTRO =         0.00000000
  eigenvalues    EBANDS =     -3623.86942571
  atomic energy  EATOM  =     12644.75315347
  Solvation  Ediel_sol  =         0.00000000
  ---------------------------------------------------
  free energy    TOTEN  =      -663.37890805 eV

  energy without entropy =     -663.37890805  energy(sigma->0) =     -663.37890805


--------------------------------------------------------------------------------------------------------




--------------------------------------- Iteration      1(  15)  ---------------------------------------


    POTLOK:  cpu time    0.1443: real time    0.1466
    SETDIJ:  cpu time    0.0087: real time    0.0087
     EDDAV:  cpu time   12.7137: real time   12.8114
 BZINTS: Fermi energy: -2.292073;303.000000 electrons
         Band energy:***********;  BLOECHL correction:  0.000000
       DOS:  cpu time    0.0075: real time    0.0075
    CHARGE:  cpu time    0.1612: real time    0.1616
    MIXING:  cpu time    0.0043: real time    0.0043
    --------------------------------------------
      LOOP:  cpu time   13.0397: real time   13.1401

 eigenvalue-minimisations  :  4840
 total energy-change (2. order) : 0.6621499E-03  (-0.5752520E-03)
 number of electron     303.0000035 magnetization       1.0007821
 augmentation part       13.3937221 magnetization       0.5821717

 Broyden mixing:
  rms(total) = 0.13005E+00    rms(broyden)= 0.13005E+00
  rms(prec ) = 0.13586E+00
  weight for this iteration     100.00

 eigenvalues of (default mixing * dielectric matrix)
  average eigenvalue GAMMA=   1.3828
  3.6963  2.7706  1.7220  1.5680  0.3539  0.3539  0.9639  0.8333  0.8333  0.7333

 Free energy of the ion-electron system (eV)
  ---------------------------------------------------
  alpha Z        PSCENC =       167.22946921
  Ewald energy   TEWEN  =     30892.73687118
  -Hartree energ DENC   =    -41706.70450015
  -exchange      EXHF   =         0.00000000
  -V(xc)+E(xc)   XCENC  =      1063.94621386
  PAW double counting   =     31843.73668055   -31945.05857066
  entropy T*S    EENTRO =         0.00000000
  eigenvalues    EBANDS =     -3624.01756337
  atomic energy  EATOM  =     12644.75315347
  Solvation  Ediel_sol  =         0.00000000
  ---------------------------------------------------
  free energy    TOTEN  =      -663.37824590 eV

  energy without entropy =     -663.37824590  energy(sigma->0) =     -663.37824590


--------------------------------------------------------------------------------------------------------




--------------------------------------- Iteration      1(  16)  ---------------------------------------


    POTLOK:  cpu time    0.1455: real time    0.1475
    SETDIJ:  cpu time    0.0103: real time    0.0104
     EDDAV:  cpu time   12.7290: real time   12.8106
 BZINTS: Fermi energy: -2.297074;303.000000 electrons
         Band energy:***********;  BLOECHL correction:  0.000000
       DOS:  cpu time    0.0077: real time    0.0078
    CHARGE:  cpu time    0.1955: real time    0.1995
    MIXING:  cpu time    0.0043: real time    0.0046
    --------------------------------------------
      LOOP:  cpu time   13.0924: real time   13.1804

 eigenvalue-minimisations  :  4960
 total energy-change (2. order) : 0.1178624E-02  (-0.4719883E-03)
 number of electron     303.0000035 magnetization       0.9991471
 augmentation part       13.3804872 magnetization       0.5917147

 Broyden mixing:
  rms(total) = 0.90157E-01    rms(broyden)= 0.90152E-01
  rms(prec ) = 0.92899E-01
  weight for this iteration     100.00

 eigenvalues of (default mixing * dielectric matrix)
  average eigenvalue GAMMA=   1.3984
  3.6862  2.5714  2.0978  2.0978  0.3539  0.3539  0.9027  0.9027  0.9144  0.7511
  0.7511

 Free energy of the ion-electron system (eV)
  ---------------------------------------------------
  alpha Z        PSCENC =       167.22946921
  Ewald energy   TEWEN  =     30892.73687118
  -Hartree energ DENC   =    -41705.58537976
  -exchange      EXHF   =         0.00000000
  -V(xc)+E(xc)   XCENC  =      1063.91627711
  PAW double counting   =     31857.68084102   -31958.91943521
  entropy T*S    EENTRO =         0.00000000
  eigenvalues    EBANDS =     -3625.18886430
  atomic energy  EATOM  =     12644.75315347
  Solvation  Ediel_sol  =         0.00000000
  ---------------------------------------------------
  free energy    TOTEN  =      -663.37706728 eV

[...]
   0.150E+02 -.154E+01 0.132E+02   -.153E+02 0.118E+01 -.132E+02   0.296E+00 0.377E+00 -.349E-02   0.171E-01 0.131E-01 -.954E-02
   0.430E+02 0.182E+02 0.134E+02   -.417E+02 -.186E+02 -.131E+02   -.119E+01 0.512E+00 -.281E+00   -.431E-01 -.225E-01 -.447E-01
   0.396E+02 -.134E+02 0.879E+01   -.381E+02 0.127E+02 -.824E+01   -.142E+01 0.655E+00 -.517E+00   -.595E-01 0.439E-01 -.469E-01
   -.570E+02 0.161E+02 0.627E+02   0.571E+02 -.167E+02 -.646E+02   -.202E+00 0.735E+00 0.194E+01   0.669E-01 -.665E-01 -.643E-01
   -.547E+02 -.198E+02 0.681E+02   0.545E+02 0.208E+02 -.695E+02   0.808E-01 -.978E+00 0.149E+01   0.846E-01 0.329E-01 -.734E-01
   -.167E+02 0.152E+01 0.376E+01   0.167E+02 -.153E+01 -.360E+01   -.178E-02 0.186E-01 -.159E+00   -.145E-01 -.196E-03 -.167E-01
   -.159E+02 -.320E+01 0.363E+01   0.159E+02 0.320E+01 -.340E+01   0.459E-01 0.237E-02 -.237E+00   -.939E-02 -.555E-02 -.166E-01
   -.636E+01 -.399E+01 0.970E+01   0.632E+01 0.398E+01 -.973E+01   0.553E-01 0.214E-01 0.536E-01   -.629E-02 0.240E-03 -.789E-02
   -.370E+01 -.523E+01 0.104E+02   0.357E+01 0.523E+01 -.103E+02   0.153E+00 -.114E-01 -.193E-01   0.323E-02 -.506E-02 -.662E-02
   0.101E+02 -.211E+01 0.130E+02   -.103E+02 0.190E+01 -.131E+02   0.112E+00 0.196E+00 0.522E-01   0.163E-01 0.140E-01 -.598E-02
   0.749E+01 -.557E+01 0.114E+02   -.799E+01 0.526E+01 -.114E+02   0.476E+00 0.325E+00 -.356E-01   0.193E-01 0.416E-02 -.524E-02
   0.296E+02 -.345E+01 0.146E+02   -.293E+02 0.172E+01 -.148E+02   -.357E+00 0.168E+01 0.206E+00   0.105E-01 0.171E-01 -.159E-01
   0.355E+02 -.208E+01 0.107E+02   -.406E+02 -.108E+01 -.107E+02   0.509E+01 0.316E+01 0.634E-01   0.120E-01 0.751E-02 -.107E-01
   0.743E+01 -.429E+02 -.102E+02   0.547E-01 0.369E+02 0.126E+02   -.731E+01 0.578E+01 -.223E+01   -.173E+00 0.170E+00 -.964E-01
   -.132E+02 -.205E+02 0.342E+01   0.185E+02 0.157E+02 -.298E+01   -.530E+01 0.485E+01 -.422E+00   -.393E-01 0.290E-01 -.315E-01
   -.219E+00 -.574E+02 0.148E+03   -.729E+01 0.537E+02 -.149E+03   0.736E+01 0.350E+01 0.146E+01   0.136E+00 0.173E+00 -.149E+00
   -.684E+01 -.379E+02 0.574E+02   0.692E+01 0.369E+02 -.575E+02   -.946E-01 0.103E+01 0.110E+00   0.590E-02 0.195E-01 -.421E-01
   -.263E+02 -.123E+02 0.127E+02   0.262E+02 0.123E+02 -.124E+02   0.898E-01 0.640E-01 -.323E+00   -.272E-03 -.829E-02 -.286E-01
   -.134E+02 -.162E+02 0.212E+02   0.132E+02 0.162E+02 -.213E+02   0.176E+00 -.203E-01 0.107E+00   -.555E-02 -.103E-01 -.158E-01
   -.634E+01 -.488E+01 0.129E+02   0.626E+01 0.495E+01 -.129E+02   0.891E-01 -.401E-01 0.548E-02   0.801E-05 -.931E-02 -.812E-02
   -.253E+01 -.375E+01 0.118E+02   0.249E+01 0.378E+01 -.118E+02   0.279E-01 -.244E-01 0.112E-01   0.461E-02 -.221E-02 -.660E-02
   0.171E+01 -.660E+00 0.115E+02   -.190E+01 0.682E+00 -.115E+02   0.134E+00 -.209E-01 0.371E-01   0.145E-01 0.906E-03 -.497E-02
   0.237E+01 -.200E+00 0.111E+02   -.256E+01 0.233E+00 -.111E+02   0.202E+00 -.427E-01 0.797E-03   0.140E-01 0.579E-02 -.521E-02
   0.161E+02 -.313E+01 0.117E+02   -.173E+02 0.347E+01 -.117E+02   0.118E+01 -.287E+00 0.653E-01   0.204E-01 -.518E-02 -.596E-02
   0.101E+02 -.763E+01 0.117E+02   -.107E+02 0.801E+01 -.118E+02   0.709E+00 -.374E+00 0.526E-01   0.898E-02 -.733E-02 -.539E-02
   0.249E+01 -.188E+02 0.120E+02   -.342E+00 0.176E+02 -.121E+02   -.210E+01 0.118E+01 0.110E+00   -.279E-03 -.214E-03 -.174E-01
   0.338E+01 -.354E+02 0.105E+02   -.319E+01 0.413E+02 -.107E+02   -.183E+00 -.590E+01 0.176E+00   0.138E-02 -.211E-01 -.783E-02
   -.519E+01 -.200E+02 0.225E+02   0.624E+01 0.195E+02 -.225E+02   -.101E+01 0.423E+00 -.471E-01   -.269E-01 0.186E-01 -.258E-01
   -.709E+01 -.195E+02 0.152E+02   0.775E+01 0.194E+02 -.152E+02   -.683E+00 0.180E+00 0.322E-01   -.200E-01 -.139E-01 -.115E-01
   -.808E+01 -.163E+02 0.327E+02   0.772E+01 0.161E+02 -.328E+02   0.348E+00 0.176E+00 0.102E+00   -.630E-02 -.826E-02 -.179E-01
   -.619E+01 -.120E+02 0.185E+02   0.629E+01 0.119E+02 -.185E+02   -.867E-01 0.870E-01 0.128E-01   -.104E-01 -.104E-01 -.975E-02
   -.443E+02 -.747E+02 -.284E+03   0.349E+02 0.727E+02 0.278E+03   0.949E+01 0.208E+01 0.648E+01   0.275E-01 -.647E-01 -.474E+00
   -.234E+02 -.777E+01 -.266E+03   0.276E+02 0.118E+02 0.248E+03   -.425E+01 -.396E+01 0.183E+02   -.680E-01 -.606E-01 0.209E+00
   0.483E+02 0.540E+02 -.682E+03   -.601E+02 -.650E+02 0.738E+03   0.119E+02 0.110E+02 -.564E+02   -.365E-01 -.274E-01 0.959E-01
 -----------------------------------------------------------------------------------------------
   -.138E+02 -.106E+02 0.329E+02   -.568E-13 0.426E-12 0.682E-12   0.139E+02 0.107E+02 -.312E+02   -.690E-01 -.137E+00 -.167E+01
 
 
 POSITION                                       TOTAL-FORCE (eV/Angst)
 -----------------------------------------------------------------------------------
      0.01011      0.01218      7.35399         0.005221     -0.011873      0.001726
      0.01144      1.43602      7.38176        -0.004663     -0.008439      0.005285
      2.48744      0.02068      7.37226        -0.030777     -0.002921     -0.001667
      2.48558      1.44345      7.40537         0.025627      0.019236      0.001222
      4.96106      0.01381      7.37070        -0.043679      0.018983     -0.000281
      4.95949      1.43644      7.37939         0.036472     -0.004469     -0.004267
      0.01389     12.73833      7.38676        -0.029893      0.024640      0.003863
      7.44584      1.40294      7.37919        -0.000959      0.009661      0.007780
      2.47954     12.72457      7.39168         0.043513     -0.020524      0.008614
      9.91017      1.39039      7.37614        -0.003987     -0.008239      0.007001
      4.95615     12.74145      7.34279         0.041773     -0.010653     -0.003673
     12.38685      1.40052      7.35831        -0.011584     -0.011705      0.003193
     -1.23534      2.12787      7.37960         0.023210     -0.011541      0.003594
     -1.23523      3.54849      7.41015         0.017658     -0.010446      0.011739
      1.25119      2.15691      7.41934         0.000047      0.017413     -0.000487
      1.25455      3.58616      7.48423         0.006917      0.023090     -0.006927
      3.72263      2.15961      7.41242        -0.034447     -0.035118      0.006192
      3.71954      3.58218      7.46120        -0.022956      0.027856      0.005467
      6.20598      2.12294      7.37633         0.021807      0.020359     -0.012357
      6.20573      3.54528      7.36861         0.029140      0.003201     -0.008136
      8.68031      2.10706      7.37863        -0.005675      0.021769     -0.005378
      8.68233      3.53113      7.38316         0.018262     -0.028582     -0.013234
     11.14840      2.10494      7.36812        -0.013486     -0.007134      0.004402
     11.15180      3.52895      7.37564        -0.017426     -0.012186      0.014876
     -2.47402      4.25349      7.39162         0.009592     -0.030615      0.014473
     -2.47712      5.67610      7.39997        -0.002453      0.001801      0.010064
     -0.00211      4.26154      7.47189        -0.004497      0.000592      0.005105
     -0.01650      5.67966      7.50410        -0.011126     -0.010308      0.003428
      2.49318      4.32892      7.55847         0.018656     -0.021673     -0.004951
      2.47711      5.76015      7.71413        -0.017058      0.031740     -0.010303
      4.96793      4.27125      7.38552        -0.000627     -0.028666      0.011602
      4.99412      5.67639      7.38654        -0.007589     -0.012026     -0.057049
      7.45011      4.24295      7.38673        -0.034761      0.026249      0.003761
      7.46373      5.66407      7.40844         0.009493     -0.023321      0.005667
      9.91777      4.24035      7.38290        -0.011871     -0.013844     -0.001129
      9.92003      5.66304      7.38820         0.032952      0.006529      0.001495
     -3.70780      6.38588      7.38544        -0.011664      0.004840      0.004237
     -3.70892      7.80700      7.37950         0.019543     -0.001325      0.010497
     -1.24903      6.39085      7.44175         0.020782     -0.011136      0.002613
     -1.25040      7.81141      7.43500         0.029458      0.022016     -0.003425
      1.20004      6.38904      7.61567         0.024073      0.000066     -0.014222
      1.19710      7.80562      7.60899         0.018647     -0.004944     -0.004661
      6.23362      6.37052      7.35641        -0.034072      0.010899     -0.001751
      6.23083      7.81027      7.31676        -0.011385      0.000575      0.006249
      8.69341      6.37589      7.40510        -0.022378      0.006007     -0.011464
      8.69246      7.79906      7.39474        -0.001225      0.000573     -0.020008
     -4.93838      8.51981      7.37350         0.008532      0.007102      0.012261
     -4.94099      9.94197      7.36028         0.031714     -0.016160     -0.000102
     -2.47641      8.51740      7.39133        -0.011694      0.002766      0.000637
     -2.46533      9.93557      7.38146        -0.008943      0.013570      0.004601
     -0.00935      8.52160      7.48407        -0.018931     -0.028755      0.004072
      0.00991      9.93581      7.44556         0.018312      0.006626      0.006702
      2.45688      8.45327      7.71079         0.012520     -0.041646      0.027727
      2.47590      9.86048      7.52890        -0.011290      0.033409     -0.013343
      4.98728      8.49264      7.25278        -0.026523     -0.023197     -0.051887
      4.95309      9.89470      7.29982        -0.013230      0.058706      0.007289
      7.46379      8.51227      7.37030        -0.003114      0.019867     -0.004661
      7.44403      9.93088      7.33269         0.004337     -0.015285     -0.006078
     -6.17785     10.65188      7.34695         0.009031      0.025047     -0.008294
     -6.17976     12.07179      7.35431        -0.006772      0.002942     -0.001635
     -3.70115     10.64963      7.36371        -0.038347      0.003109      0.007795
     -3.70721     12.07001      7.36592         0.021963     -0.003386      0.008038
     -1.22349     10.64443      7.39691        -0.022885      0.044769      0.008951
     -1.23643     12.06092      7.38001         0.044364      0.000749      0.018023
      1.24471     10.60749      7.45490         0.050401     -0.021199     -0.015256
      1.24763     12.01720      7.40671         0.017447     -0.034044      0.003713
      3.70583     10.60191      7.40089         0.009511      0.009677     -0.009673
      3.72127     12.01620      7.37387        -0.046366      0.021684      0.011202
      6.19682     10.62583      7.30557        -0.014174     -0.008290     -0.001906
      6.20059     12.04586      7.33104         0.000789     -0.001879      0.002360
      3.95989      7.10363      8.11202         0.041345      0.021863      0.085927
      3.52897      6.65149      9.91096        -0.092232     -0.010823     -0.046660
      3.29234      6.43254     11.03113        -0.018369     -0.023630     -0.028576
 -----------------------------------------------------------------------------------
    total drift:                                0.020645      0.005508      0.031554


--------------------------------------------------------------------------------------------------------



  FREE ENERGIE OF THE ION-ELECTRON SYSTEM (eV)
  ---------------------------------------------------
  free  energy   TOTEN  =      -669.94574478 eV

  energy  without entropy=     -669.94574478  energy(sigma->0) =     -669.94574478
 


--------------------------------------------------------------------------------------------------------


    POTLOK:  cpu time    0.1416: real time    0.1423


--------------------------------------------------------------------------------------------------------


 stress matrix after NEB project (eV)
    -10.33791      0.44335     -0.18887
      0.44335     -1.34742     -0.07643
     -0.18887     -0.07643     -3.30099
  FORCES: max atom, RMS     0.103928    0.036178
  FORCE total and by dimension    0.309106    0.092232
  Stress total and by dimension   10.957212   10.337906
     LOOP+:  cpu time  243.5255: real time  246.2998
    4ORBIT:  cpu time    0.0000: real time    0.0000
 


 total charge     
 
# of ion       s       p       d       tot
------------------------------------------
    1        0.863   1.781   0.000   2.644
    2        0.864   1.776   0.000   2.640
    3        0.864   1.785   0.000   2.649
    4        0.865   1.780   0.000   2.645
    5        0.864   1.789   0.000   2.653
    6        0.864   1.780   0.000   2.645
    7        0.862   1.788   0.000   2.650
    8        0.863   1.780   0.000   2.642
    9        0.861   1.790   0.000   2.651
   10        0.863   1.779   0.000   2.642
   11        0.862   1.786   0.000   2.648
   12        0.865   1.781   0.000   2.646
   13        0.864   1.786   0.000   2.650
   14        0.866   1.784   0.000   2.649
   15        0.862   1.776   0.000   2.638
   16        0.862   1.760   0.000   2.623
   17        0.863   1.778   0.000   2.641
   18        0.866   1.768   0.000   2.634
   19        0.864   1.784   0.000   2.647
   20        0.865   1.775   0.000   2.640
   21        0.865   1.791   0.000   2.656
   22        0.865   1.787   0.000   2.652
   23        0.863   1.786   0.000   2.649
   24        0.865   1.784   0.000   2.649
   25        0.864   1.790   0.000   2.653
   26        0.867   1.790   0.000   2.657
   27        0.865   1.792   0.000   2.656
   28        0.870   1.792   0.000   2.663
   29        0.857   1.747   0.000   2.604
   30        0.869   1.623   0.000   2.493
   31        0.866   1.781   0.000   2.647
   32        0.883   1.694   0.000   2.576
   33        0.866   1.787   0.000   2.653
   34        0.868   1.792   0.000   2.660
   35        0.865   1.788   0.000   2.653
   36        0.867   1.791   0.000   2.658
   37        0.867   1.792   0.000   2.659
   38        0.866   1.792   0.000   2.658
   39        0.866   1.792   0.000   2.658
   40        0.866   1.790   0.000   2.656
   41        0.874   1.796   0.000   2.670
   42        0.878   1.787   0.000   2.665
   43        0.868   1.775   0.000   2.643
   44        0.869   1.770   0.000   2.639
   45        0.867   1.793   0.000   2.660
   46        0.867   1.792   0.000   2.659
   47        0.867   1.793   0.000   2.660
   48        0.865   1.784   0.000   2.648
   49        0.867   1.798   0.000   2.665
   50        0.863   1.786   0.000   2.649
   51        0.868   1.803   0.000   2.671
   52        0.855   1.757   0.000   2.611
   53        0.870   1.662   0.000   2.532
   54        0.851   1.704   0.000   2.555
   55        0.879   1.707   0.000   2.586
   56        0.863   1.767   0.000   2.630
   57        0.869   1.794   0.000   2.663
   58        0.866   1.784   0.000   2.649
   59        0.865   1.787   0.000   2.652
   60        0.865   1.786   0.000   2.652
   61        0.864   1.785   0.000   2.649
   62        0.865   1.785   0.000   2.650
   63        0.863   1.794   0.000   2.657
   64        0.867   1.788   0.000   2.655
   65        1.210   2.679   0.000   3.889
   66        0.852   1.744   0.000   2.596
   67        0.861   1.778   0.000   2.639
   68        0.865   1.777   0.000   2.642
   69        0.863   1.773   0.000   2.636
   70        0.865   1.780   0.000   2.645
   71        0.408   6.458   4.332  11.197
   72        0.982   1.542   0.000   2.524
   73        1.626   3.528   0.000   5.154
--------------------------------------------------
tot         63.925 136.722   4.332 204.978
 


 magnetization (x)
 
# of ion       s       p       d       tot
------------------------------------------
    1        0.000   0.004   0.000   0.004
    2       -0.000  -0.004   0.000  -0.004
    3        0.000   0.005   0.000   0.006
    4       -0.000  -0.005   0.000  -0.006
    5        0.000   0.003   0.000   0.003
    6       -0.000  -0.007   0.000  -0.008
    7        0.000   0.004   0.000   0.005
    8       -0.000  -0.004   0.000  -0.004
    9        0.000   0.006   0.000   0.006
   10       -0.000  -0.004   0.000  -0.004
   11        0.000   0.006   0.000   0.007
   12       -0.000  -0.006   0.000  -0.006
   13        0.000   0.007   0.000   0.007
   14       -0.000  -0.005   0.000  -0.005
   15        0.000   0.004   0.000   0.004
   16       -0.001  -0.007   0.000  -0.007
   17        0.001   0.007   0.000   0.007
   18       -0.001  -0.014   0.000  -0.015
   19        0.000   0.006   0.000   0.006
   20       -0.001  -0.006   0.000  -0.007
   21        0.000   0.004   0.000   0.004
   22       -0.001  -0.007   0.000  -0.007
   23        0.001   0.008   0.000   0.008
   24       -0.000  -0.004   0.000  -0.004
   25        0.000   0.003   0.000   0.003
   26       -0.000  -0.005   0.000  -0.005
   27        0.000   0.005   0.000   0.006
   28       -0.000  -0.004   0.000  -0.005
   29        0.001   0.012   0.000   0.013
   30       -0.006  -0.035   0.000  -0.042
   31        0.002   0.017   0.000   0.019
   32       -0.008  -0.048   0.000  -0.056
   33        0.001   0.012   0.000   0.013
   34       -0.001  -0.006   0.000  -0.007
   35        0.000   0.007   0.000   0.008
   36       -0.000  -0.004   0.000  -0.004
   37        0.000   0.004   0.000   0.004
   38       -0.000  -0.003   0.000  -0.004
   39        0.000   0.004   0.000   0.005
   40       -0.000  -0.006   0.000  -0.006
   41        0.002   0.007   0.000   0.009
   42        0.000  -0.009   0.000  -0.009
   43        0.002   0.018   0.000   0.020
   44        0.000  -0.008   0.000  -0.007
   45        0.000   0.002   0.000   0.003
   46       -0.000  -0.007   0.000  -0.008
   47        0.000   0.006   0.000   0.006
   48       -0.000  -0.006   0.000  -0.006
   49        0.000   0.003   0.000   0.003
   50       -0.001  -0.008   0.000  -0.009
   51        0.000   0.003   0.000   0.003
   52       -0.000  -0.005   0.000  -0.005
   53       -0.005  -0.013   0.000  -0.018
   54       -0.000   0.004   0.000   0.004
   55       -0.002   0.002   0.000   0.000
   56        0.000  -0.001   0.000  -0.001
   57        0.001   0.005   0.000   0.006
   58       -0.000  -0.002   0.000  -0.003
   59        0.000   0.003   0.000   0.003
   60       -0.000  -0.004   0.000  -0.004
   61        0.000   0.004   0.000   0.005
   62       -0.000  -0.005   0.000  -0.006
   63        0.000   0.005   0.000   0.005
   64       -0.000  -0.004   0.000  -0.004
   65       -0.000   0.001   0.000   0.000
   66       -0.000  -0.006   0.000  -0.006
   67        0.001   0.010   0.000   0.010
   68       -0.000  -0.003   0.000  -0.003
   69        0.000   0.006   0.000   0.007
   70       -0.000  -0.003   0.000  -0.003
   71        0.009   0.014   0.909   0.933
   72       -0.003   0.012   0.000   0.009
   73        0.001   0.037   0.000   0.038
--------------------------------------------------
tot         -0.008   0.004   0.909   0.904
 
 BZINTS: Fermi energy: -2.292073;303.000000 electrons
         Band energy:***********;  BLOECHL correction:  0.000000

 total amount of memory used by VASP MPI-rank0   116305. kBytes
=======================================================================

   base      :      30000. kBytes
   nonl-proj :      27396. kBytes
   fftplans  :       4700. kBytes
   grid      :      15193. kBytes
   one-center:        217. kBytes
   wavefun   :      38799. kBytes
 
  
  
 General timing and accounting informations for this job:
 ========================================================
  
                  Total CPU time used (sec):      261.937
                            User time (sec):      252.558
                          System time (sec):        9.379
                         Elapsed time (sec):      273.519
  
                   Maximum memory used (kb):      471324.
                   Average memory used (kb):           0.
  
                          Minor page faults:      1319487
                          Major page faults:            0
                 Voluntary context switches:         9670
