       N       E                     dE             d eps       ncg     rms          rms(c)
DAV:   1     0.253019730649E+04    0.25302E+04   -0.11180E+05  4360   0.107E+03
DAV:   2    -0.239392302762E+03   -0.27696E+04   -0.26443E+04  5512   0.279E+02
DAV:   3    -0.702559789296E+03   -0.46317E+03   -0.45963E+03  4592   0.120E+02
DAV:   4    -0.719279157458E+03   -0.16719E+02   -0.16575E+02  4624   0.281E+01
DAV:   5    -0.719826540100E+03   -0.54738E+00   -0.54604E+00  5248   0.430E+00    0.477E+01
DAV:   6    -0.719993951338E+03   -0.16741E+00   -0.90397E+01  4872   0.275E+01    0.747E+01
DAV:   7    -0.673436286614E+03    0.46558E+02   -0.62805E+01  4944   0.537E+01    0.268E+01
DAV:   8    -0.670210047819E+03    0.32262E+01   -0.38564E+01  4888   0.137E+01    0.266E+01
DAV:   9    -0.664534137809E+03    0.56759E+01   -0.25674E+01  4600   0.139E+01    0.208E+01
DAV:  10    -0.662179890113E+03    0.23542E+01   -0.20569E+01  5208   0.133E+01    0.114E+01
DAV:  11    -0.661554464910E+03    0.62543E+00   -0.15905E+00  5272   0.305E+00    0.693E+00
DAV:  12    -0.661893227003E+03   -0.33876E+00   -0.58062E-01  4752   0.187E+00    0.663E+00
DAV:  13    -0.661990277535E+03   -0.97051E-01   -0.64300E-01  4928   0.149E+00    0.411E+00
DAV:  14    -0.662044174362E+03   -0.53897E-01   -0.67206E-02  4488   0.618E-01    0.394E+00
DAV:  15    -0.662056996600E+03   -0.12822E-01   -0.17890E-01  4704   0.715E-01    0.286E+00
DAV:  16    -0.662043191105E+03    0.13805E-01   -0.20254E-02  4488   0.345E-01    0.222E+00
DAV:  17    -0.662025524810E+03    0.17666E-01   -0.11682E-02  5288   0.290E-01    0.177E+00
DAV:  18    -0.662012927614E+03    0.12597E-01   -0.70540E-03  5136   0.232E-01    0.135E+00
DAV:  19    -0.662002348837E+03    0.10579E-01   -0.99093E-03  5048   0.270E-01    0.822E-01
DAV:  20    -0.661999396467E+03    0.29524E-02   -0.26258E-03  4904   0.137E-01    0.527E-01
DAV:  21    -0.661997686794E+03    0.17097E-02   -0.12928E-03  3728   0.115E-01    0.271E-01
DAV:  22    -0.661997903923E+03   -0.21713E-03   -0.10475E-03  4072   0.915E-02    0.987E-02
DAV:  23    -0.661997922012E+03   -0.18089E-04   -0.19083E-04  2984   0.350E-02
   1 F= -.66842402E+03 E0= -.66842402E+03  d E =0.000000E+00  mag=    -1.0000
