 vasp.5.4.4.18Apr17-6-g9f103f2a35 (build Jan 14 2022 15:04:31) complex          
  
 executed on             LinuxIFC date 2023.01.23  17:52:24
 running on   48 total cores
 distrk:  each k-point on   48 cores,    1 groups
 distr:  one band on NCORES_PER_BAND=  12 cores,    4 groups


--------------------------------------------------------------------------------------------------------


 INCAR:
 POTCAR:    PAW_PBE C 08Apr2002                   
 POTCAR:    PAW_PBE N 08Apr2002                   
 POTCAR:    PAW_PBE C 08Apr2002                   
 POTCAR:    PAW_PBE Cr_pv 02Aug2007               
 POTCAR:    PAW_PBE C 08Apr2002                   
   SHA256 =  253f7b50bb8d59471dbedb8285d89021f4a42ed1a2c5d38a03a736e69125dd95 C/
   COPYR  = (c) Copyright 08Apr2002 Georg Kresse                                
   COPYR  = This file is part of the software VASP. Any use, copying, and all ot
   COPYR  = If you do not have a valid VASP license, you may not use, copy or di
   VRHFIN =C: s2p2                                                              
   LEXCH  = PE                                                                  
   EATOM  =   147.1560 eV,   10.8157 Ry                                         
                                                                                
   TITEL  = PAW_PBE C 08Apr2002                                                 
   LULTRA =        F    use ultrasoft PP ?                                      
   IUNSCR =        1    unscreen: 0-lin 1-nonlin 2-no                           
   RPACOR =    1.200    partial core radius                                     
   POMASS =   12.011; ZVAL   =    4.000    mass and valenz                      
   RCORE  =    1.500    outmost cutoff radius                                   
   RWIGS  =    1.630; RWIGS  =    0.863    wigner-seitz radius (au A)           
   ENMAX  =  400.000; ENMIN  =  300.000 eV                                      
   ICORE  =        2    local potential                                         
   LCOR   =        T    correct aug charges                                     
   LPAW   =        T    paw PP                                                  
   EAUG   =  644.873                                                            
   DEXC   =    0.000                                                            
   RMAX   =    1.529    core radius for proj-oper                               
   RAUG   =    1.300    factor for augmentation sphere                          
   RDEP   =    1.501    radius for radial grids                                 
   RDEPT  =    1.300    core radius for aug-charge                              
                                                                                
   Atomic configuration                                                         
    4 entries                                                                   
     n  l   j            E        occ.                                          
     1  0  0.50      -273.3789   2.0000                                         
     2  0  0.50       -13.7508   2.0000                                         
     2  1  0.50        -5.2854   2.0000                                         
     3  2  1.50        -5.4423   0.0000                                         
   Description                                                                  
     l       E           TYP  RCUT    TYP  RCUT                                 
     0    -13.7508458     23  1.200                                             
     0     -8.2022199     23  1.200                                             
     1     -5.2854383     23  1.500                                             
     1     34.0145650     23  1.500                                             
     2     -5.4423304      7  1.500                                             
  local pseudopotential read in
  partial core-charges read in
  partial kinetic energy density read in
  atomic valenz-charges read in
  non local Contribution for L=           0  read in
    real space projection operators read in
  non local Contribution for L=           0  read in
    real space projection operators read in
  non local Contribution for L=           1  read in
    real space projection operators read in
  non local Contribution for L=           1  read in
    real space projection operators read in
    PAW grid and wavefunctions read in
 
   number of l-projection  operators is LMAX  =           4
   number of lm-projection operators is LMMAX =           8
 
 POTCAR:    PAW_PBE N 08Apr2002                   
   SHA256 =  e053789ff3a61a86a1b75d8a110fcc91f86041011e7b0817c7c99e4e8a6349d7 N/
   COPYR  = (c) Copyright 08Apr2002 Georg Kresse                                
   COPYR  = This file is part of the software VASP. Any use, copying, and all ot
   COPYR  = If you do not have a valid VASP license, you may not use, copy or di
   VRHFIN =N: s2p3                                                              
   LEXCH  = PE                                                                  
   EATOM  =   264.5486 eV,   19.4438 Ry                                         
                                                                                
   TITEL  = PAW_PBE N 08Apr2002                                                 
   LULTRA =        F    use ultrasoft PP ?                                      
   IUNSCR =        1    unscreen: 0-lin 1-nonlin 2-no                           
   RPACOR =    1.200    partial core radius                                     
   POMASS =   14.001; ZVAL   =    5.000    mass and valenz                      
   RCORE  =    1.500    outmost cutoff radius                                   
   RWIGS  =    1.400; RWIGS  =    0.741    wigner-seitz radius (au A)           
   ENMAX  =  400.000; ENMIN  =  300.000 eV                                      
   ICORE  =        2    local potential                                         
   LCOR   =        T    correct aug charges                                     
   LPAW   =        T    paw PP                                                  
   EAUG   =  627.112                                                            
   DEXC   =    0.000                                                            
   RMAX   =    1.529    core radius for proj-oper                               
   RAUG   =    1.300    factor for augmentation sphere                          
   RDEP   =    1.514    radius for radial grids                                 
   RDEPT  =    1.338    core radius for aug-charge                              
                                                                                
   Atomic configuration                                                         
    4 entries                                                                   
     n  l   j            E        occ.                                          
     1  0  0.50      -384.7179   2.0000                                         
     2  0  0.50       -18.5828   2.0000                                         
     2  1  0.50        -7.0898   3.0000                                         
     3  2  1.50        -6.8029   0.0000                                         
   Description                                                                  
     l       E           TYP  RCUT    TYP  RCUT                                 
     0    -18.5828119     23  1.200                                             
     0    -13.5018863     23  1.200                                             
     1     -7.0897853     23  1.500                                             
     1      9.5240782     23  1.500                                             
     2     -6.8029130      7  1.500                                             
  local pseudopotential read in
  partial core-charges read in
  partial kinetic energy density read in
  atomic valenz-charges read in
  non local Contribution for L=           0  read in
    real space projection operators read in
  non local Contribution for L=           0  read in
    real space projection operators read in
  non local Contribution for L=           1  read in
    real space projection operators read in
  non local Contribution for L=           1  read in
    real space projection operators read in
    PAW grid and wavefunctions read in
 
   number of l-projection  operators is LMAX  =           4
   number of lm-projection operators is LMMAX =           8
 
 POTCAR:    PAW_PBE C 08Apr2002                   
   SHA256 =  253f7b50bb8d59471dbedb8285d89021f4a42ed1a2c5d38a03a736e69125dd95 C/
   COPYR  = (c) Copyright 08Apr2002 Georg Kresse                                
   COPYR  = This file is part of the software VASP. Any use, copying, and all ot
   COPYR  = If you do not have a valid VASP license, you may not use, copy or di
   VRHFIN =C: s2p2                                                              
   LEXCH  = PE                                                                  
   EATOM  =   147.1560 eV,   10.8157 Ry                                         
                                                                                
   TITEL  = PAW_PBE C 08Apr2002                                                 
   LULTRA =        F    use ultrasoft PP ?                                      
   IUNSCR =        1    unscreen: 0-lin 1-nonlin 2-no                           
   RPACOR =    1.200    partial core radius                                     
   POMASS =   12.011; ZVAL   =    4.000    mass and valenz                      
   RCORE  =    1.500    outmost cutoff radius                                   
   RWIGS  =    1.630; RWIGS  =    0.863    wigner-seitz radius (au A)           
   ENMAX  =  400.000; ENMIN  =  300.000 eV                                      
   ICORE  =        2    local potential                                         
   LCOR   =        T    correct aug charges                                     
   LPAW   =        T    paw PP                                                  
   EAUG   =  644.873                                                            
   DEXC   =    0.000                                                            
   RMAX   =    1.529    core radius for proj-oper                               
   RAUG   =    1.300    factor for augmentation sphere                          
   RDEP   =    1.501    radius for radial grids                                 
   RDEPT  =    1.300    core radius for aug-charge                              
                                                                                
   Atomic configuration                                                         
    4 entries                                                                   
     n  l   j            E        occ.                                          
     1  0  0.50      -273.3789   2.0000                                         
     2  0  0.50       -13.7508   2.0000                                         
     2  1  0.50        -5.2854   2.0000                                         
     3  2  1.50        -5.4423   0.0000                                         
   Description                                                                  
     l       E           TYP  RCUT    TYP  RCUT                                 
     0    -13.7508458     23  1.200                                             
     0     -8.2022199     23  1.200                                             
     1     -5.2854383     23  1.500                                             
     1     34.0145650     23  1.500                                             
     2     -5.4423304      7  1.500                                             
  local pseudopotential read in
  partial core-charges read in
  partial kinetic energy density read in
  atomic valenz-charges read in
  non local Contribution for L=           0  read in
    real space projection operators read in
  non local Contribution for L=           0  read in
    real space projection operators read in
  non local Contribution for L=           1  read in
    real space projection operators read in
  non local Contribution for L=           1  read in
    real space projection operators read in
    PAW grid and wavefunctions read in
 
   number of l-projection  operators is LMAX  =           4
   number of lm-projection operators is LMMAX =           8
 
 POTCAR:    PAW_PBE Cr_pv 02Aug2007               
   SHA256 =  c9a7df34d3cdbacf1090e328ef39c0b420964e11c23f63548d1ac9dd218cdba0 Cr
   COPYR  = (c) Copyright 02Aug2007 Georg Kresse                                
   COPYR  = This file is part of the software VASP. Any use, copying, and all ot
   COPYR  = If you do not have a valid VASP license, you may not use, copy or di
   VRHFIN =Cr : p6d5s1                                                          
   LEXCH  = PE                                                                  
   EATOM  =  1647.9177 eV,  121.1185 Ry                                         
                                                                                
   TITEL  = PAW_PBE Cr_pv 02Aug2007                                             
   LULTRA =        F    use ultrasoft PP ?                                      
   IUNSCR =        1    unscreen: 0-lin 1-nonlin 2-no                           
   RPACOR =    2.080    partial core radius                                     
   POMASS =   51.996; ZVAL   =   12.000    mass and valenz                      
   RCORE  =    2.300    outmost cutoff radius                                   
   RWIGS  =    2.500; RWIGS  =    1.323    wigner-seitz radius (au A)           
   ENMAX  =  265.681; ENMIN  =  199.261 eV                                      
   ICORE  =        3    local potential                                         
   LCOR   =        T    correct aug charges                                     
   LPAW   =        T    paw PP                                                  
   EAUG   =  519.424                                                            
   DEXC   =    0.000                                                            
   RMAX   =    2.356    core radius for proj-oper                               
   RAUG   =    1.300    factor for augmentation sphere                          
   RDEP   =    2.447    radius for radial grids                                 
   RDEPT  =    1.882    core radius for aug-charge                              
                                                                                
   Atomic configuration                                                         
    8 entries                                                                   
     n  l   j            E        occ.                                          
     1  0  0.50     -5880.4963   2.0000                                         
     2  0  0.50      -667.0865   2.0000                                         
     2  1  1.50      -560.6250   6.0000                                         
     3  0  0.50       -73.9860   2.0000                                         
     3  1  1.50       -45.4378   6.0000                                         
     3  2  2.50        -2.9137   5.0000                                         
     4  0  0.50        -4.0071   1.0000                                         
     4  3  2.50        -1.3606   0.0000                                         
   Description                                                                  
     l       E           TYP  RCUT    TYP  RCUT                                 
     1    -45.4377911     23  2.000                                             
     1      1.3605826     23  2.000                                             
     2     -2.9136672     23  2.300                                             
     2     -4.2742498     23  2.300                                             
     0     -4.0071320     23  2.300                                             
     0      9.4498803     23  2.300                                             
     3      2.7211652     23  2.300                                             
  local pseudopotential read in
  partial core-charges read in
  partial kinetic energy density read in
  atomic valenz-charges read in
  non local Contribution for L=           1  read in
    real space projection operators read in
  non local Contribution for L=           1  read in
    real space projection operators read in
  non local Contribution for L=           2  read in
    real space projection operators read in
  non local Contribution for L=           2  read in
    real space projection operators read in
  non local Contribution for L=           0  read in
    real space projection operators read in
  non local Contribution for L=           0  read in
    real space projection operators read in
    PAW grid and wavefunctions read in
 
   number of l-projection  operators is LMAX  =           6
   number of lm-projection operators is LMMAX =          18
 
 Optimization of the real space projectors (new method)

 maximal supplied QI-value         = 25.13
 optimisation between [QCUT,QGAM] = [ 10.56, 21.36] = [ 31.20,127.80] Ry 
 Optimized for a Real-space Cutoff    1.32 Angstroem

   l    n(q)    QCUT    max X(q) W(low)/X(q) W(high)/X(q)  e(spline) 
   0      8    10.556   115.676    0.17E-03    0.39E-03    0.26E-06
   0      8    10.556    87.132    0.17E-03    0.39E-03    0.26E-06
   1      8    10.556     4.429    0.24E-03    0.31E-03    0.16E-06
   1      8    10.556     2.733    0.17E-03    0.22E-03    0.19E-06
 Optimization of the real space projectors (new method)

 maximal supplied QI-value         = 25.13
 optimisation between [QCUT,QGAM] = [ 10.56, 21.36] = [ 31.20,127.80] Ry 
 Optimized for a Real-space Cutoff    1.40 Angstroem

   l    n(q)    QCUT    max X(q) W(low)/X(q) W(high)/X(q)  e(spline) 
   0      9    10.556    79.467    0.20E-03    0.22E-03    0.30E-06
   0      9    10.556    66.151    0.20E-03    0.22E-03    0.30E-06
   1      8    10.556    12.181    0.10E-03    0.78E-03    0.19E-05
   1      8    10.556     8.434    0.11E-03    0.81E-03    0.19E-05
 Optimization of the real space projectors (new method)

 maximal supplied QI-value         = 25.13
 optimisation between [QCUT,QGAM] = [ 10.56, 21.36] = [ 31.20,127.80] Ry 
 Optimized for a Real-space Cutoff    1.32 Angstroem

   l    n(q)    QCUT    max X(q) W(low)/X(q) W(high)/X(q)  e(spline) 
   0      8    10.556   115.676    0.17E-03    0.39E-03    0.26E-06
   0      8    10.556    87.132    0.17E-03    0.39E-03    0.26E-06
   1      8    10.556     4.429    0.24E-03    0.31E-03    0.16E-06
   1      8    10.556     2.733    0.17E-03    0.22E-03    0.19E-06
 Optimization of the real space projectors (new method)

 maximal supplied QI-value         = 16.25
 optimisation between [QCUT,QGAM] = [ 10.73, 21.45] = [ 32.22,128.87] Ry 
 Optimized for a Real-space Cutoff    1.53 Angstroem

   l    n(q)    QCUT    max X(q) W(low)/X(q) W(high)/X(q)  e(spline) 
   1      9    10.726     3.262    0.64E-04    0.35E-04    0.11E-06
   1      9    10.726     5.741    0.13E-03    0.48E-04    0.19E-06
   2      9    10.726    60.438    0.12E-03    0.29E-04    0.13E-06
   2      9    10.726    55.380    0.12E-03    0.29E-04    0.13E-06
   0     10    10.726    80.273    0.43E-04    0.74E-05    0.81E-07
   0     10    10.726    36.654    0.34E-04    0.61E-05    0.73E-07
  PAW_PBE C 08Apr2002                   :
 energy of atom  1       EATOM= -147.1560
 kinetic energy error for atom=    0.0132 (will be added to EATOM!!)
  PAW_PBE N 08Apr2002                   :
 energy of atom  2       EATOM= -264.5486
 kinetic energy error for atom=    0.0298 (will be added to EATOM!!)
  PAW_PBE C 08Apr2002                   :
 energy of atom  3       EATOM= -147.1560
 kinetic energy error for atom=    0.0132 (will be added to EATOM!!)
  PAW_PBE Cr_pv 02Aug2007               :
 energy of atom  4       EATOM=-1647.9177
 kinetic energy error for atom=    0.0134 (will be added to EATOM!!)
 
 
 POSCAR: POSCAR-clean                            
  positions in direct lattice
  velocities in cartesian coordinates
 exchange correlation table for  LEXCH =        8
   RHO(1)=    0.500       N(1)  =     2000
   RHO(2)=  100.500       N(2)  =     4000

 VTST: version 3.2, (02/03/18)

 CHAIN: initializing optimizer
 
 OPT: Using VASP Conjugate-Gradient optimizer
 CHAIN: Read ICHAIN            0
 
 POSCAR: POSCAR-clean                            
  positions in direct lattice
  velocities in cartesian coordinates
 


--------------------------------------------------------------------------------------------------------


 ion  position               nearest neighbor table
   1  0.000  0.001  0.498-   2 1.42  60 1.42  70 1.43
   2  0.056  0.112  0.498-   1 1.42  13 1.42  15 1.44
   3  0.168  0.003  0.498-   4 1.42  62 1.43  60 1.43
   4  0.224  0.114  0.498-   3 1.42  15 1.42  17 1.43
   5  0.334  0.002  0.498-   6 1.42  62 1.42  64 1.43
   6  0.390  0.114  0.498-  19 1.42   5 1.42  17 1.44
   7  0.500  0.999  0.498-   8 1.42  64 1.42  66 1.44
   8  0.556  0.111  0.498-   7 1.42  21 1.42  19 1.43
   9  0.665  0.997  0.498-  10 1.42  66 1.42  68 1.43
  10  0.721  0.109  0.497-   9 1.42  21 1.43  23 1.43
  11  0.832  0.998  0.498-  70 1.42  12 1.42  68 1.44
  12  0.888  0.109  0.498-  11 1.42  23 1.42  13 1.43
  13  0.999  0.166  0.498-  14 1.42   2 1.42  12 1.43
  14  0.055  0.278  0.498-  25 1.42  13 1.42  27 1.43
  15  0.168  0.169  0.498-  16 1.42   4 1.42   2 1.44
  16  0.224  0.281  0.500-  27 1.42  15 1.42  29 1.44
  17  0.335  0.171  0.500-  18 1.42   4 1.43   6 1.44
  18  0.391  0.283  0.503-  17 1.42  31 1.43  29 1.45
  19  0.501  0.168  0.499-  20 1.42   6 1.42   8 1.43
  20  0.557  0.279  0.500-  19 1.42  33 1.42  31 1.44
  21  0.666  0.165  0.498-  22 1.42   8 1.42  10 1.43
  22  0.722  0.277  0.498-  21 1.42  35 1.42  33 1.42
  23  0.832  0.165  0.498-  24 1.42  12 1.42  10 1.43
  24  0.888  0.276  0.498-  23 1.42  35 1.42  25 1.43
  25  0.999  0.332  0.498-  26 1.42  14 1.42  24 1.43
  26  0.055  0.444  0.498-  25 1.42  39 1.42  37 1.42
  27  0.166  0.334  0.500-  28 1.41  16 1.42  14 1.43
  28  0.220  0.445  0.500-  41 1.38  27 1.41  39 1.42
  29  0.336  0.341  0.505-  30 1.43  16 1.44  18 1.45
  30  0.389  0.452  0.514-  41 1.40  29 1.43  71 2.02
  31  0.502  0.337  0.502-  32 1.41  18 1.43  20 1.44
  32  0.560  0.448  0.507-  31 1.41  43 1.41  71 1.95
  33  0.667  0.333  0.500-  34 1.42  20 1.42  22 1.42
  34  0.725  0.444  0.502-  43 1.41  33 1.42  45 1.42
  35  0.833  0.332  0.498-  24 1.42  36 1.42  22 1.42
  36  0.889  0.444  0.498-  45 1.42  37 1.42  35 1.42
  37  0.000  0.500  0.498-  38 1.42  26 1.42  36 1.42
  38  0.056  0.611  0.498-  47 1.42  49 1.42  37 1.42
  39  0.165  0.500  0.499-  28 1.42  40 1.42  26 1.42
  40  0.220  0.611  0.499-  49 1.41  51 1.42  39 1.42
  41  0.328  0.500  0.505-  28 1.38  30 1.40  42 1.41
  42  0.384  0.610  0.505-  53 1.40  41 1.41  51 1.41
  43  0.670  0.499  0.505-  32 1.41  34 1.41  44 1.43
  44  0.726  0.612  0.505-  55 1.41  57 1.41  43 1.43
  45  0.835  0.500  0.500-  36 1.42  46 1.42  34 1.42
  46  0.891  0.611  0.500-  47 1.42  57 1.42  45 1.42
  47  0.001  0.667  0.498-  46 1.42  38 1.42  48 1.42
  48  0.057  0.779  0.498-  59 1.42  47 1.42  61 1.42
  49  0.166  0.667  0.499-  40 1.41  38 1.42  50 1.42
  50  0.222  0.779  0.498-  49 1.42  63 1.42  61 1.42
  51  0.330  0.666  0.500-  42 1.41  40 1.42  52 1.42
  52  0.388  0.777  0.500-  51 1.42  65 1.42  63 1.43
  53  0.493  0.658  0.512-  42 1.40  54 1.44  71 2.01
  54  0.552  0.771  0.505-  53 1.44  67 1.44  65 1.44
  55  0.668  0.664  0.507-  56 1.41  44 1.41  71 1.96
  56  0.721  0.774  0.502-  55 1.41  67 1.43  69 1.44
  57  0.836  0.668  0.502-  44 1.41  58 1.42  46 1.42
  58  0.890  0.779  0.500-  57 1.42  69 1.42  59 1.43
  59  0.002  0.835  0.498-  60 1.42  48 1.42  58 1.43
  60  0.057  0.946  0.498-  59 1.42   1 1.42   3 1.43
  61  0.168  0.835  0.498-  62 1.42  48 1.42  50 1.42
  62  0.223  0.946  0.498-  61 1.42   5 1.42   3 1.43
  63  0.333  0.834  0.498-  64 1.42  50 1.42  52 1.43
  64  0.389  0.945  0.498-  63 1.42   7 1.42   5 1.43
  65  0.499  0.830  0.500-  52 1.42  66 1.43  54 1.44
  66  0.554  0.942  0.498-   9 1.42  65 1.43   7 1.44
  67  0.664  0.829  0.503-  68 1.42  56 1.43  54 1.44
  68  0.720  0.941  0.499-  67 1.42   9 1.43  11 1.44
  69  0.833  0.832  0.500-  70 1.42  58 1.42  56 1.44
  70  0.889  0.944  0.498-  11 1.42  69 1.42   1 1.43
  71  0.535  0.555  0.555-  32 1.95  55 1.96  53 2.01  30 2.02
 

IMPORTANT INFORMATION: All symmetrisations will be switched off!
NOSYMM: (Re-)initialisation of all symmetry stuff for point group C_1.

 
 
 KPOINTS: K-Points                                

Automatic generation of k-mesh.
Space group operators:
 irot       det(A)        alpha          n_x          n_y          n_z        tau_x        tau_y        tau_z
    1     1.000000     0.000000     1.000000     0.000000     0.000000     0.000000     0.000000     0.000000
 
 Subroutine IBZKPT returns following result:
 ===========================================
 
 Found      4 irreducible k-points:
 
 Following reciprocal coordinates:
            Coordinates               Weight
  0.000000  0.000000  0.000000      1.000000
  0.500000 -0.000000  0.000000      1.000000
 -0.000000  0.500000  0.000000      1.000000
  0.500000  0.500000  0.000000      1.000000
 
 Following cartesian coordinates:
            Coordinates               Weight
  0.000000  0.000000  0.000000      1.000000
  0.033641  0.019620  0.000000      1.000000
 -0.000020  0.039239  0.000000      1.000000
  0.033620  0.058859  0.000000      1.000000
 


--------------------------------------------------------------------------------------------------------




 Dimension of arrays:
   k-points           NKPTS =      4   k-points in BZ     NKDIM =      4   number of bands    NBANDS=    184
   number of dos      NEDOS =    301   number of ions     NIONS =     71
   non local maximal  LDIM  =      6   non local SUM 2l+1 LMDIM =     18
   total plane-waves  NPLWV = ******
   max r-space proj   IRMAX =   6651   max aug-charges    IRDMAX=  15632
   dimension x,y,z NGX =   108 NGY =  108 NGZ =  108
   dimension x,y,z NGXF=   216 NGYF=  216 NGZF=  216
   support grid    NGXF=   216 NGYF=  216 NGZF=  216
   ions per type =              40   1  29   1
   NGX,Y,Z   is equivalent  to a cutoff of  12.08, 12.18, 11.97 a.u.
   NGXF,Y,Z  is equivalent  to a cutoff of  24.17, 24.35, 23.94 a.u.

 SYSTEM =  unknown system                          
 POSCAR =  POSCAR-clean                            

 Startparameter for this run:
   NWRITE =      2    write-flag & timer
   PREC   = accura    normal or accurate (medium, high low for compatibility)
   ISTART =      0    job   : 0-new  1-cont  2-samecut
   ICHARG =      2    charge: 1-file 2-atom 10-const
   ISPIN  =      2    spin polarized calculation?
   LNONCOLLINEAR =      F non collinear calculations
   LSORBIT =      F    spin-orbit coupling
   INIWAV =      1    electr: 0-lowe 1-rand  2-diag
   LASPH  =      F    aspherical Exc in radial PAW
   METAGGA=      F    non-selfconsistent MetaGGA calc.

 Electronic Relaxation 1
   ENCUT  =  440.0 eV  32.34 Ry    5.69 a.u.  25.41 25.22 25.66*2*pi/ulx,y,z
   ENINI  =  440.0     initial cutoff
   ENAUG  =  644.9 eV  augmentation charge cutoff
   NELM   =     50;   NELMIN=  2; NELMDL= -5     # of ELM steps 
   EDIFF  = 0.1E-04   stopping-criterion for ELM
   LREAL  =      T    real-space projection
   NLSPLINE    = F    spline interpolate recip. space projectors
   LCOMPAT=      F    compatible to vasp.4.4
   GGA_COMPAT  = T    GGA compatible to vasp.4.4-vasp.4.6
   LMAXPAW     = -100 max onsite density
   LMAXMIX     =    2 max onsite mixed and CHGCAR
   VOSKOWN=      0    Vosko Wilk Nusair interpolation
   ROPT   =   -0.00025  -0.00025  -0.00025  -0.00025
 Ionic relaxation
   EDIFFG = -.5E-01   stopping-criterion for IOM
   NSW    =    400    number of steps for IOM
   NBLOCK =      1;   KBLOCK =    400    inner block; outer block 
   IBRION =      2    ionic relax: 0-MD 1-quasi-New 2-CG
   NFREE  =      1    steps in history (QN), initial steepest desc. (CG)
   ISIF   =      2    stress and relaxation
   IWAVPR =     11    prediction:  0-non 1-charg 2-wave 3-comb
   ISYM   =      0    0-nonsym 1-usesym 2-fastsym
   LCORR  =      T    Harris-Foulkes like correction to forces

   POTIM  = 0.3000    time-step for ionic-motion
   TEIN   =    0.0    initial temperature
   TEBEG  =    0.0;   TEEND  =   0.0 temperature during run
   SMASS  =  -3.00    Nose mass-parameter (am)
   estimated Nose-frequenzy (Omega)   =  0.10E-29 period in steps =****** mass=  -0.505E-26a.u.
   SCALEE = 1.0000    scale energy and forces
   NPACO  =    256;   APACO  = 16.0  distance and # of slots for P.C.
   PSTRESS=    0.0 pullay stress

  Mass of Ions in am
   POMASS =  12.01 14.00 12.01 52.00
  Ionic Valenz
   ZVAL   =   4.00  5.00  4.00 12.00
  Atomic Wigner-Seitz radii
   RWIGS  =  -1.00 -1.00 -1.00 -1.00
  virtual crystal weights 
   VCA    =   1.00  1.00  1.00  1.00
   NELECT =     293.0000    total number of electrons
   NUPDOWN=      -1.0000    fix difference up-down

 DOS related values:
   EMIN   =  10.00;   EMAX   =-10.00  energy-range for DOS
   EFERMI =   0.00
   ISMEAR =     0;   SIGMA  =   0.10  broadening in eV -4-tet -1-fermi 0-gaus

 Electronic relaxation 2 (details)
   IALGO  =     68    algorithm
   LDIAG  =      T    sub-space diagonalisation (order eigenvalues)
   LSUBROT=      F    optimize rotation matrix (better conditioning)
   TURBO    =      0    0=normal 1=particle mesh
   IRESTART =      0    0=no restart 2=restart with 2 vectors
   NREBOOT  =      0    no. of reboots
   NMIN     =      0    reboot dimension
   EREF     =   0.00    reference energy to select bands
   IMIX   =      4    mixing-type and parameters
     AMIX     =   0.40;   BMIX     =  1.00
     AMIX_MAG =   1.60;   BMIX_MAG =  1.00
     AMIN     =   0.10
     WC   =   100.;   INIMIX=   1;  MIXPRE=   1;  MAXMIX= -45

 Intra band minimization:
   WEIMIN = 0.0010     energy-eigenvalue tresh-hold
   EBREAK =  0.14E-07  absolut break condition
   DEPER  =   0.30     relativ break condition  

   TIME   =   0.40     timestep for ELM

  volume/ion in A,a.u.               =      40.00       269.93
  Fermi-wavevector in a.u.,A,eV,Ry     =   0.767819  1.450967  8.021250  0.589545
  Thomas-Fermi vector in A             =   1.868457
 
 Write flags
   LWAVE        =      F    write WAVECAR
   LDOWNSAMPLE  =      F    k-point downsampling of WAVECAR
   LCHARG       =      F    write CHGCAR
   LVTOT        =      F    write LOCPOT, total local potential
   LVHAR        =      F    write LOCPOT, Hartree potential only
   LELF         =      F    write electronic localiz. function (ELF)
   LORBIT       =      0    0 simple, 1 ext, 2 COOP (PROOUT), +10 PAW based schemes


 Dipole corrections
   LMONO  =      F    monopole corrections only (constant potential shift)
   LDIPOL =      F    correct potential (dipole corrections)
   IDIPOL =      0    1-x, 2-y, 3-z, 4-all directions 
   EPSILON=  1.0000000 bulk dielectric constant

 Exchange correlation treatment:
   GGA     =    --    GGA type
   LEXCH   =     8    internal setting for exchange type
   VOSKOWN=      0    Vosko Wilk Nusair interpolation
   LHFCALC =     F    Hartree Fock is set to
   LHFONE  =     F    Hartree Fock one center treatment
   AEXX    =    0.0000 exact exchange contribution

 Linear response parameters
   LEPSILON=     F    determine dielectric tensor
   LRPA    =     F    only Hartree local field effects (RPA)
   LNABLA  =     F    use nabla operator in PAW spheres
   LVEL    =     F    velocity operator in full k-point grid
   LINTERFAST=   F  fast interpolation
   KINTER  =     0    interpolate to denser k-point grid
   CSHIFT  =0.1000    complex shift for real part using Kramers Kronig
   OMEGAMAX=  -1.0    maximum frequency
   DEG_THRESHOLD= 0.2000000E-02 threshold for treating states as degnerate
   RTIME   =   -0.100 relaxation time in fs
  (WPLASMAI=    0.000 imaginary part of plasma frequency in eV, 0.658/RTIME)
   DFIELD  = 0.0000000 0.0000000 0.0000000 field for delta impulse in time
 
 Orbital magnetization related:
   ORBITALMAG=     F  switch on orbital magnetization
   LCHIMAG   =     F  perturbation theory with respect to B field
   DQ        =  0.001000  dq finite difference perturbation B field
   LLRAUG    =     F  two centre corrections for induced B field



--------------------------------------------------------------------------------------------------------


 conjugate gradient relaxation of ions
 charge density and potential will be updated during run
 spin polarized calculation
 RMM-DIIS sequential band-by-band and
  variant of blocked Davidson during initial phase
 perform sub-space diagonalisation
    before iterative eigenvector-optimisation
 modified Broyden-mixing scheme, WC =      100.0
 initial mixing is a Kerker type mixing with AMIX =  0.4000 and BMIX =      1.0000
 Hartree-type preconditioning will be used
 using additional bands           37
 real space projection scheme for non local part
 use partial core corrections
 calculate Harris-corrections to forces 
   (improved forces if not selfconsistent)
 use gradient corrections 
 use of overlap-Matrix (Vanderbilt PP)
 Gauss-broadening in eV      SIGMA  =   0.10


--------------------------------------------------------------------------------------------------------


  energy-cutoff  :      440.00
  volume of cell :     2839.99
      direct lattice vectors                 reciprocal lattice vectors
    14.858494812  0.007653473  0.000000000     0.067281356  0.039239159  0.000000000
    -7.429247406 12.738546194  0.000000000    -0.000040423  0.078478318  0.000000000
     0.000000000  0.000000000 15.000000000     0.000000000  0.000000000  0.066666667

  length of vectors
    14.858496783 14.746670002 15.000000000     0.077887692  0.078478329  0.066666667


 
 k-points in units of 2pi/SCALE and weight: K-Points                                
   0.00000000  0.00000000  0.00000000       0.250
   0.03364068  0.01961958  0.00000000       0.250
  -0.00002021  0.03923916  0.00000000       0.250
   0.03362047  0.05885874  0.00000000       0.250
 
 k-points in reciprocal lattice and weights: K-Points                                
   0.00000000  0.00000000  0.00000000       0.250
   0.50000000 -0.00000000  0.00000000       0.250
  -0.00000000  0.50000000  0.00000000       0.250
   0.50000000  0.50000000  0.00000000       0.250
 
 position of ions in fractional coordinates (direct lattice) 
   0.00045932  0.00066326  0.49778309
   0.05621984  0.11223478  0.49766556
   0.16816907  0.00252468  0.49753205
   0.22385460  0.11404050  0.49840430
   0.33423069  0.00192036  0.49770002
   0.38995233  0.11359044  0.49839471
   0.49980332  0.99902306  0.49775443
   0.55551549  0.11067786  0.49779375
   0.66534385  0.99718620  0.49840325
   0.72118014  0.10883793  0.49749322
   0.83209646  0.99781961  0.49835086
   0.88788842  0.10944355  0.49772863
   0.99945133  0.16623669  0.49784783
   0.05492571  0.27773676  0.49835790
   0.16805539  0.16925553  0.49825087
   0.22390529  0.28089556  0.50024497
   0.33529306  0.17098019  0.49958394
   0.39094497  0.28267516  0.50281785
   0.50072361  0.16765890  0.49852527
   0.55656995  0.27925950  0.49970602
   0.66638494  0.16521651  0.49751565
   0.72224021  0.27655169  0.49809726
   0.83231299  0.16487738  0.49751934
   0.88795169  0.27626504  0.49766722
   0.99899476  0.33238746  0.49820558
   0.05456714  0.44361676  0.49843517
   0.16631823  0.33409121  0.49959342
   0.22023544  0.44493376  0.50037686
   0.33617773  0.34063447  0.50515439
   0.38905792  0.45220950  0.51383224
   0.50224781  0.33722197  0.50228110
   0.56017974  0.44770318  0.50696597
   0.66748294  0.33280725  0.49982869
   0.72456127  0.44389602  0.50196648
   0.83309817  0.33216087  0.49788205
   0.88938167  0.44379359  0.49840213
   0.00007985  0.49984756  0.49825555
   0.05559558  0.61130816  0.49827626
   0.16515479  0.50012318  0.49916673
   0.22010518  0.61133660  0.49933561
   0.32786374  0.49950504  0.50526796
   0.38422182  0.60978803  0.50494501
   0.67005144  0.49940495  0.50463989
   0.72628591  0.61189215  0.50489079
   0.83524871  0.49995032  0.50023213
   0.89093225  0.61142855  0.50028996
   0.00119534  0.66746744  0.49835331
   0.05671541  0.77912071  0.49785716
   0.16616226  0.66741329  0.49862077
   0.22243698  0.77889673  0.49824570
   0.33041125  0.66570296  0.50037762
   0.38788128  0.77702707  0.49970643
   0.49296684  0.65793836  0.51190699
   0.55179838  0.77053625  0.50486233
   0.66834264  0.66381077  0.50720795
   0.72090279  0.77417821  0.50232561
   0.83638437  0.66751945  0.50230928
   0.89046118  0.77852888  0.49998641
   0.00153603  0.83480238  0.49811993
   0.05690638  0.94615824  0.49753561
   0.16758722  0.83503998  0.49761681
   0.22329685  0.94648194  0.49752111
   0.33317526  0.83362446  0.49842859
   0.38896069  0.94511302  0.49784120
   0.49860153  0.82975140  0.50047523
   0.55448903  0.94186465  0.49845490
   0.66411773  0.82894806  0.50259194
   0.72011072  0.94053676  0.49947487
   0.83308650  0.83203869  0.49974524
   0.88875876  0.94367673  0.49849718
   0.53462002  0.55543176  0.55523585
 
 position of ions in cartesian coordinates  (Angst):
   0.00189719  0.00845252  7.46674641
   0.00152229  1.43013818  7.46498343
   2.47998275  0.03344777  7.46298068
   2.47890730  1.45442345  7.47606456
   4.95189817  0.02702059  7.46550028
   4.95021311  1.44996159  7.47592070
   0.00433561 12.72992665  7.46631644
   7.43187079  1.41412670  7.46690631
   2.47766513 12.70779473  7.47604870
   9.90706750  1.39195659  7.46239831
   4.95065226 12.71713960  7.47526292
  12.37960220  1.40094719  7.46592944
  13.61532887  2.12526302  7.46771748
  -1.24726170  3.53838288  7.47536853
   1.23960893  2.15735555  7.47376298
   1.24005294  3.57991476  7.50367448
   3.71169612  2.18060518  7.49375917
   3.70879003  3.60386271  7.54226781
   6.19441973  2.13956286  7.47787910
   6.19510375  3.56161971  7.49559035
   8.67404284  2.10971830  7.46273469
   8.67683140  3.52839415  7.47145883
  11.14200340  2.10666824  7.46279010
  11.14118423  3.52601083  7.46500826
  12.37416974  4.24177879  7.47308368
  -2.48495311  5.65145018  7.47652755
  -0.01080775  4.25710923  7.49390126
  -0.03315586  5.66949482  7.50565296
   2.46443736  4.34176080  7.57731580
   2.42123873  5.76346929  7.70748353
   4.95734103  4.29956159  7.53421654
   4.99733018  5.70737490  7.60448950
   7.44528441  4.24458904  7.49743032
   7.46807657  5.66013532  7.52949719
   9.91087947  4.23762272  7.46823075
   9.91782065  5.66009196  7.47603196
  -3.71230478  6.36733185  7.47383319
  -3.71549296  7.78760273  7.47414387
  -1.26158729  6.37210625  7.48750098
  -1.27133913  7.78922411  7.49003410
   1.16061512  6.36547727  7.57901941
   1.17869178  7.77075365  7.57417512
   6.24575290  6.36682121  7.56959839
   6.24561732  7.80017504  7.57336181
   8.69628402  6.37503279  7.50348198
   8.69545826  7.79552959  7.50434936
  -4.94101970  8.50257392  7.47529969
  -4.94557497  9.92529928  7.46785737
  -2.48945748  8.50314680  7.47931149
  -2.48153787  9.92371444  7.47368545
  -0.03625808  8.48261666  7.50566425
  -0.00939433  9.90116381  7.49559648
   2.43675841  8.38495109  7.67860480
   2.47438897  9.81973479  7.57293498
   4.99895111  8.46109936  7.60811930
   4.95996884  9.86742232  7.53488409
   7.46824573  8.50962861  7.53463922
   7.44702914  9.92414128  7.49979614
  -6.17913028 10.63418042  7.47179889
  -6.18370055 12.05311602  7.46303422
  -3.71362483 10.63847802  7.46425212
  -3.71379339 12.05851286  7.46281667
  -1.24271941 10.62171358  7.47642884
  -1.24210809 12.04234277  7.46761806
   1.24403984 10.57364261  7.50712849
   1.24152677 12.00223018  7.47682350
   3.70932964 10.56467592  7.53887910
   3.71228119 11.98658228  7.49212311
   6.19699010 10.60533931  7.49617866
   6.19480954 12.02787165  7.47745775
   3.81720884  7.07948482  8.32853782
 


--------------------------------------------------------------------------------------------------------


 k-point  1 :   0.0000 0.0000 0.0000  plane waves:   59517
 k-point  2 :   0.5000-0.0000 0.0000  plane waves:   59502
 k-point  3 :  -0.0000 0.5000 0.0000  plane waves:   59582
 k-point  4 :   0.5000 0.5000 0.0000  plane waves:   59502

 maximum and minimum number of plane-waves per node :      4997     4926

 maximum number of plane-waves:     59582
 maximum index in each direction: 
   IXMAX=   25   IYMAX=   25   IZMAX=   25
   IXMIN=  -25   IYMIN=  -25   IZMIN=  -25


 real space projection operators:
  total allocation   :      18913.77 KBytes
  max/ min on nodes  :       1622.97       1536.48


 parallel 3D FFT for wavefunctions:
    minimum data exchange during FFTs selected (reduces bandwidth)
 parallel 3D FFT for charge:
    minimum data exchange during FFTs selected (reduces bandwidth)


 total amount of memory used by VASP MPI-rank0   111522. kBytes
=======================================================================

   base      :      30000. kBytes
   nonlr-proj:       9884. kBytes
   fftplans  :      10852. kBytes
   grid      :      30996. kBytes
   one-center:        186. kBytes
   wavefun   :      29604. kBytes
 
     INWAV:  cpu time    0.0000: real time    0.0000
 Broyden mixing: mesh for mixing (old mesh)
   NGX = 51   NGY = 51   NGZ = 51
  (NGX  =216   NGY  =216   NGZ  =216)
  gives a total of 132651 points

 initial charge density was supplied:
 charge density of overlapping atoms calculated
 number of electron     293.0000000 magnetization       1.0000000
 keeping initial charge density in first step


--------------------------------------------------------------------------------------------------------


 Maximum index for non-local projection operator          515
 Maximum index for augmentation-charges          329 (set IRDMAX)


--------------------------------------------------------------------------------------------------------


 First call to EWALD:  gamma=   0.125
 Maximum number of real-space cells 3x 3x 3
 Maximum number of reciprocal cells 3x 3x 3

    FEWALD:  cpu time    0.0038: real time    0.0039


--------------------------------------- Iteration      1(   1)  ---------------------------------------


    POTLOK:  cpu time    0.4386: real time    0.4706
    SETDIJ:  cpu time    0.0123: real time    0.0127
     EDDAV:  cpu time   11.4488: real time   11.5776
       DOS:  cpu time    0.0013: real time    0.0013
    --------------------------------------------
      LOOP:  cpu time   11.9010: real time   12.0622

 eigenvalue-minimisations  :  3360
 total energy-change (2. order) : 0.2477102E+04  (-0.1078069E+05)
 number of electron     293.0000000 magnetization       1.0000000
 augmentation part      293.0000000 magnetization       1.0000000

 Free energy of the ion-electron system (eV)
  ---------------------------------------------------
  alpha Z        PSCENC =       157.40482093
  Ewald energy   TEWEN  =     30498.53143616
  -Hartree energ DENC   =    -39659.55526988
  -exchange      EXHF   =         0.00000000
  -V(xc)+E(xc)   XCENC  =       983.09948813
  PAW double counting   =      9000.30529238    -9089.18527416
  entropy T*S    EENTRO =        -0.10210666
  eigenvalues    EBANDS =     -1478.67414095
  atomic energy  EATOM  =     12065.27733323
  Solvation  Ediel_sol  =         0.00000000
  ---------------------------------------------------
  free energy    TOTEN  =      2477.10157918 eV

  energy without entropy =     2477.20368583  energy(sigma->0) =     2477.15263251


--------------------------------------------------------------------------------------------------------




--------------------------------------- Iteration      1(   2)  ---------------------------------------


     EDDAV:  cpu time   14.7121: real time   14.9632
       DOS:  cpu time    0.0009: real time    0.0009
    --------------------------------------------
      LOOP:  cpu time   14.7130: real time   14.9642

 eigenvalue-minimisations  :  4216
 total energy-change (2. order) :-0.2705014E+04  (-0.2583863E+04)
 number of electron     293.0000000 magnetization       1.0000000
 augmentation part      293.0000000 magnetization       1.0000000

 Free energy of the ion-electron system (eV)
  ---------------------------------------------------
  alpha Z        PSCENC =       157.40482093
  Ewald energy   TEWEN  =     30498.53143616
  -Hartree energ DENC   =    -39659.55526988
  -exchange      EXHF   =         0.00000000
  -V(xc)+E(xc)   XCENC  =       983.09948813
  PAW double counting   =      9000.30529238    -9089.18527416
  entropy T*S    EENTRO =        -0.01922705
  eigenvalues    EBANDS =     -4183.77121682
  atomic energy  EATOM  =     12065.27733323
  Solvation  Ediel_sol  =         0.00000000
  ---------------------------------------------------
  free energy    TOTEN  =      -227.91261707 eV

  energy without entropy =     -227.89339003  energy(sigma->0) =     -227.90300355


--------------------------------------------------------------------------------------------------------




--------------------------------------- Iteration      1(   3)  ---------------------------------------


     EDDAV:  cpu time   12.5695: real time   12.7223
       DOS:  cpu time    0.0009: real time    0.0009
    --------------------------------------------
      LOOP:  cpu time   12.5704: real time   12.7232

 eigenvalue-minimisations  :  3552
 total energy-change (2. order) :-0.4589388E+03  (-0.4561382E+03)
 number of electron     293.0000000 magnetization       1.0000000
 augmentation part      293.0000000 magnetization       1.0000000

 Free energy of the ion-electron system (eV)
  ---------------------------------------------------
  alpha Z        PSCENC =       157.40482093
  Ewald energy   TEWEN  =     30498.53143616
  -Hartree energ DENC   =    -39659.55526988
  -exchange      EXHF   =         0.00000000
  -V(xc)+E(xc)   XCENC  =       983.09948813
  PAW double counting   =      9000.30529238    -9089.18527416
  entropy T*S    EENTRO =        -0.01815449
  eigenvalues    EBANDS =     -4642.71113340
  atomic energy  EATOM  =     12065.27733323
  Solvation  Ediel_sol  =         0.00000000
  ---------------------------------------------------
  free energy    TOTEN  =      -686.85146111 eV

  energy without entropy =     -686.83330662  energy(sigma->0) =     -686.84238386


--------------------------------------------------------------------------------------------------------




--------------------------------------- Iteration      1(   4)  ---------------------------------------


     EDDAV:  cpu time   12.8691: real time   13.0536
       DOS:  cpu time    0.0011: real time    0.0011
    --------------------------------------------
      LOOP:  cpu time   12.8702: real time   13.0547

 eigenvalue-minimisations  :  3576
 total energy-change (2. order) :-0.1692503E+02  (-0.1677108E+02)
 number of electron     293.0000000 magnetization       1.0000000
 augmentation part      293.0000000 magnetization       1.0000000

 Free energy of the ion-electron system (eV)
  ---------------------------------------------------
  alpha Z        PSCENC =       157.40482093
  Ewald energy   TEWEN  =     30498.53143616
  -Hartree energ DENC   =    -39659.55526988
  -exchange      EXHF   =         0.00000000
  -V(xc)+E(xc)   XCENC  =       983.09948813
  PAW double counting   =      9000.30529238    -9089.18527416
  entropy T*S    EENTRO =        -0.01980497
  eigenvalues    EBANDS =     -4659.63450793
  atomic energy  EATOM  =     12065.27733323
  Solvation  Ediel_sol  =         0.00000000
  ---------------------------------------------------
  free energy    TOTEN  =      -703.77648611 eV

  energy without entropy =     -703.75668115  energy(sigma->0) =     -703.76658363


--------------------------------------------------------------------------------------------------------




--------------------------------------- Iteration      1(   5)  ---------------------------------------


     EDDAV:  cpu time   14.0171: real time   14.2593
       DOS:  cpu time    0.0010: real time    0.0010
    CHARGE:  cpu time    0.4724: real time    0.4833
    MIXING:  cpu time    0.0072: real time    0.0090
    --------------------------------------------
      LOOP:  cpu time   14.4978: real time   14.7526

 eigenvalue-minimisations  :  4040
 total energy-change (2. order) :-0.5430158E+00  (-0.5411879E+00)
 number of electron     292.9999993 magnetization       0.7708043
 augmentation part       11.6877161 magnetization       0.7737775

 Broyden mixing:
  rms(total) = 0.46818E+01    rms(broyden)= 0.46813E+01
  rms(prec ) = 0.54277E+01
  weight for this iteration     100.00

 Free energy of the ion-electron system (eV)
  ---------------------------------------------------
  alpha Z        PSCENC =       157.40482093
  Ewald energy   TEWEN  =     30498.53143616
  -Hartree energ DENC   =    -39659.55526988
  -exchange      EXHF   =         0.00000000
  -V(xc)+E(xc)   XCENC  =       983.09948813
  PAW double counting   =      9000.30529238    -9089.18527416
  entropy T*S    EENTRO =        -0.01983466
  eigenvalues    EBANDS =     -4660.17749405
  atomic energy  EATOM  =     12065.27733323
  Solvation  Ediel_sol  =         0.00000000
  ---------------------------------------------------
  free energy    TOTEN  =      -704.31950193 eV

  energy without entropy =     -704.29966727  energy(sigma->0) =     -704.30958460


--------------------------------------------------------------------------------------------------------




--------------------------------------- Iteration      1(   6)  ---------------------------------------


    POTLOK:  cpu time    0.4136: real time    0.4236
    SETDIJ:  cpu time    0.0111: real time    0.0131
    EDDIAG:  cpu time    2.0414: real time    2.0723
  RMM-DIIS:  cpu time   11.7166: real time   11.8140
    ORTHCH:  cpu time    0.2300: real time    0.2310
       DOS:  cpu time    0.0011: real time    0.0011
    CHARGE:  cpu time    0.4850: real time    0.4952
    MIXING:  cpu time    0.0081: real time    0.0092
    --------------------------------------------
      LOOP:  cpu time   14.9069: real time   15.0595

 eigenvalue-minimisations  :  4120
 total energy-change (2. order) :-0.2590870E+02  (-0.5121795E+02)
 number of electron     293.0000001 magnetization       0.7148268
 augmentation part       17.3126774 magnetization       0.8847387

 Broyden mixing:
  rms(total) = 0.82070E+01    rms(broyden)= 0.82066E+01
  rms(prec ) = 0.90919E+01
  weight for this iteration     100.00

 eigenvalues of (default mixing * dielectric matrix)
  average eigenvalue GAMMA=   0.2215
  0.2215

 Free energy of the ion-electron system (eV)
  ---------------------------------------------------
  alpha Z        PSCENC =       157.40482093
  Ewald energy   TEWEN  =     30498.53143616
  -Hartree energ DENC   =    -39954.14427176
  -exchange      EXHF   =         0.00000000
  -V(xc)+E(xc)   XCENC  =       996.96317435
  PAW double counting   =     15345.14965644   -15433.88964940
  entropy T*S    EENTRO =        -0.07333384
  eigenvalues    EBANDS =     -4405.44736889
  atomic energy  EATOM  =     12065.27733323
  Solvation  Ediel_sol  =         0.00000000
  ---------------------------------------------------
  free energy    TOTEN  =      -730.22820279 eV

  energy without entropy =     -730.15486895  energy(sigma->0) =     -730.19153587


--------------------------------------------------------------------------------------------------------




--------------------------------------- Iteration      1(   7)  ---------------------------------------


    POTLOK:  cpu time    0.4029: real time    0.4095
    SETDIJ:  cpu time    0.0120: real time    0.0121
    EDDIAG:  cpu time    2.0032: real time    2.0264
  RMM-DIIS:  cpu time    8.6147: real time    8.6819
    ORTHCH:  cpu time    0.3759: real time    0.3933
       DOS:  cpu time    0.0009: real time    0.0009
    CHARGE:  cpu time    0.4502: real time    0.4587
    MIXING:  cpu time    0.0074: real time    0.0079
    --------------------------------------------
      LOOP:  cpu time   11.8672: real time   11.9906

 eigenvalue-minimisations  :  3008
 total energy-change (2. order) : 0.6857915E+02  (-0.5162920E+01)
 number of electron     292.9999999 magnetization       0.6025617
 augmentation part       14.9474706 magnetization       0.6102619

 Broyden mixing:
  rms(total) = 0.29572E+01    rms(broyden)= 0.29568E+01
  rms(prec ) = 0.35032E+01
  weight for this iteration     100.00

 eigenvalues of (default mixing * dielectric matrix)
  average eigenvalue GAMMA=   0.4932
  0.6219  0.3645

 Free energy of the ion-electron system (eV)
  ---------------------------------------------------
  alpha Z        PSCENC =       157.40482093
  Ewald energy   TEWEN  =     30498.53143616
  -Hartree energ DENC   =    -40078.70282890
  -exchange      EXHF   =         0.00000000
  -V(xc)+E(xc)   XCENC  =      1001.63227760
  PAW double counting   =     16995.00202795   -17090.60005487
  entropy T*S    EENTRO =        -0.00006200
  eigenvalues    EBANDS =     -4210.19400239
  atomic energy  EATOM  =     12065.27733323
  Solvation  Ediel_sol  =         0.00000000
  ---------------------------------------------------
  free energy    TOTEN  =      -661.64905229 eV

  energy without entropy =     -661.64899028  energy(sigma->0) =     -661.64902128


--------------------------------------------------------------------------------------------------------




--------------------------------------- Iteration      1(   8)  ---------------------------------------


    POTLOK:  cpu time    0.4383: real time    0.4421
    SETDIJ:  cpu time    0.0120: real time    0.0121
    EDDIAG:  cpu time    2.0900: real time    2.1062
  RMM-DIIS:  cpu time    8.8035: real time    8.8653
    ORTHCH:  cpu time    0.2231: real time    0.2244
       DOS:  cpu time    0.0009: real time    0.0009
    CHARGE:  cpu time    0.4568: real time    0.4638
    MIXING:  cpu time    0.0073: real time    0.0073
    --------------------------------------------
      LOOP:  cpu time   12.0319: real time   12.1221

 eigenvalue-minimisations  :  3093
 total energy-change (2. order) : 0.1869918E+00  (-0.2067870E+01)
 number of electron     292.9999995 magnetization       0.3326466
 augmentation part       11.2748425 magnetization       0.2900624

 Broyden mixing:
  rms(total) = 0.27485E+01    rms(broyden)= 0.27476E+01
  rms(prec ) = 0.33552E+01
  weight for this iteration     100.00

 eigenvalues of (default mixing * dielectric matrix)
  average eigenvalue GAMMA=   0.8846
  1.9618  0.3461  0.3461

 Free energy of the ion-electron system (eV)
  ---------------------------------------------------
  alpha Z        PSCENC =       157.40482093
  Ewald energy   TEWEN  =     30498.53143616
  -Hartree energ DENC   =    -40268.79680211
  -exchange      EXHF   =         0.00000000
  -V(xc)+E(xc)   XCENC  =      1008.73527893
  PAW double counting   =     20271.07156326   -20370.56528639
  entropy T*S    EENTRO =        -0.01754009
  eigenvalues    EBANDS =     -4023.10286444
  atomic energy  EATOM  =     12065.27733323
  Solvation  Ediel_sol  =         0.00000000
  ---------------------------------------------------
  free energy    TOTEN  =      -661.46206052 eV

  energy without entropy =     -661.44452043  energy(sigma->0) =     -661.45329048


--------------------------------------------------------------------------------------------------------




--------------------------------------- Iteration      1(   9)  ---------------------------------------


    POTLOK:  cpu time    0.4019: real time    0.4065
    SETDIJ:  cpu time    0.0121: real time    0.0121
    EDDIAG:  cpu time    2.0420: real time    2.0577
  RMM-DIIS:  cpu time    8.3796: real time    8.4467
    ORTHCH:  cpu time    0.2407: real time    0.2516
       DOS:  cpu time    0.0011: real time    0.0011
    CHARGE:  cpu time    0.4498: real time    0.4573
    MIXING:  cpu time    0.0082: real time    0.0082
    --------------------------------------------
      LOOP:  cpu time   11.5354: real time   11.6411

 eigenvalue-minimisations  :  2979
 total energy-change (2. order) : 0.1371813E+02  (-0.2115272E+01)
 number of electron     292.9999997 magnetization       0.3036342
 augmentation part       12.7358771 magnetization       0.1914062

 Broyden mixing:
  rms(total) = 0.82210E+00    rms(broyden)= 0.82136E+00
  rms(prec ) = 0.85311E+00
  weight for this iteration     100.00

 eigenvalues of (default mixing * dielectric matrix)
  average eigenvalue GAMMA=   0.9710
  2.2481  0.9437  0.3461  0.3461

 Free energy of the ion-electron system (eV)
  ---------------------------------------------------
  alpha Z        PSCENC =       157.40482093
  Ewald energy   TEWEN  =     30498.53143616
  -Hartree energ DENC   =    -40576.41099980
  -exchange      EXHF   =         0.00000000
  -V(xc)+E(xc)   XCENC  =      1021.60829159
  PAW double counting   =     28855.79991198   -28957.96854320
  entropy T*S    EENTRO =        -0.06094974
  eigenvalues    EBANDS =     -3711.92523639
  atomic energy  EATOM  =     12065.27733323
  Solvation  Ediel_sol  =         0.00000000
  ---------------------------------------------------
  free energy    TOTEN  =      -647.74393524 eV

  energy without entropy =     -647.68298550  energy(sigma->0) =     -647.71346037


--------------------------------------------------------------------------------------------------------




--------------------------------------- Iteration      1(  10)  ---------------------------------------


    POTLOK:  cpu time    0.4145: real time    0.4193
    SETDIJ:  cpu time    0.0122: real time    0.0123
    EDDIAG:  cpu time    2.0490: real time    2.0639
  RMM-DIIS:  cpu time    8.7835: real time    8.8476
    ORTHCH:  cpu time    0.2520: real time    0.2629
       DOS:  cpu time    0.0010: real time    0.0010
    CHARGE:  cpu time    0.4853: real time    0.4947
    MIXING:  cpu time    0.0093: real time    0.0093
    --------------------------------------------
      LOOP:  cpu time   12.0068: real time   12.1111

 eigenvalue-minimisations  :  3102
 total energy-change (2. order) : 0.7118172E-01  (-0.1488730E+00)
 number of electron     292.9999998 magnetization       0.4166158
 augmentation part       13.0473107 magnetization       0.0204873

 Broyden mixing:
  rms(total) = 0.88997E+00    rms(broyden)= 0.88950E+00
  rms(prec ) = 0.95556E+00
  weight for this iteration     100.00

 eigenvalues of (default mixing * dielectric matrix)
  average eigenvalue GAMMA=   0.9275
  2.0903  1.4870  0.3427  0.3427  0.3751

 Free energy of the ion-electron system (eV)
  ---------------------------------------------------
  alpha Z        PSCENC =       157.40482093
  Ewald energy   TEWEN  =     30498.53143616
  -Hartree energ DENC   =    -40626.02501124
  -exchange      EXHF   =         0.00000000
  -V(xc)+E(xc)   XCENC  =      1022.36883848
  PAW double counting   =     30363.40665738   -30464.01070975
  entropy T*S    EENTRO =        -0.02401155
  eigenvalues    EBANDS =     -3664.60210716
  atomic energy  EATOM  =     12065.27733323
  Solvation  Ediel_sol  =         0.00000000
  ---------------------------------------------------
  free energy    TOTEN  =      -647.67275351 eV

  energy without entropy =     -647.64874197  energy(sigma->0) =     -647.66074774


--------------------------------------------------------------------------------------------------------




--------------------------------------- Iteration      1(  11)  ---------------------------------------


    POTLOK:  cpu time    0.3892: real time    0.3934
    SETDIJ:  cpu time    0.0121: real time    0.0123
    EDDIAG:  cpu time    2.0175: real time    2.0353
  RMM-DIIS:  cpu time    8.5198: real time    8.5925
    ORTHCH:  cpu time    0.2347: real time    0.2356
       DOS:  cpu time    0.0011: real time    0.0011
    CHARGE:  cpu time    0.4509: real time    0.4576
    MIXING:  cpu time    0.0073: real time    0.0075
    --------------------------------------------
      LOOP:  cpu time   11.6327: real time   11.7353

 eigenvalue-minimisations  :  3017
 total energy-change (2. order) :-0.4077903E-01  (-0.3094010E-01)
 number of electron     292.9999998 magnetization       0.6078772
 augmentation part       12.9463466 magnetization       0.2167954

 Broyden mixing:
  rms(total) = 0.62251E+00    rms(broyden)= 0.62238E+00
  rms(prec ) = 0.66088E+00
  weight for this iteration     100.00

 eigenvalues of (default mixing * dielectric matrix)
  average eigenvalue GAMMA=   1.0440
  2.1766  2.1766  0.3472  0.3472  0.6083  0.6083

 Free energy of the ion-electron system (eV)
  ---------------------------------------------------
  alpha Z        PSCENC =       157.40482093
  Ewald energy   TEWEN  =     30498.53143616
  -Hartree energ DENC   =    -40644.28321540
  -exchange      EXHF   =         0.00000000
  -V(xc)+E(xc)   XCENC  =      1022.16416473
  PAW double counting   =     30736.88282499   -30836.25191672
  entropy T*S    EENTRO =        -0.02215358
  eigenvalues    EBANDS =     -3647.41682688
  atomic energy  EATOM  =     12065.27733323
  Solvation  Ediel_sol  =         0.00000000
  ---------------------------------------------------
  free energy    TOTEN  =      -647.71353254 eV

  energy without entropy =     -647.69137896  energy(sigma->0) =     -647.70245575


--------------------------------------------------------------------------------------------------------




--------------------------------------- Iteration      1(  12)  ---------------------------------------


    POTLOK:  cpu time    0.4399: real time    0.4443
    SETDIJ:  cpu time    0.0120: real time    0.0122
    EDDIAG:  cpu time    1.9638: real time    1.9801
  RMM-DIIS:  cpu time    8.4419: real time    8.5034
    ORTHCH:  cpu time    0.1983: real time    0.2160
       DOS:  cpu time    0.0010: real time    0.0010
    CHARGE:  cpu time    0.4551: real time    0.4619
    MIXING:  cpu time    0.0089: real time    0.0090
    --------------------------------------------
      LOOP:  cpu time   11.5208: real time   11.6278

 eigenvalue-minimisations  :  2978
 total energy-change (2. order) : 0.2046278E+00  (-0.3992955E-01)
 number of electron     292.9999998 magnetization       0.8235276
 augmentation part       12.9575246 magnetization       0.5152236

 Broyden mixing:
  rms(total) = 0.46769E+00    rms(broyden)= 0.46759E+00
  rms(prec ) = 0.50938E+00
  weight for this iteration     100.00

 eigenvalues of (default mixing * dielectric matrix)
  average eigenvalue GAMMA=   1.1132
  2.0410  2.0410  1.3115  1.1511  0.3463  0.3463  0.5553

 Free energy of the ion-electron system (eV)
  ---------------------------------------------------
  alpha Z        PSCENC =       157.40482093
  Ewald energy   TEWEN  =     30498.53143616
  -Hartree energ DENC   =    -40674.73874596
  -exchange      EXHF   =         0.00000000
  -V(xc)+E(xc)   XCENC  =      1022.59946134
  PAW double counting   =     31132.81292748   -31231.44953171
  entropy T*S    EENTRO =        -0.01895497
  eigenvalues    EBANDS =     -3617.92765121
  atomic energy  EATOM  =     12065.27733323
  Solvation  Ediel_sol  =         0.00000000
  ---------------------------------------------------
  free energy    TOTEN  =      -647.50890472 eV

  energy without entropy =     -647.48994975  energy(sigma->0) =     -647.49942723


--------------------------------------------------------------------------------------------------------




--------------------------------------- Iteration      1(  13)  ---------------------------------------


    POTLOK:  cpu time    0.3888: real time    0.3926
    SETDIJ:  cpu time    0.0162: real time    0.0166
    EDDIAG:  cpu time    2.0065: real time    2.0224
  RMM-DIIS:  cpu time    8.2589: real time    8.3231
    ORTHCH:  cpu time    0.2310: real time    0.2316
       DOS:  cpu time    0.0010: real time    0.0010
    CHARGE:  cpu time    0.4523: real time    0.4602
    MIXING:  cpu time    0.0079: real time    0.0079
    --------------------------------------------
      LOOP:  cpu time   11.3626: real time   11.4554

 eigenvalue-minimisations  :  2952
 total energy-change (2. order) :-0.5473945E-01  (-0.1320809E-01)
 number of electron     292.9999997 magnetization       0.9861635
 augmentation part       12.9027530 magnetization       0.7636088

 Broyden mixing:
  rms(total) = 0.31972E+00    rms(broyden)= 0.31964E+00
  rms(prec ) = 0.35698E+00
  weight for this iteration     100.00

 eigenvalues of (default mixing * dielectric matrix)
  average eigenvalue GAMMA=   1.1128
  2.2996  2.2996  1.7159  0.8819  0.3464  0.3464  0.5062  0.5062

 Free energy of the ion-electron system (eV)
  ---------------------------------------------------
  alpha Z        PSCENC =       157.40482093
  Ewald energy   TEWEN  =     30498.53143616
  -Hartree energ DENC   =    -40708.52731001
  -exchange      EXHF   =         0.00000000
  -V(xc)+E(xc)   XCENC  =      1023.18372754
  PAW double counting   =     31204.52015652   -31303.22734343
  entropy T*S    EENTRO =        -0.01808404
  eigenvalues    EBANDS =     -3584.70838108
  atomic energy  EATOM  =     12065.27733323
  Solvation  Ediel_sol  =         0.00000000
  ---------------------------------------------------
  free energy    TOTEN  =      -647.56364416 eV

  energy without entropy =     -647.54556013  energy(sigma->0) =     -647.55460214


--------------------------------------------------------------------------------------------------------




--------------------------------------- Iteration      1(  14)  ---------------------------------------


    POTLOK:  cpu time    0.3924: real time    0.3968
    SETDIJ:  cpu time    0.0121: real time    0.0122
    EDDIAG:  cpu time    1.9952: real time    2.0129
  RMM-DIIS:  cpu time    8.5005: real time    8.5615
    ORTHCH:  cpu time    0.1858: real time    0.1864
       DOS:  cpu time    0.0010: real time    0.0010
    CHARGE:  cpu time    0.4826: real time    0.4905
    MIXING:  cpu time    0.0097: real time    0.0097
    --------------------------------------------
      LOOP:  cpu time   11.5793: real time   11.6709

 eigenvalue-minimisations  :  3023
 total energy-change (2. order) :-0.1623820E-02  (-0.7093953E-02)
 number of electron     292.9999997 magnetization       1.1581481
 augmentation part       12.8399994 magnetization       1.0049997

 Broyden mixing:
  rms(total) = 0.17919E+00    rms(broyden)= 0.17915E+00
  rms(prec ) = 0.20737E+00
  weight for this iteration     100.00

 eigenvalues of (default mixing * dielectric matrix)
  average eigenvalue GAMMA=   1.2053
  2.5947  2.5947  1.6587  0.3464  0.3464  1.0136  1.0136  0.6396  0.6396

 Free energy of the ion-electron system (eV)
  ---------------------------------------------------
  alpha Z        PSCENC =       157.40482093
  Ewald energy   TEWEN  =     30498.53143616
  -Hartree energ DENC   =    -40730.11333558
  -exchange      EXHF   =         0.00000000
  -V(xc)+E(xc)   XCENC  =      1023.49263870
  PAW double counting   =     31165.68489200   -31264.33589661
  entropy T*S    EENTRO =        -0.01813594
  eigenvalues    EBANDS =     -3563.48902088
  atomic energy  EATOM  =     12065.27733323
  Solvation  Ediel_sol  =         0.00000000
  ---------------------------------------------------
  free energy    TOTEN  =      -647.56526798 eV

  energy without entropy =     -647.54713204  energy(sigma->0) =     -647.55620001


--------------------------------------------------------------------------------------------------------




--------------------------------------- Iteration      1(  15)  ---------------------------------------


    POTLOK:  cpu time    0.4037: real time    0.4084
    SETDIJ:  cpu time    0.0124: real time    0.0124
    EDDIAG:  cpu time    2.1523: real time    2.1764
  RMM-DIIS:  cpu time    8.4452: real time    8.5111
    ORTHCH:  cpu time    0.1803: real time    0.1812
       DOS:  cpu time    0.0010: real time    0.0010
    CHARGE:  cpu time    0.4896: real time    0.4967
    MIXING:  cpu time    0.0099: real time    0.0101
    --------------------------------------------
      LOOP:  cpu time   11.6944: real time   11.7973

 eigenvalue-minimisations  :  3012
 total energy-change (2. order) :-0.9420481E-01  (-0.1020805E-01)
 number of electron     292.9999997 magnetization       1.1759733
 augmentation part       12.7627221 magnetization       1.0721588

 Broyden mixing:
  rms(total) = 0.73772E-01    rms(broyden)= 0.73719E-01
  rms(prec ) = 0.85911E-01
  weight for this iteration     100.00

 eigenvalues of (default mixing * dielectric matrix)
  average eigenvalue GAMMA=   1.1440
  2.1278  2.1278  1.9107  1.4916  0.3464  0.3464  0.9206  0.9206  0.6240  0.6240

 Free energy of the ion-electron system (eV)
  ---------------------------------------------------
  alpha Z        PSCENC =       157.40482093
  Ewald energy   TEWEN  =     30498.53143616
  -Hartree energ DENC   =    -40755.42591111
  -exchange      EXHF   =         0.00000000
  -V(xc)+E(xc)   XCENC  =      1023.67815684
  PAW double counting   =     31116.75191548   -31215.29296396
  entropy T*S    EENTRO =        -0.01892054
  eigenvalues    EBANDS =     -3538.56533983
  atomic energy  EATOM  =     12065.27733323
  Solvation  Ediel_sol  =         0.00000000
  ---------------------------------------------------
  free energy    TOTEN  =      -647.65947279 eV

  energy without entropy =     -647.64055225  energy(sigma->0) =     -647.65001252


--------------------------------------------------------------------------------------------------------




--------------------------------------- Iteration      1(  16)  ---------------------------------------


    POTLOK:  cpu time    0.4042: real time    0.4081
    SETDIJ:  cpu time    0.0110: real time    0.0125
    EDDIAG:  cpu time    2.0418: real time    2.0669
  RMM-DIIS:  cpu time    8.4078: real time    8.4702
    ORTHCH:  cpu time    0.2201: real time    0.2479
       DOS:  cpu time    0.0011: real time    0.0011
    CHARGE:  cpu time    0.4517: real time    0.4595
    MIXING:  cpu time    0.0084: real time    0.0086
    --------------------------------------------
      LOOP:  cpu time   11.5462: real time   11.6746

 eigenvalue-minimisations  :  2983
 total energy-change (2. order) :-0.8196766E-01  (-0.3075706E-02)
 number of electron     292.9999997 magnetization       1.2644302
 augmentation part       12.7616472 magnetization       1.1442948

 Broyden mixing:
  rms(total) = 0.64160E-01    rms(broyden)= 0.64156E-01
  rms(prec ) = 0.74878E-01
  weight for this iteration     100.00

 eigenvalues of (default mixing * dielectric matrix)
  average eigenvalue GAMMA=   1.1847
  2.3633  2.3633  1.9192  1.9192  0.9523  0.9523  0.3464  0.3464  0.6554  0.6554
  0.5592

 Free energy of the ion-electron system (eV)
  ---------------------------------------------------
  alpha Z        PSCENC =       157.40482093
  Ewald energy   TEWEN  =     30498.53143616
  -Hartree energ DENC   =    -40762.84066298
  -exchange      EXHF   =         0.00000000
  -V(xc)+E(xc)   XCENC  =      1023.62938775
  PAW double counting   =     31123.96562710   -31222.46915836
  entropy T*S    EENTRO =        -0.01883386
  eigenvalues    EBANDS =     -3531.22139044
  atomic energy  EATOM  =     12065.27733323
  Solvation  Ediel_sol  =         0.00000000
  ---------------------------------------------------
  free energy    TOTEN  =      -647.74144046 eV

  energy without entropy =     -647.72260660  energy(sigma->0) =     -647.73202353


--------------------------------------------------------------------------------------------------------




--------------------------------------- Iteration      1(  17)  ---------------------------------------


    POTLOK:  cpu time    0.4188: real time    0.4227
    SETDIJ:  cpu time    0.0122: real time    0.0122
    EDDIAG:  cpu time    2.0194: real time    2.0367
  RMM-DIIS:  cpu time    8.4201: real time    8.4800
    ORTHCH:  cpu time    0.1872: real time    0.1876
       DOS:  cpu time    0.0023: real time    0.0025
    CHARGE:  cpu time    0.4514: real time    0.4585
    MIXING:  cpu time    0.0086: real time    0.0086
    --------------------------------------------
      LOOP:  cpu time   11.5200: real time   11.6088

 eigenvalue-minimisations  :  2976
 total energy-change (2. order) :-0.4307562E-01  (-0.6113458E-02)
 number of electron     292.9999997 magnetization       1.2969478
 augmentation part       12.7542759 magnetization       1.1747010

 Broyden mixing:
  rms(total) = 0.29039E-01    rms(broyden)= 0.29033E-01
  rms(prec ) = 0.38598E-01
  weight for this iteration     100.00

 eigenvalues of (default mixing * dielectric matrix)
  average eigenvalue GAMMA=   1.2142
  2.6257  2.6257  1.8008  1.8008  1.3374  0.3464  0.3464  0.9954  0.7432  0.7432
  0.6029  0.6029

 Free energy of the ion-electron system (eV)
  ---------------------------------------------------
  alpha Z        PSCENC =       157.40482093
  Ewald energy   TEWEN  =     30498.53143616
  -Hartree energ DENC   =    -40782.96515915
  -exchange      EXHF   =         0.00000000
  -V(xc)+E(xc)   XCENC  =      1023.74017882
  PAW double counting   =     31083.57764137   -31181.99994900
  entropy T*S    EENTRO =        -0.01911070
  eigenvalues    EBANDS =     -3511.33170774
  atomic energy  EATOM  =     12065.27733323
  Solvation  Ediel_sol  =         0.00000000
  ---------------------------------------------------
  free energy    TOTEN  =      -647.78451608 eV

  energy without entropy =     -647.76540538  energy(sigma->0) =     -647.77496073


--------------------------------------------------------------------------------------------------------




--------------------------------------- Iteration      1(  18)  ---------------------------------------


    POTLOK:  cpu time    0.4076: real time    0.4121
    SETDIJ:  cpu time    0.0121: real time    0.0121
    EDDIAG:  cpu time    2.0439: real time    2.0636
  RMM-DIIS:  cpu time    8.5185: real time    8.5789
    ORTHCH:  cpu time    0.2440: real time    0.3411
       DOS:  cpu time    0.0010: real time    0.0010
    CHARGE:  cpu time    0.4698: real time    0.4774
    MIXING:  cpu time    0.0099: real time    0.0102
    --------------------------------------------
      LOOP:  cpu time   11.7070: real time   11.8965

 eigenvalue-minimisations  :  3018
 total energy-change (2. order) : 0.2927495E-02  (-0.9079196E-03)
 number of electron     292.9999997 magnetization       1.3085560
 augmentation part       12.7561422 magnetization       1.1832353

 Broyden mixing:
  rms(total) = 0.19619E-01    rms(broyden)= 0.19616E-01
  rms(prec ) = 0.28138E-01
  weight for this iteration     100.00

 eigenvalues of (default mixing * dielectric matrix)
  average eigenvalue GAMMA=   1.2297
  2.7672  2.7672  1.9086  1.9086  1.5474  0.3464  0.3464  0.8938  0.8938  0.8059
  0.6547  0.6312  0.5150

 Free energy of the ion-electron system (eV)
  ---------------------------------------------------
  alpha Z        PSCENC =       157.40482093
  Ewald energy   TEWEN  =     30498.53143616
  -Hartree energ DENC   =    -40793.96681151
  -exchange      EXHF   =         0.00000000
  -V(xc)+E(xc)   XCENC  =      1023.79906781
  PAW double counting   =     31062.65931806   -31161.04736460
  entropy T*S    EENTRO =        -0.01913293
  eigenvalues    EBANDS =     -3500.42025574
  atomic energy  EATOM  =     12065.27733323
  Solvation  Ediel_sol  =         0.00000000
  ---------------------------------------------------
  free energy    TOTEN  =      -647.78158858 eV

  energy without entropy =     -647.76245565  energy(sigma->0) =     -647.77202212


--------------------------------------------------------------------------------------------------------




--------------------------------------- Iteration      1(  19)  ---------------------------------------


    POTLOK:  cpu time    0.3993: real time    0.4037
    SETDIJ:  cpu time    0.0120: real time    0.0120
    EDDIAG:  cpu time    2.0477: real time    2.0640
  RMM-DIIS:  cpu time    8.3144: real time    8.3796
    ORTHCH:  cpu time    0.1734: real time    0.1913
       DOS:  cpu time    0.0010: real time    0.0010
    CHARGE:  cpu time    0.4510: real time    0.4593
    MIXING:  cpu time    0.0102: real time    0.0105
    --------------------------------------------
      LOOP:  cpu time   11.4091: real time   11.5215

 eigenvalue-minimisations  :  2951
 total energy-change (2. order) :-0.7095910E-02  (-0.3636104E-03)
 number of electron     292.9999997 magnetization       1.3189684
 augmentation part       12.7467607 magnetization       1.1943060

 Broyden mixing:
  rms(total) = 0.13843E-01    rms(broyden)= 0.13841E-01
  rms(prec ) = 0.19574E-01
  weight for this iteration     100.00

 eigenvalues of (default mixing * dielectric matrix)
  average eigenvalue GAMMA=   1.3341
  3.5876  2.7706  2.0920  2.0920  1.8771  1.0657  1.0657  0.3464  0.3464  0.7884
  0.7884  0.6765  0.6160  0.5650

 Free energy of the ion-electron system (eV)
  ---------------------------------------------------
  alpha Z        PSCENC =       157.40482093
  Ewald energy   TEWEN  =     30498.53143616
  -Hartree energ DENC   =    -40803.16866955
  -exchange      EXHF   =         0.00000000
  -V(xc)+E(xc)   XCENC  =      1023.83311668
  PAW double counting   =     31055.39531702   -31153.76084952
  entropy T*S    EENTRO =        -0.01909907
  eigenvalues    EBANDS =     -3491.28209038
  atomic energy  EATOM  =     12065.27733323
  Solvation  Ediel_sol  =         0.00000000
  ---------------------------------------------------
  free energy    TOTEN  =      -647.78868449 eV

  energy without entropy =     -647.76958542  energy(sigma->0) =     -647.77913496


--------------------------------------------------------------------------------------------------------




--------------------------------------- Iteration      1(  20)  ---------------------------------------


    POTLOK:  cpu time    0.3945: real time    0.3988
    SETDIJ:  cpu time    0.0121: real time    0.0121
    EDDIAG:  cpu time    2.0426: real time    2.0581
  RMM-DIIS:  cpu time    8.3031: real time    8.3689
    ORTHCH:  cpu time    0.2387: real time    0.2406
       DOS:  cpu time    0.0010: real time    0.0010
    CHARGE:  cpu time    0.4567: real time    0.4640
    MIXING:  cpu time    0.0106: real time    0.0107
    --------------------------------------------
      LOOP:  cpu time   11.4593: real time   11.5542

 eigenvalue-minimisations  :  2944
 total energy-change (2. order) : 0.4270100E-02  (-0.2402282E-03)
 number of electron     292.9999997 magnetization       1.3110126
 augmentation part       12.7406838 magnetization       1.1862862

 Broyden mixing:
  rms(total) = 0.20595E-01    rms(broyden)= 0.20593E-01
  rms(prec ) = 0.23901E-01
  weight for this iteration     100.00

 eigenvalues of (default mixing * dielectric matrix)
  average eigenvalue GAMMA=   1.3710
  4.5095  2.6605  2.1700  2.1700  1.8018  1.1082  1.1082  0.3464  0.3464  0.8852
  0.8164  0.8164  0.6428  0.6077  0.5754

 Free energy of the ion-electron system (eV)
  ---------------------------------------------------
  alpha Z        PSCENC =       157.40482093
  Ewald energy   TEWEN  =     30498.53143616
  -Hartree energ DENC   =    -40813.78635643
  -exchange      EXHF   =         0.00000000
  -V(xc)+E(xc)   XCENC  =      1023.88494362
  PAW double counting   =     31043.88753577   -31142.23340156
  entropy T*S    EENTRO =        -0.01904581
  eigenvalues    EBANDS =     -3480.73168031
[...]
  Alpha Z   157.40482   157.40482   157.40482
  Ewald   40594.71661 40594.70258-50690.94299     9.49425     5.54194    13.28322
  Hartree 40056.78822 40004.49963-39238.80240     6.88645     4.00904     6.80173
  E(xc)   -1111.01555 -1110.71204 -1150.17958     0.00814     0.00000     0.04043
  Local  -83858.31586-83795.76375 86138.11239   -16.09763    -9.50020   -16.74954
  n-local  -288.65475  -286.48057  -269.47968    -0.07196    -0.14479    -0.60648
  augment    65.84311    64.71038    66.43249    -0.07602    -0.00150    -0.89183
  Kinetic  4383.39825  4371.58740  4983.96513    -0.14754     0.09604    -1.80972
  Fock        0.00000     0.00000     0.00000     0.00000     0.00000     0.00000
  vdW        -1.56267    -1.68110    -0.04396    -0.02172    -0.00746    -0.06415
  -------------------------------------------------------------------------------------
  Total      -1.39782    -1.73265    -3.53380    -0.02603    -0.00693     0.00367
  in kB      -0.78858    -0.97747    -1.99359    -0.01469    -0.00391     0.00207
  external pressure =       -1.25 kB  Pullay stress =        0.00 kB


 VOLUME and BASIS-vectors are now :
 -----------------------------------------------------------------------------
  energy-cutoff  :      440.00
  volume of cell :     2839.99
      direct lattice vectors                 reciprocal lattice vectors
    14.858494812  0.007653473  0.000000000     0.067281356  0.039239159  0.000000000
    -7.429247406 12.738546194  0.000000000    -0.000040423  0.078478318  0.000000000
     0.000000000  0.000000000 15.000000000     0.000000000  0.000000000  0.066666667

  length of vectors
    14.858496783 14.746670002 15.000000000     0.077887692  0.078478329  0.066666667


 FORCES acting on ions
    electron-ion (+dipol)            ewald-force                    non-local-force                 convergence-correction
 -----------------------------------------------------------------------------------------------
   0.169E+01 0.345E+00 0.704E+01   -.177E+01 -.438E+00 -.704E+01   0.771E-01 0.740E-01 -.167E-02   0.147E-04 0.439E-04 -.833E-04
   -.215E+01 0.137E+01 0.821E+01   0.219E+01 -.140E+01 -.824E+01   -.466E-01 0.409E-01 0.312E-01   0.362E-05 -.715E-05 -.799E-04
   -.168E+00 0.808E+00 0.761E+01   0.221E+00 -.766E+00 -.764E+01   -.432E-01 -.599E-01 0.316E-01   0.140E-04 0.835E-05 -.674E-04
   -.175E+01 0.275E+01 0.698E+01   0.187E+01 -.275E+01 -.694E+01   -.127E+00 -.164E-01 -.279E-01   -.172E-04 -.384E-04 -.915E-04
   -.126E+01 0.233E+00 0.682E+01   0.124E+01 -.137E+00 -.684E+01   0.180E-01 -.118E+00 0.211E-01   -.311E-04 -.174E-04 -.655E-04
   0.275E+01 0.185E+01 0.717E+01   -.278E+01 -.179E+01 -.720E+01   0.123E-01 -.645E-01 0.204E-01   -.237E-05 -.497E-04 -.918E-04
   -.225E+01 -.152E-01 0.783E+01   0.234E+01 0.343E-02 -.786E+01   -.940E-01 0.167E-01 0.364E-01   -.129E-04 0.381E-04 -.796E-04
   0.179E+01 0.751E+00 0.708E+01   -.182E+01 -.712E+00 -.708E+01   0.153E-01 -.359E-01 -.175E-02   -.841E-05 -.182E-04 -.820E-04
   -.108E+01 -.195E+01 0.695E+01   0.113E+01 0.186E+01 -.692E+01   -.576E-01 0.122E+00 -.270E-01   0.447E-05 0.492E-04 -.929E-04
   -.217E+00 0.470E+00 0.784E+01   0.165E+00 -.585E+00 -.787E+01   0.598E-01 0.136E+00 0.345E-01   0.180E-04 0.122E-04 -.687E-04
   0.327E+01 -.106E+01 0.725E+01   -.337E+01 0.926E+00 -.729E+01   0.964E-01 0.153E+00 0.285E-01   0.109E-04 0.574E-04 -.938E-04
   -.639E+00 0.227E+00 0.650E+01   0.569E+00 -.419E+00 -.652E+01   0.961E-01 0.188E+00 0.177E-01   0.539E-05 0.235E-04 -.672E-04
   0.352E+01 0.560E+01 0.630E+01   -.361E+01 -.584E+01 -.630E+01   0.101E+00 0.220E+00 -.121E-01   0.166E-04 -.104E-05 -.704E-04
   0.227E+01 0.668E+01 0.643E+01   -.270E+01 -.697E+01 -.646E+01   0.432E+00 0.275E+00 0.177E-01   0.136E-05 -.125E-04 -.764E-04
   0.216E+01 0.758E+01 0.103E+02   -.205E+01 -.780E+01 -.103E+02   -.935E-01 0.219E+00 0.419E-01   -.211E-04 -.340E-04 -.997E-04
   -.332E+01 0.153E+02 0.108E+02   0.402E+01 -.156E+02 -.109E+02   -.707E+00 0.375E+00 0.125E+00   -.543E-04 -.609E-04 -.143E-03
   -.167E+01 0.752E+01 0.683E+01   0.172E+01 -.720E+01 -.686E+01   -.620E-01 -.344E+00 0.331E-01   -.407E-04 -.368E-04 -.118E-03
   0.263E+01 0.113E+02 0.513E+01   -.233E+01 -.109E+02 -.483E+01   -.336E+00 -.443E+00 -.295E+00   -.378E-04 -.157E-03 -.208E-03
   -.318E+01 0.659E+01 0.733E+01   0.317E+01 -.654E+01 -.734E+01   0.126E-01 -.574E-01 0.199E-02   0.381E-04 -.633E-04 -.103E-03
   -.186E+00 0.886E+01 0.111E+02   -.202E+00 -.869E+01 -.113E+02   0.373E+00 -.159E+00 0.143E+00   0.449E-04 -.883E-04 -.148E-03
   -.142E+01 0.426E+01 0.814E+01   0.142E+01 -.432E+01 -.815E+01   -.908E-02 0.396E-01 0.236E-01   -.451E-05 -.814E-05 -.749E-04
   -.200E+01 0.374E+01 0.786E+01   0.194E+01 -.381E+01 -.789E+01   0.571E-01 0.809E-01 0.293E-01   0.325E-04 -.205E-04 -.848E-04
   0.786E+00 0.347E+01 0.650E+01   -.841E+00 -.356E+01 -.649E+01   0.577E-01 0.890E-01 -.708E-02   0.112E-04 0.334E-04 -.586E-04
   0.246E+00 0.285E+01 0.626E+01   -.362E+00 -.294E+01 -.629E+01   0.147E+00 0.110E+00 0.224E-01   0.988E-05 -.561E-05 -.562E-04
   0.539E+01 0.622E+01 0.488E+01   -.559E+01 -.638E+01 -.487E+01   0.214E+00 0.194E+00 -.366E-01   -.220E-04 -.218E-04 -.632E-04
   0.674E+01 0.310E+01 0.587E+01   -.715E+01 -.340E+01 -.590E+01   0.416E+00 0.338E+00 0.797E-02   -.100E-04 -.253E-05 -.732E-04
   0.102E+02 0.202E+02 0.908E+01   -.101E+02 -.215E+02 -.899E+01   0.595E-02 0.131E+01 -.729E-01   -.414E-04 -.322E-04 -.120E-03
   0.360E+02 0.222E+02 0.155E+02   -.408E+02 -.250E+02 -.158E+02   0.473E+01 0.279E+01 0.370E+00   -.821E-04 -.558E-04 -.154E-03
   -.688E+01 0.247E+02 0.513E+01   0.749E+01 -.243E+02 -.549E+01   -.609E+00 -.470E+00 0.357E+00   -.108E-03 -.165E-03 -.244E-03
   -.272E+02 0.455E+02 -.456E+01   0.395E+02 -.425E+02 0.709E+01   -.124E+02 -.303E+01 -.254E+01   -.614E-03 -.642E-03 -.549E-03
   -.209E+01 0.228E+02 0.181E+02   0.192E+01 -.221E+02 -.183E+02   0.170E+00 -.644E+00 0.258E+00   0.396E-04 -.172E-03 -.249E-03
   0.295E+01 0.424E+02 0.454E+02   -.915E+01 -.392E+02 -.450E+02   0.621E+01 -.314E+01 -.415E+00   0.518E-03 -.721E-03 -.600E-03
   -.553E+01 0.110E+02 0.705E+01   0.536E+01 -.110E+02 -.706E+01   0.164E+00 0.465E-01 0.195E-02   0.748E-04 -.519E-04 -.129E-03
   -.142E+02 0.712E+01 0.286E+01   0.141E+02 -.706E+01 -.284E+01   0.108E+00 -.271E-01 -.145E-01   0.113E-03 -.412E-04 -.172E-03
   -.771E+00 0.351E+01 0.711E+01   0.663E+00 -.355E+01 -.709E+01   0.104E+00 0.689E-01 -.169E-02   0.491E-04 -.251E-04 -.707E-04
   -.312E+01 0.372E+01 0.731E+01   0.297E+01 -.377E+01 -.736E+01   0.148E+00 0.701E-01 0.635E-01   0.393E-04 0.254E-05 -.822E-04
   0.188E+01 0.995E+00 0.601E+01   -.206E+01 -.956E+00 -.602E+01   0.173E+00 -.288E-01 0.659E-02   0.718E-05 0.158E-04 -.716E-04
   0.175E+01 -.115E+01 0.600E+01   -.187E+01 0.115E+01 -.602E+01   0.112E+00 -.200E-01 0.981E-02   -.390E-05 0.330E-05 -.712E-04
   0.172E+02 0.241E+01 0.887E+01   -.183E+02 -.199E+01 -.887E+01   0.111E+01 -.400E+00 -.176E-01   -.371E-04 -.239E-04 -.106E-03
   0.128E+02 -.595E+01 0.738E+01   -.133E+02 0.634E+01 -.739E+01   0.475E+00 -.416E+00 -.122E-01   -.629E-04 -.171E-04 -.107E-03
   0.245E+02 0.150E+02 0.178E+02   -.216E+02 -.154E+02 -.181E+02   -.281E+01 0.396E+00 0.412E+00   -.364E-03 -.237E-03 -.391E-03
   0.218E+02 -.397E+02 0.162E+02   -.201E+02 0.461E+02 -.164E+02   -.176E+01 -.634E+01 0.318E+00   -.310E-03 0.969E-04 -.316E-03
   -.319E+02 0.112E+02 0.171E+02   0.315E+02 -.118E+02 -.180E+02   0.403E+00 0.624E+00 0.876E+00   0.376E-03 -.186E-03 -.343E-03
   -.320E+02 -.118E+02 0.155E+02   0.316E+02 0.123E+02 -.165E+02   0.397E+00 -.556E+00 0.983E+00   0.376E-03 0.183E-03 -.340E-03
   -.622E+01 0.118E+01 0.405E+01   0.615E+01 -.117E+01 -.400E+01   0.732E-01 -.715E-02 -.339E-01   0.785E-04 -.104E-05 -.122E-03
   -.635E+01 -.133E+01 0.394E+01   0.630E+01 0.127E+01 -.387E+01   0.626E-01 0.251E-01 -.431E-01   0.905E-04 0.573E-05 -.123E-03
   -.285E+01 -.432E+01 0.780E+01   0.273E+01 0.434E+01 -.786E+01   0.115E+00 -.404E-01 0.836E-01   0.516E-04 -.912E-06 -.816E-04
   -.160E+01 -.371E+01 0.732E+01   0.153E+01 0.376E+01 -.730E+01   0.679E-01 -.536E-01 -.106E-01   0.347E-04 0.217E-04 -.693E-04
   0.638E+01 -.555E+01 0.478E+01   -.667E+01 0.579E+01 -.479E+01   0.286E+00 -.279E+00 -.160E-01   -.431E-04 -.165E-04 -.726E-04
   0.316E+01 -.567E+01 0.484E+01   -.315E+01 0.584E+01 -.483E+01   0.892E-02 -.177E+00 -.249E-01   -.380E-04 0.205E-04 -.622E-04
   0.140E+02 -.170E+02 0.136E+02   -.144E+02 0.177E+02 -.138E+02   0.395E+00 -.667E+00 0.241E+00   -.110E-03 0.330E-04 -.156E-03
   0.564E+01 -.140E+02 0.806E+01   -.535E+01 0.145E+02 -.799E+01   -.281E+00 -.578E+00 -.764E-01   -.770E-04 0.443E-04 -.118E-03
   -.964E+01 -.446E+02 0.102E+02   0.168E+02 0.412E+02 -.887E+01   -.718E+01 0.345E+01 -.135E+01   -.592E-03 0.590E-03 -.566E-03
   -.125E+01 -.181E+02 0.500E+01   0.152E+01 0.172E+02 -.516E+01   -.274E+00 0.934E+00 0.157E+00   -.105E-03 0.169E-03 -.250E-03
   0.483E+01 -.425E+02 0.432E+02   -.110E+02 0.394E+02 -.427E+02   0.618E+01 0.309E+01 -.525E+00   0.542E-03 0.699E-03 -.609E-03
   -.502E+00 -.228E+02 0.176E+02   0.217E+00 0.222E+02 -.178E+02   0.287E+00 0.640E+00 0.214E+00   0.964E-04 0.165E-03 -.253E-03
   -.135E+02 -.715E+01 0.924E+00   0.134E+02 0.709E+01 -.894E+00   0.124E+00 0.123E-01 -.336E-01   0.115E-03 0.570E-04 -.172E-03
   -.585E+01 -.112E+02 0.645E+01   0.568E+01 0.112E+02 -.647E+01   0.153E+00 -.649E-01 0.135E-01   0.786E-04 0.651E-04 -.130E-03
   -.190E+01 -.364E+01 0.794E+01   0.186E+01 0.367E+01 -.797E+01   0.376E-01 -.428E-01 0.310E-01   0.299E-04 0.251E-04 -.841E-04
   -.172E+01 -.382E+01 0.806E+01   0.176E+01 0.383E+01 -.808E+01   -.269E-01 -.149E-01 0.216E-01   0.146E-04 0.166E-04 -.746E-04
   0.167E+00 -.261E+01 0.670E+01   -.177E+00 0.273E+01 -.673E+01   0.407E-01 -.127E+00 0.331E-01   -.125E-04 0.205E-04 -.547E-04
   0.395E+00 -.258E+01 0.651E+01   -.355E+00 0.267E+01 -.649E+01   -.340E-01 -.922E-01 -.158E-01   -.107E-04 -.100E-04 -.569E-04
   0.108E+01 -.524E+01 0.612E+01   -.109E+01 0.536E+01 -.614E+01   -.240E-01 -.104E+00 0.108E-01   -.198E-04 0.149E-04 -.748E-04
   0.236E+01 -.459E+01 0.655E+01   -.242E+01 0.472E+01 -.656E+01   0.561E-01 -.108E+00 0.259E-02   -.173E-04 0.528E-05 -.690E-04
   -.288E+01 -.108E+02 0.879E+01   0.349E+01 0.107E+02 -.884E+01   -.603E+00 0.140E+00 0.648E-01   -.737E-04 0.682E-04 -.143E-03
   0.266E+01 -.439E+01 0.899E+01   -.255E+01 0.427E+01 -.904E+01   -.818E-01 0.117E+00 0.601E-01   -.298E-04 0.548E-04 -.100E-03
   0.349E+01 -.102E+02 0.590E+01   -.361E+01 0.967E+01 -.558E+01   0.106E+00 0.562E+00 -.312E+00   -.688E-06 0.180E-03 -.212E-03
   -.103E+01 -.675E+01 0.715E+01   0.100E+01 0.639E+01 -.718E+01   0.215E-01 0.366E+00 0.306E-01   -.216E-05 0.672E-04 -.120E-03
   0.402E+00 -.881E+01 0.110E+02   -.800E+00 0.863E+01 -.112E+02   0.390E+00 0.188E+00 0.173E+00   0.743E-04 0.801E-04 -.149E-03
   -.280E+01 -.577E+01 0.746E+01   0.270E+01 0.569E+01 -.748E+01   0.735E-01 0.989E-01 0.147E-01   0.436E-04 0.622E-04 -.105E-03
   -.591E+01 -.587E+01 -.645E+03   0.116E+01 0.581E+01 0.627E+03   0.485E+01 0.622E-01 0.181E+02   0.243E-04 -.101E-03 -.147E-02
 -----------------------------------------------------------------------------------------------
   -.220E+01 0.106E+01 -.177E+02   0.320E-13 -.249E-12 0.227E-12   0.220E+01 -.106E+01 0.177E+02   0.758E-04 -.109E-03 -.120E-01
 
 
 POSITION                                       TOTAL-FORCE (eV/Angst)
 -----------------------------------------------------------------------------------
      0.00190      0.00845      7.46675        -0.003158     -0.018002     -0.004513
      0.00152      1.43014      7.46498         0.000677      0.009431     -0.002020
      2.47998      0.03345      7.46298         0.010606     -0.016499      0.000715
      2.47891      1.45442      7.47606        -0.004190     -0.011134      0.003187
      4.95190      0.02702      7.46550         0.000247     -0.020575     -0.000407
      4.95021      1.44996      7.47592        -0.009757     -0.003701     -0.003832
      0.00434     12.72993      7.46632        -0.001560      0.005404      0.004884
      7.43187      1.41413      7.46691        -0.013627      0.001843     -0.003931
      2.47767     12.70779      7.47605        -0.008888      0.036392      0.000502
      9.90707      1.39196      7.46240         0.007786      0.019010      0.006517
      4.95065     12.71714      7.47526        -0.000266      0.016548     -0.004958
     12.37960      1.40095      7.46593         0.025976     -0.004985     -0.003797
     13.61533      2.12526      7.46772         0.005669     -0.011801     -0.009727
     -1.24726      3.53838      7.47537        -0.002533     -0.019548     -0.013313
      1.23961      2.15736      7.47376         0.024616      0.004336      0.017152
      1.24005      3.57991      7.50367        -0.006461      0.003088      0.023815
      3.71170      2.18061      7.49376        -0.009557     -0.024789      0.006201
      3.70879      3.60386      7.54227        -0.031748     -0.002175      0.010399
      6.19442      2.13956      7.47788        -0.002694     -0.008877     -0.007361
      6.19510      3.56162      7.49559        -0.017249      0.005606     -0.007057
      8.67404      2.10972      7.46273        -0.011013     -0.019145      0.006082
      8.67683      3.52839      7.47146        -0.005515      0.011596      0.001686
     11.14200      2.10667      7.46279         0.004183     -0.009098      0.004407
     11.14118      3.52601      7.46501         0.031397      0.015166     -0.002708
     12.37417      4.24178      7.47308         0.018363      0.027776     -0.022034
     -2.48495      5.65145      7.47653         0.000405      0.030058     -0.024055
     -0.01081      4.25711      7.49390         0.020586      0.025877      0.018303
     -0.03316      5.66949      7.50565        -0.017169     -0.016882      0.022639
      2.46444      4.34176      7.57732        -0.001563     -0.016242     -0.001262
      2.42124      5.76347      7.70748        -0.010646     -0.007481     -0.005910
      4.95734      4.29956      7.53422        -0.005986      0.014735     -0.004537
      4.99733      5.70737      7.60449        -0.014450      0.011596     -0.013313
      7.44528      4.24459      7.49743         0.001498      0.006612     -0.009562
      7.46808      5.66014      7.52950        -0.002291      0.021371     -0.002466
      9.91088      4.23762      7.46823        -0.004054      0.028984      0.012207
      9.91782      5.66009      7.47603         0.003839      0.018981      0.015641
     -3.71230      6.36733      7.47383        -0.002519      0.009072     -0.005333
     -3.71549      7.78760      7.47414        -0.003087     -0.019027     -0.005102
     -1.26159      6.37211      7.48750        -0.002317      0.012838     -0.016447
     -1.27134      7.78922      7.49003         0.021717     -0.020176     -0.020525
      1.16062      6.36548      7.57902         0.004253      0.004308      0.038374
      1.17869      7.77075      7.57418        -0.005668      0.009230      0.039133
      6.24575      6.36682      7.56960         0.032427      0.016479     -0.023784
      6.24562      7.80018      7.57336        -0.008853     -0.019601     -0.021582
      8.69628      6.37503      7.50348         0.008578      0.002932      0.017729
      8.69546      7.79553      7.50435         0.013673     -0.031436      0.018927
     -4.94102      8.50257      7.47530         0.001592     -0.020384      0.020578
     -4.94557      9.92530      7.46786        -0.003291     -0.005295      0.013359
     -2.48946      8.50315      7.47931        -0.000233     -0.034037     -0.031121
     -2.48154      9.92371      7.47369         0.020371     -0.004367     -0.015828
     -0.03626      8.48262      7.50566        -0.024560     -0.010194      0.019791
     -0.00939      9.90116      7.49560         0.013643     -0.009633      0.000079
      2.43676      8.38495      7.67860        -0.010923      0.005140      0.012721
      2.47439      9.81973      7.57293         0.001239      0.010801      0.000889
      4.99895      8.46110      7.60812        -0.020453     -0.018331     -0.015694
      4.95997      9.86742      7.53488        -0.010753     -0.000083     -0.008938
      7.46825      8.50963      7.53464         0.021181     -0.041301     -0.001321
      7.44703      9.92414      7.49980        -0.018381      0.003039     -0.003656
     -6.17913     10.63418      7.47180        -0.009279     -0.006353      0.004022
     -6.18370     12.05312      7.46303         0.011854     -0.001820      0.003000
     -3.71362     10.63848      7.46425         0.031095     -0.011550      0.005818
     -3.71379     12.05851      7.46282         0.006701     -0.000846      0.000639
     -1.24272     10.62171      7.47643        -0.026212      0.015577     -0.016062
     -1.24211     12.04234      7.46762         0.002598      0.020206     -0.000206
      1.24404     10.57364      7.50713         0.006243     -0.005770      0.011883
      1.24153     12.00223      7.47682         0.031230      0.001082      0.010739
      3.70933     10.56468      7.53888        -0.015462      0.007463      0.012761
      3.71228     11.98658      7.49212        -0.011116      0.008315      0.001310
      6.19699     10.60534      7.49618        -0.010069      0.016387     -0.004830
      6.19481     12.02787      7.47746        -0.034254      0.017449     -0.004293
      3.81721      7.07948      8.32854         0.017559     -0.003591     -0.044602
 -----------------------------------------------------------------------------------
    total drift:                               -0.001814      0.000366     -0.001337


--------------------------------------------------------------------------------------------------------



  FREE ENERGIE OF THE ION-ELECTRON SYSTEM (eV)
  ---------------------------------------------------
  free  energy   TOTEN  =      -654.21593021 eV

  energy  without entropy=     -654.19695003  energy(sigma->0) =     -654.20644012
 


--------------------------------------------------------------------------------------------------------


    POTLOK:  cpu time    0.4154: real time    0.4179


--------------------------------------------------------------------------------------------------------


 stress matrix after NEB project (eV)
     -1.39782     -0.02603      0.00367
     -0.02603     -1.73265     -0.00693
      0.00367     -0.00693     -3.53380
  FORCES: max atom, RMS     0.048068    0.026361
  FORCE total and by dimension    0.222123    0.044602
  Stress total and by dimension    4.176743    3.533797


--------------------------------------------------------------------------------------------------------


  
 reached required accuracy - stopping structural energy minimisation
     LOOP+:  cpu time  362.5432: real time  366.2302
    4ORBIT:  cpu time    0.0000: real time    0.0000

 total amount of memory used by VASP MPI-rank0   111522. kBytes
=======================================================================

   base      :      30000. kBytes
   nonlr-proj:       9884. kBytes
   fftplans  :      10852. kBytes
   grid      :      30996. kBytes
   one-center:        186. kBytes
   wavefun   :      29604. kBytes
 
  
  
 General timing and accounting informations for this job:
 ========================================================
  
                  Total CPU time used (sec):      373.277
                            User time (sec):      366.390
                          System time (sec):        6.887
                         Elapsed time (sec):      382.685
  
                   Maximum memory used (kb):      480632.
                   Average memory used (kb):           0.
  
                          Minor page faults:      1096818
                          Major page faults:            0
                 Voluntary context switches:         9298
