 vasp.5.4.4.18Apr17-6-g9f103f2a35 (build Nov  8 2022 18:58:45) complex           
 executed on             LinuxGNU date 2023.04.13  15:54:34
 running on   48 total cores
 distrk:  each k-point on   48 cores,    1 groups
 distr:  one band on NCORES_PER_BAND=  12 cores,    4 groups


--------------------------------------------------------------------------------------------------------


 INCAR:
 POTCAR:    PAW_PBE C 08Apr2002                   
 POTCAR:    PAW_PBE N 08Apr2002                   
 POTCAR:    PAW_PBE Ge_d 03Jul2007                
 POTCAR:    PAW_PBE C 08Apr2002                   
 POTCAR:    PAW_PBE O 08Apr2002                   
 POTCAR:    PAW_PBE C 08Apr2002                   
   SHA256 =  253f7b50bb8d59471dbedb8285d89021f4a42ed1a2c5d38a03a736e69125dd95 C/
   COPYR  = (c) Copyright 08Apr2002 Georg Kresse                                
   COPYR  = This file is part of the software VASP. Any use, copying, and all ot
   COPYR  = If you do not have a valid VASP license, you may not use, copy or di
   VRHFIN =C: s2p2                                                              
   LEXCH  = PE                                                                  
   EATOM  =   147.1560 eV,   10.8157 Ry                                         
                                                                                
   TITEL  = PAW_PBE C 08Apr2002                                                 
   LULTRA =        F    use ultrasoft PP ?                                      
   IUNSCR =        1    unscreen: 0-lin 1-nonlin 2-no                           
   RPACOR =    1.200    partial core radius                                     
   POMASS =   12.011; ZVAL   =    4.000    mass and valenz                      
   RCORE  =    1.500    outmost cutoff radius                                   
   RWIGS  =    1.630; RWIGS  =    0.863    wigner-seitz radius (au A)           
   ENMAX  =  400.000; ENMIN  =  300.000 eV                                      
   ICORE  =        2    local potential                                         
   LCOR   =        T    correct aug charges                                     
   LPAW   =        T    paw PP                                                  
   EAUG   =  644.873                                                            
   DEXC   =    0.000                                                            
   RMAX   =    1.529    core radius for proj-oper                               
   RAUG   =    1.300    factor for augmentation sphere                          
   RDEP   =    1.501    radius for radial grids                                 
   RDEPT  =    1.300    core radius for aug-charge                              
                                                                                
   Atomic configuration                                                         
    4 entries                                                                   
     n  l   j            E        occ.                                          
     1  0  0.50      -273.3789   2.0000                                         
     2  0  0.50       -13.7508   2.0000                                         
     2  1  0.50        -5.2854   2.0000                                         
     3  2  1.50        -5.4423   0.0000                                         
   Description                                                                  
     l       E           TYP  RCUT    TYP  RCUT                                 
     0    -13.7508458     23  1.200                                             
     0     -8.2022199     23  1.200                                             
     1     -5.2854383     23  1.500                                             
     1     34.0145650     23  1.500                                             
     2     -5.4423304      7  1.500                                             
  local pseudopotential read in
  partial core-charges read in
  partial kinetic energy density read in
  atomic valenz-charges read in
  non local Contribution for L=           0  read in
    real space projection operators read in
  non local Contribution for L=           0  read in
    real space projection operators read in
  non local Contribution for L=           1  read in
    real space projection operators read in
  non local Contribution for L=           1  read in
    real space projection operators read in
    PAW grid and wavefunctions read in

   number of l-projection  operators is LMAX  =           4
   number of lm-projection operators is LMMAX =           8

 POTCAR:    PAW_PBE N 08Apr2002                   
   SHA256 =  e053789ff3a61a86a1b75d8a110fcc91f86041011e7b0817c7c99e4e8a6349d7 N/
   COPYR  = (c) Copyright 08Apr2002 Georg Kresse                                
   COPYR  = This file is part of the software VASP. Any use, copying, and all ot
   COPYR  = If you do not have a valid VASP license, you may not use, copy or di
   VRHFIN =N: s2p3                                                              
   LEXCH  = PE                                                                  
   EATOM  =   264.5486 eV,   19.4438 Ry                                         
                                                                                
   TITEL  = PAW_PBE N 08Apr2002                                                 
   LULTRA =        F    use ultrasoft PP ?                                      
   IUNSCR =        1    unscreen: 0-lin 1-nonlin 2-no                           
   RPACOR =    1.200    partial core radius                                     
   POMASS =   14.001; ZVAL   =    5.000    mass and valenz                      
   RCORE  =    1.500    outmost cutoff radius                                   
   RWIGS  =    1.400; RWIGS  =    0.741    wigner-seitz radius (au A)           
   ENMAX  =  400.000; ENMIN  =  300.000 eV                                      
   ICORE  =        2    local potential                                         
   LCOR   =        T    correct aug charges                                     
   LPAW   =        T    paw PP                                                  
   EAUG   =  627.112                                                            
   DEXC   =    0.000                                                            
   RMAX   =    1.529    core radius for proj-oper                               
   RAUG   =    1.300    factor for augmentation sphere                          
   RDEP   =    1.514    radius for radial grids                                 
   RDEPT  =    1.338    core radius for aug-charge                              
                                                                                
   Atomic configuration                                                         
    4 entries                                                                   
     n  l   j            E        occ.                                          
     1  0  0.50      -384.7179   2.0000                                         
     2  0  0.50       -18.5828   2.0000                                         
     2  1  0.50        -7.0898   3.0000                                         
     3  2  1.50        -6.8029   0.0000                                         
   Description                                                                  
     l       E           TYP  RCUT    TYP  RCUT                                 
     0    -18.5828119     23  1.200                                             
     0    -13.5018863     23  1.200                                             
     1     -7.0897853     23  1.500                                             
     1      9.5240782     23  1.500                                             
     2     -6.8029130      7  1.500                                             
  local pseudopotential read in
  partial core-charges read in
  partial kinetic energy density read in
  atomic valenz-charges read in
  non local Contribution for L=           0  read in
    real space projection operators read in
  non local Contribution for L=           0  read in
    real space projection operators read in
  non local Contribution for L=           1  read in
    real space projection operators read in
  non local Contribution for L=           1  read in
    real space projection operators read in
    PAW grid and wavefunctions read in

   number of l-projection  operators is LMAX  =           4
   number of lm-projection operators is LMMAX =           8

 POTCAR:    PAW_PBE Ge_d 03Jul2007                
   SHA256 =  944b26c40d2d7c4f4eb1ff3a2e8dbfdd7129146276cd341854bfd5c0e57780ed Ge
   COPYR  = (c) Copyright 03Jul2007 Georg Kresse                                
   COPYR  = This file is part of the software VASP. Any use, copying, and all ot
   COPYR  = If you do not have a valid VASP license, you may not use, copy or di
   VRHFIN =Ge: 3d4s4p                                                           
   LEXCH  = PE                                                                  
   EATOM  =  2596.2402 eV,  190.8183 Ry                                         
                                                                                
   TITEL  = PAW_PBE Ge_d 03Jul2007                                              
   LULTRA =        F    use ultrasoft PP ?                                      
   IUNSCR =        1    unscreen: 0-lin 1-nonlin 2-no                           
   RPACOR =    2.000    partial core radius                                     
   POMASS =   72.610; ZVAL   =   14.000    mass and valenz                      
   RCORE  =    2.300    outmost cutoff radius                                   
   RWIGS  =    2.300; RWIGS  =    1.217    wigner-seitz radius (au A)           
   ENMAX  =  310.294; ENMIN  =  232.720 eV                                      
   ICORE  =        3    local potential                                         
   LCOR   =        T    correct aug charges                                     
   LPAW   =        T    paw PP                                                  
   EAUG   =  531.356                                                            
   DEXC   =    0.000                                                            
   RMAX   =    2.342    core radius for proj-oper                               
   RAUG   =    1.300    factor for augmentation sphere                          
   RDEP   =    2.318    radius for radial grids                                 
   RDEPT  =    1.783    core radius for aug-charge                              
                                                                                
   Atomic configuration                                                         
    9 entries                                                                   
     n  l   j            E        occ.                                          
     1  0  0.50    -10959.8463   2.0000                                         
     2  0  0.50     -1371.6056   2.0000                                         
     2  1  1.50     -1198.4791   6.0000                                         
     3  0  0.50      -168.4733   2.0000                                         
     3  1  1.50      -115.6019   6.0000                                         
     3  2  2.50       -29.3106  10.0000                                         
     4  0  0.50       -11.7309   2.0000                                         
     4  1  0.50        -3.8952   2.0000                                         
     4  3  2.50        -4.0817   0.0000                                         
   Description                                                                  
     l       E           TYP  RCUT    TYP  RCUT                                 
     2    -29.3105938     23  2.200                                             
     2    -13.6058260     23  2.200                                             
     0    -11.7309493     23  2.300                                             
     0     -7.4578696     23  2.300                                             
     1     -3.8952261     23  2.300                                             
     1      6.1178114     23  2.300                                             
     3     -1.3605826     23  2.300                                             
  local pseudopotential read in
  partial core-charges read in
  partial kinetic energy density read in
  atomic valenz-charges read in
  non local Contribution for L=           2  read in
    real space projection operators read in
  non local Contribution for L=           2  read in
    real space projection operators read in
  non local Contribution for L=           0  read in
    real space projection operators read in
  non local Contribution for L=           0  read in
    real space projection operators read in
  non local Contribution for L=           1  read in
    real space projection operators read in
  non local Contribution for L=           1  read in
    real space projection operators read in
    PAW grid and wavefunctions read in

   number of l-projection  operators is LMAX  =           6
   number of lm-projection operators is LMMAX =          18

 POTCAR:    PAW_PBE C 08Apr2002                   
   SHA256 =  253f7b50bb8d59471dbedb8285d89021f4a42ed1a2c5d38a03a736e69125dd95 C/
   COPYR  = (c) Copyright 08Apr2002 Georg Kresse                                
   COPYR  = This file is part of the software VASP. Any use, copying, and all ot
   COPYR  = If you do not have a valid VASP license, you may not use, copy or di
   VRHFIN =C: s2p2                                                              
   LEXCH  = PE                                                                  
   EATOM  =   147.1560 eV,   10.8157 Ry                                         
                                                                                
   TITEL  = PAW_PBE C 08Apr2002                                                 
   LULTRA =        F    use ultrasoft PP ?                                      
   IUNSCR =        1    unscreen: 0-lin 1-nonlin 2-no                           
   RPACOR =    1.200    partial core radius                                     
   POMASS =   12.011; ZVAL   =    4.000    mass and valenz                      
   RCORE  =    1.500    outmost cutoff radius                                   
   RWIGS  =    1.630; RWIGS  =    0.863    wigner-seitz radius (au A)           
   ENMAX  =  400.000; ENMIN  =  300.000 eV                                      
   ICORE  =        2    local potential                                         
   LCOR   =        T    correct aug charges                                     
   LPAW   =        T    paw PP                                                  
   EAUG   =  644.873                                                            
   DEXC   =    0.000                                                            
   RMAX   =    1.529    core radius for proj-oper                               
   RAUG   =    1.300    factor for augmentation sphere                          
   RDEP   =    1.501    radius for radial grids                                 
   RDEPT  =    1.300    core radius for aug-charge                              
                                                                                
   Atomic configuration                                                         
    4 entries                                                                   
     n  l   j            E        occ.                                          
     1  0  0.50      -273.3789   2.0000                                         
     2  0  0.50       -13.7508   2.0000                                         
     2  1  0.50        -5.2854   2.0000                                         
     3  2  1.50        -5.4423   0.0000                                         
   Description                                                                  
     l       E           TYP  RCUT    TYP  RCUT                                 
     0    -13.7508458     23  1.200                                             
     0     -8.2022199     23  1.200                                             
     1     -5.2854383     23  1.500                                             
     1     34.0145650     23  1.500                                             
     2     -5.4423304      7  1.500                                             
  local pseudopotential read in
  partial core-charges read in
  partial kinetic energy density read in
  atomic valenz-charges read in
  non local Contribution for L=           0  read in
    real space projection operators read in
  non local Contribution for L=           0  read in
    real space projection operators read in
  non local Contribution for L=           1  read in
    real space projection operators read in
  non local Contribution for L=           1  read in
    real space projection operators read in
    PAW grid and wavefunctions read in

   number of l-projection  operators is LMAX  =           4
   number of lm-projection operators is LMMAX =           8

 POTCAR:    PAW_PBE O 08Apr2002                   
   SHA256 =  818f92134a0a090dccd8ba1447fa70422a3b330e708bb4f08108d8ae51209ddf O/
   COPYR  = (c) Copyright 08Apr2002 Georg Kresse                                
   COPYR  = This file is part of the software VASP. Any use, copying, and all ot
   COPYR  = If you do not have a valid VASP license, you may not use, copy or di
   VRHFIN =O: s2p4                                                              
   LEXCH  = PE                                                                  
   EATOM  =   432.3788 eV,   31.7789 Ry                                         
                                                                                
   TITEL  = PAW_PBE O 08Apr2002                                                 
   LULTRA =        F    use ultrasoft PP ?                                      
   IUNSCR =        1    unscreen: 0-lin 1-nonlin 2-no                           
   RPACOR =    1.200    partial core radius                                     
   POMASS =   16.000; ZVAL   =    6.000    mass and valenz                      
   RCORE  =    1.520    outmost cutoff radius                                   
   RWIGS  =    1.550; RWIGS  =    0.820    wigner-seitz radius (au A)           
   ENMAX  =  400.000; ENMIN  =  300.000 eV                                      
   ICORE  =        2    local potential                                         
   LCOR   =        T    correct aug charges                                     
   LPAW   =        T    paw PP                                                  
   EAUG   =  605.392                                                            
   DEXC   =    0.000                                                            
   RMAX   =    1.553    core radius for proj-oper                               
   RAUG   =    1.300    factor for augmentation sphere                          
   RDEP   =    1.550    radius for radial grids                                 
   RDEPT  =    1.329    core radius for aug-charge                              
                                                                                
   Atomic configuration                                                         
    4 entries                                                                   
     n  l   j            E        occ.                                          
     1  0  0.50      -514.6923   2.0000                                         
     2  0  0.50       -23.9615   2.0000                                         
     2  1  0.50        -9.0305   4.0000                                         
     3  2  1.50        -9.5241   0.0000                                         
   Description                                                                  
     l       E           TYP  RCUT    TYP  RCUT                                 
     0    -23.9615318     23  1.200                                             
     0     -9.5240782     23  1.200                                             
     1     -9.0304911     23  1.520                                             
     1      8.1634956     23  1.520                                             
     2     -9.5240782      7  1.500                                             
  local pseudopotential read in
  partial core-charges read in
  partial kinetic energy density read in
  kinetic energy density of atom read in
  atomic valenz-charges read in
  non local Contribution for L=           0  read in
    real space projection operators read in
  non local Contribution for L=           0  read in
    real space projection operators read in
  non local Contribution for L=           1  read in
    real space projection operators read in
  non local Contribution for L=           1  read in
    real space projection operators read in
    PAW grid and wavefunctions read in

   number of l-projection  operators is LMAX  =           4
   number of lm-projection operators is LMMAX =           8


 ----------------------------------------------------------------------------- 
|                                                                             |
|  ADVICE TO THIS USER RUNNING 'VASP/VAMP'   (HEAR YOUR MASTER'S VOICE ...):  |
|                                                                             |
|      You have a (more or less) 'large supercell' and for larger cells       |
|      it might be more efficient to use real space projection opertators     |
|      So try LREAL= Auto  in the INCAR   file.                               |
|      Mind:          For very  accurate calculation you might also keep the  |
|      reciprocal projection scheme          (i.e. LREAL=.FALSE.)             |
|                                                                             |
 ----------------------------------------------------------------------------- 

  PAW_PBE C 08Apr2002                   :
 energy of atom  1       EATOM= -147.1560
 kinetic energy error for atom=    0.0132 (will be added to EATOM!!)
  PAW_PBE N 08Apr2002                   :
 energy of atom  2       EATOM= -264.5486
 kinetic energy error for atom=    0.0298 (will be added to EATOM!!)
  PAW_PBE Ge_d 03Jul2007                :
 energy of atom  3       EATOM=-2596.2402
 kinetic energy error for atom=    0.0090 (will be added to EATOM!!)
  PAW_PBE C 08Apr2002                   :
 energy of atom  4       EATOM= -147.1560
 kinetic energy error for atom=    0.0132 (will be added to EATOM!!)
  PAW_PBE O 08Apr2002                   :
 energy of atom  5       EATOM= -432.3788
 kinetic energy error for atom=    0.0458 (will be added to EATOM!!)


 POSCAR: POSCAR-c3n4                             
  positions in direct lattice
  velocities in cartesian coordinates
 exchange correlation table for  LEXCH =        8
   RHO(1)=    0.500       N(1)  =     2000
   RHO(2)=  100.500       N(2)  =     4000



--------------------------------------------------------------------------------------------------------


 ion  position               nearest neighbor table
   1  0.102  0.204  0.408-  26 1.33  46 1.36  25 1.36
   2  0.292  0.413  0.433-  29 1.31  35 1.38  25 1.40
   3  0.092  0.388  0.408-  44 1.30  39 1.36  25 1.38
   4  0.448  0.055  0.495-  30 1.31  27 1.33  48 1.44
   5  0.484  0.452  0.404-  28 1.31  29 1.33  56 1.40
   6  0.122  0.054  0.473-  31 1.30  26 1.32  32 1.42
   7  0.059  0.695  0.524-  54 1.33  34 1.34  33 1.41
   8  0.277  0.865  0.537-  27 1.33  37 1.35  33 1.39
   9  0.121  0.905  0.565-  52 1.32  31 1.32  33 1.40
  10  0.442  0.538  0.551-  38 1.32  35 1.35  56 1.37
  11  0.441  0.854  0.491-  36 1.33  37 1.35  48 1.36
  12  0.034  0.507  0.492-  34 1.32  39 1.33  40 1.34
  13  0.630  0.222  0.437-  42 1.35  30 1.37  41 1.40
  14  0.778  0.411  0.326-  41 1.34  45 1.36  51 1.41
  15  0.638  0.419  0.425-  28 1.32  55 1.33  41 1.42
  16  0.933  0.048  0.484-  46 1.32  43 1.32  32 1.41
  17  0.945  0.408  0.335-  45 1.30  44 1.33  40 1.44
  18  0.634  0.059  0.506-  42 1.33  47 1.33  48 1.45
  19  0.615  0.694  0.620-  50 1.34  38 1.37  49 1.39
  20  0.798  0.907  0.595-  53 1.32  43 1.34  49 1.43
  21  0.603  0.878  0.573-  47 1.33  36 1.34  49 1.41
  22  0.923  0.583  0.400-  51 1.31  54 1.36  40 1.42
  23  0.991  0.959  0.619-  52 1.33  53 1.34  32 1.38
  24  0.638  0.549  0.539-  50 1.32  55 1.32  56 1.42
  25  0.165  0.334  0.408-   1 1.36   3 1.38   2 1.40
  26  0.170  0.149  0.409-   6 1.32   1 1.33
  27  0.344  0.992  0.549-   4 1.33   8 1.33
  28  0.555  0.415  0.362-   5 1.31  15 1.32
  29  0.370  0.411  0.369-   2 1.31   5 1.33
  30  0.509  0.176  0.467-   4 1.31  13 1.37
  31  0.152  0.967  0.479-   6 1.30   9 1.32
  32  0.024  0.037  0.537-  23 1.38  16 1.41   6 1.42
  33  0.153  0.811  0.567-   8 1.39   9 1.40   7 1.41
  34  0.066  0.596  0.561-  12 1.32   7 1.34
  35  0.321  0.479  0.522-  10 1.35   2 1.38  57 2.12
  36  0.502  0.797  0.519-  11 1.33  21 1.34
  37  0.314  0.788  0.500-   8 1.35  11 1.35
  38  0.487  0.618  0.626-  10 1.32  19 1.37
  39  0.093  0.442  0.497-  12 1.33   3 1.36  57 2.24
  40  0.964  0.495  0.413-  12 1.34  22 1.42  17 1.44
  41  0.685  0.342  0.390-  14 1.34  13 1.40  15 1.42
  42  0.702  0.177  0.471-  18 1.33  13 1.35
  43  0.816  0.958  0.504-  16 1.32  20 1.34
  44  0.031  0.375  0.326-   3 1.30  17 1.33
  45  0.843  0.362  0.283-  17 1.30  14 1.36
  46  0.975  0.141  0.417-  16 1.32   1 1.36
  47  0.665  0.005  0.578-  18 1.33  21 1.33
  48  0.505  0.982  0.472-  11 1.36   4 1.44  18 1.45
  49  0.667  0.826  0.620-  19 1.39  21 1.41  20 1.43
  50  0.690  0.649  0.600-  24 1.32  19 1.34
  51  0.830  0.544  0.336-  22 1.31  14 1.41
  52  0.058  0.907  0.643-   9 1.32  23 1.33
  53  0.879  0.915  0.662-  20 1.32  23 1.34
  54  0.989  0.694  0.451-   7 1.33  22 1.36
  55  0.686  0.480  0.511-  24 1.32  15 1.33
  56  0.521  0.517  0.495-  10 1.37   5 1.40  24 1.42
  57  0.248  0.577  0.598-  35 2.12  39 2.24
  58  0.262  0.586  0.836-  59 1.15
  59  0.232  0.495  0.881-  58 1.15


IMPORTANT INFORMATION: All symmetrisations will be switched off!
NOSYMM: (Re-)initialisation of all symmetry stuff for point group C_1.



 KPOINTS: K-Points                                

Automatic generation of k-mesh.
Space group operators:
 irot       det(A)        alpha          n_x          n_y          n_z        tau_x        tau_y        tau_z
    1     1.000000     0.000000     1.000000     0.000000     0.000000     0.000000     0.000000     0.000000
 
 Subroutine IBZKPT returns following result:
 ===========================================
 
 Found      5 irreducible k-points:
 
 Following reciprocal coordinates:
            Coordinates               Weight
  0.000000  0.000000  0.000000      1.000000
  0.333333  0.000000  0.000000      2.000000
  0.000000  0.333333  0.000000      2.000000
  0.333333  0.333333  0.000000      2.000000
 -0.333333  0.333333  0.000000      2.000000
 
 Following cartesian coordinates:
            Coordinates               Weight
  0.000000  0.000000  0.000000      1.000000
  0.024277  0.014368  0.000000      2.000000
  0.000396  0.028736  0.000000      2.000000
  0.024673  0.043104  0.000000      2.000000
 -0.023881  0.014368  0.000000      2.000000
 
 TETIRR: Found     24 inequivalent tetrahedra from       54


--------------------------------------------------------------------------------------------------------




 Dimension of arrays:
   k-points           NKPTS =      5   k-points in BZ     NKDIM =      5   number of bands    NBANDS=    172
   number of dos      NEDOS =   4000   number of ions     NIONS =     59
   non local maximal  LDIM  =      6   non local SUM 2l+1 LMDIM =     18
   total plane-waves  NPLWV = 286720
   max r-space proj   IRMAX =      1   max aug-charges    IRDMAX=   5690
   dimension x,y,z NGX =    64 NGY =   64 NGZ =   70
   dimension x,y,z NGXF=   128 NGYF=  128 NGZF=  140
   support grid    NGXF=   128 NGYF=  128 NGZF=  140
   ions per type =              24  32   1   1   1
   NGX,Y,Z   is equivalent  to a cutoff of   8.54,  8.70,  8.62 a.u.
   NGXF,Y,Z  is equivalent  to a cutoff of  17.08, 17.40, 17.24 a.u.

 SYSTEM =  unknown system                          
 POSCAR =  POSCAR-c3n4                             

 Startparameter for this run:
   NWRITE =      2    write-flag & timer
   PREC   = normal    normal or accurate (medium, high low for compatibility)
   ISTART =      0    job   : 0-new  1-cont  2-samecut
   ICHARG =      2    charge: 1-file 2-atom 10-const
   ISPIN  =      2    spin polarized calculation?
   LNONCOLLINEAR =      F non collinear calculations
   LSORBIT =      F    spin-orbit coupling
   INIWAV =      1    electr: 0-lowe 1-rand  2-diag
   LASPH  =      F    aspherical Exc in radial PAW
   METAGGA=      F    non-selfconsistent MetaGGA calc.

 Electronic Relaxation 1
   ENCUT  =  440.0 eV  32.34 Ry    5.69 a.u.  21.31 20.92 23.09*2*pi/ulx,y,z
   ENINI  =  440.0     initial cutoff
   ENAUG  =  644.9 eV  augmentation charge cutoff
   NELM   =    100;   NELMIN=  2; NELMDL= -5     # of ELM steps 
   EDIFF  = 0.1E-03   stopping-criterion for ELM
   LREAL  =      F    real-space projection
   NLSPLINE    = F    spline interpolate recip. space projectors
   LCOMPAT=      F    compatible to vasp.4.4
   GGA_COMPAT  = T    GGA compatible to vasp.4.4-vasp.4.6
   LMAXPAW     = -100 max onsite density
   LMAXMIX     =    2 max onsite mixed and CHGCAR
   VOSKOWN=      0    Vosko Wilk Nusair interpolation
   ROPT   =    0.00000   0.00000   0.00000   0.00000
   ROPT   =    0.00000
 Ionic relaxation
   EDIFFG = -.1E-01   stopping-criterion for IOM
   NSW    =      0    number of steps for IOM
   NBLOCK =      1;   KBLOCK =      1    inner block; outer block 
   IBRION =     -1    ionic relax: 0-MD 1-quasi-New 2-CG
   NFREE  =      0    steps in history (QN), initial steepest desc. (CG)
   ISIF   =      2    stress and relaxation
   IWAVPR =     10    prediction:  0-non 1-charg 2-wave 3-comb
   ISYM   =      0    0-nonsym 1-usesym 2-fastsym
   LCORR  =      T    Harris-Foulkes like correction to forces

   POTIM  = 0.5000    time-step for ionic-motion
   TEIN   =    0.0    initial temperature
   TEBEG  =    0.0;   TEEND  =   0.0 temperature during run
   SMASS  =  -3.00    Nose mass-parameter (am)
   estimated Nose-frequenzy (Omega)   =  0.10E-29 period in steps =****** mass=  -0.355E-26a.u.
   SCALEE = 1.0000    scale energy and forces
   NPACO  =    256;   APACO  = 16.0  distance and # of slots for P.C.
   PSTRESS=    0.0 pullay stress

  Mass of Ions in am
   POMASS =  12.01 14.00 72.61 12.01 16.00
  Ionic Valenz
   ZVAL   =   4.00  5.00 14.00  4.00  6.00
  Atomic Wigner-Seitz radii
   RWIGS  =  -1.00 -1.00 -1.00 -1.00 -1.00
  virtual crystal weights 
   VCA    =   1.00  1.00  1.00  1.00  1.00
   NELECT =     280.0000    total number of electrons
   NUPDOWN=      -1.0000    fix difference up-down

 DOS related values:
   EMIN   = -14.00;   EMAX   =  6.00  energy-range for DOS
   EFERMI =   0.00
   ISMEAR =    -5;   SIGMA  =   0.20  broadening in eV -4-tet -1-fermi 0-gaus

 Electronic relaxation 2 (details)
   IALGO  =     38    algorithm
   LDIAG  =      T    sub-space diagonalisation (order eigenvalues)
   LSUBROT=      F    optimize rotation matrix (better conditioning)
   TURBO    =      0    0=normal 1=particle mesh
   IRESTART =      0    0=no restart 2=restart with 2 vectors
   NREBOOT  =      0    no. of reboots
   NMIN     =      0    reboot dimension
   EREF     =   0.00    reference energy to select bands
   IMIX   =      4    mixing-type and parameters
     AMIX     =   0.25;   BMIX     =  0.00
     AMIX_MAG =   1.00;   BMIX_MAG =  0.00
     AMIN     =   0.10
     WC   =   100.;   INIMIX=   1;  MIXPRE=   1;  MAXMIX= -45

 Intra band minimization:
   WEIMIN = 0.0000     energy-eigenvalue tresh-hold
   EBREAK =  0.15E-06  absolut break condition
   DEPER  =   0.30     relativ break condition  

   TIME   =   0.40     timestep for ELM

  volume/ion in A,a.u.               =      29.76       200.84
  Fermi-wavevector in a.u.,A,eV,Ry     =   0.887748  1.677600 10.722701  0.788096
  Thomas-Fermi vector in A             =   2.009087

 Write flags
   LWAVE        =      F    write WAVECAR
   LDOWNSAMPLE  =      F    k-point downsampling of WAVECAR
   LCHARG       =      F    write CHGCAR
   LVTOT        =      F    write LOCPOT, total local potential
   LVHAR        =      F    write LOCPOT, Hartree potential only
   LELF         =      F    write electronic localiz. function (ELF)
   LORBIT       =     11    0 simple, 1 ext, 2 COOP (PROOUT), +10 PAW based schemes


 Dipole corrections
   LMONO  =      F    monopole corrections only (constant potential shift)
   LDIPOL =      F    correct potential (dipole corrections)
   IDIPOL =      0    1-x, 2-y, 3-z, 4-all directions 
   EPSILON=  1.0000000 bulk dielectric constant

 Exchange correlation treatment:
   GGA     =    --    GGA type
   LEXCH   =     8    internal setting for exchange type
   VOSKOWN=      0    Vosko Wilk Nusair interpolation
   LHFCALC =     F    Hartree Fock is set to
   LHFONE  =     F    Hartree Fock one center treatment
   AEXX    =    0.0000 exact exchange contribution

 Linear response parameters
   LEPSILON=     F    determine dielectric tensor
   LRPA    =     F    only Hartree local field effects (RPA)
   LNABLA  =     F    use nabla operator in PAW spheres
   LVEL    =     F    velocity operator in full k-point grid
   LINTERFAST=   F  fast interpolation
   KINTER  =     0    interpolate to denser k-point grid
   CSHIFT  =0.1000    complex shift for real part using Kramers Kronig
   OMEGAMAX=  -1.0    maximum frequency
   DEG_THRESHOLD= 0.2000000E-02 threshold for treating states as degnerate
   RTIME   =   -0.100 relaxation time in fs
  (WPLASMAI=    0.000 imaginary part of plasma frequency in eV, 0.658/RTIME)
   DFIELD  = 0.0000000 0.0000000 0.0000000 field for delta impulse in time

 Orbital magnetization related:
   ORBITALMAG=     F  switch on orbital magnetization
   LCHIMAG   =     F  perturbation theory with respect to B field
   DQ        =  0.001000  dq finite difference perturbation B field
   LLRAUG    =     F  two centre corrections for induced B field



--------------------------------------------------------------------------------------------------------


 Static calculation
 charge density and potential will be updated during run
 spin polarized calculation
 Variant of blocked Davidson
 Davidson routine will perform the subspace rotation
 perform sub-space diagonalisation
    after iterative eigenvector-optimisation
 modified Broyden-mixing scheme, WC =      100.0
 initial mixing is a Kerker type mixing with AMIX =  0.2500 and BMIX =      0.0001
 Hartree-type preconditioning will be used
 using additional bands           32
 reciprocal scheme for non local part
 use partial core corrections
 calculate Harris-corrections to forces   (improved forces if not selfconsistent)
 use gradient corrections 
 use of overlap-Matrix (Vanderbilt PP)
 Fermi weights with tetrahedron method with Bloechl corrections


--------------------------------------------------------------------------------------------------------


  energy-cutoff  :      440.00
  volume of cell :     1755.96
      direct lattice vectors                 reciprocal lattice vectors
    12.459081811 -0.171666427  0.000000000     0.080922633  0.047893460 -0.000000000
    -6.229540906 10.525671895  0.000000000     0.001319792  0.095786921 -0.000000000
     0.000000000  0.000000000 13.500000000    -0.000000000 -0.000000000  0.074074074

  length of vectors
    12.460264401 12.230983146 13.500000000     0.094033271  0.095796013  0.074074074



 k-points in units of 2pi/SCALE and weight: K-Points                                
   0.00000000  0.00000000  0.00000000       0.111
   0.02427679  0.01436804  0.00000000       0.222
   0.00039594  0.02873608  0.00000000       0.222
   0.02467273  0.04310411  0.00000000       0.222
  -0.02388085  0.01436804  0.00000000       0.222

 k-points in reciprocal lattice and weights: K-Points                                
   0.00000000  0.00000000  0.00000000       0.111
   0.33333333  0.00000000  0.00000000       0.222
   0.00000000  0.33333333  0.00000000       0.222
   0.33333333  0.33333333  0.00000000       0.222
  -0.33333333  0.33333333  0.00000000       0.222

 position of ions in fractional coordinates (direct lattice) 
   0.10181184  0.20407767  0.40765441
   0.29207875  0.41308560  0.43295838
   0.09171419  0.38780037  0.40848976
   0.44836083  0.05539011  0.49487292
   0.48399991  0.45227464  0.40390887
   0.12195731  0.05400309  0.47270658
   0.05947097  0.69482155  0.52435764
   0.27695156  0.86548245  0.53708048
   0.12086572  0.90510577  0.56462521
   0.44235945  0.53764938  0.55093474
   0.44065781  0.85446768  0.49129663
   0.03420838  0.50673901  0.49227699
   0.63030034  0.22190624  0.43728328
   0.77802470  0.41096032  0.32612207
   0.63790981  0.41852169  0.42516412
   0.93303893  0.04812396  0.48359694
   0.94494464  0.40772277  0.33460557
   0.63436240  0.05884728  0.50594344
   0.61520665  0.69429787  0.62006120
   0.79754813  0.90656377  0.59525557
   0.60324167  0.87764569  0.57254478
   0.92259998  0.58289902  0.39983516
   0.99070489  0.95877383  0.61867103
   0.63798886  0.54894732  0.53937750
   0.16508770  0.33419409  0.40768757
   0.16967516  0.14908221  0.40880611
   0.34408207  0.99230565  0.54873503
   0.55471224  0.41536492  0.36232595
   0.36961623  0.41114349  0.36900411
   0.50941795  0.17580137  0.46736693
   0.15191312  0.96711880  0.47902535
   0.02435479  0.03687848  0.53682056
   0.15263119  0.81105694  0.56723431
   0.06597994  0.59621201  0.56058809
   0.32063405  0.47851637  0.52197923
   0.50168832  0.79717181  0.51907402
   0.31373122  0.78804058  0.49964719
   0.48660277  0.61837838  0.62604768
   0.09261863  0.44176137  0.49655576
   0.96399115  0.49508962  0.41341770
   0.68468223  0.34158457  0.39041051
   0.70215107  0.17725687  0.47098364
   0.81560130  0.95776326  0.50430691
   0.03104361  0.37465361  0.32644276
   0.84291709  0.36243685  0.28278988
   0.97481163  0.14082115  0.41743883
   0.66457112  0.00518280  0.57761588
   0.50547953  0.98192485  0.47207696
   0.66720830  0.82588184  0.62015285
   0.68987931  0.64880934  0.59973611
   0.83034531  0.54427688  0.33642935
   0.05825292  0.90694826  0.64303625
   0.87878587  0.91542351  0.66196888
   0.98860055  0.69435002  0.45094513
   0.68589960  0.47968215  0.51058873
   0.52144052  0.51659102  0.49520680
   0.24752885  0.57697868  0.59824940
   0.26155654  0.58561656  0.83633397
   0.23232168  0.49491713  0.88134824

 position of ions in cartesian coordinates  (Angst):
  -0.00282817  2.13057688  5.50333460
   1.06569943  4.29786339  5.84493808
  -1.27314363  4.06611521  5.51461182
   5.24110928  0.50604967  6.68078436
   3.21273111  4.67740798  5.45276971
   1.18306161  0.54748283  6.38153880
  -3.58746565  7.30325451  7.07882820
  -1.94099622  9.06224104  7.25058643
  -4.13251754  9.50609780  7.62244028
   2.16208380  5.58318267  7.43761905
   0.16725033  8.91820029  6.63250454
  -2.73054643  5.32789612  6.64573941
   6.47058948  2.22751088  5.90332424
   7.13337929  4.19207281  4.40264800
   5.34057250  4.29571428  5.73971564
  11.32501824  0.34636553  6.52855875
   9.23321695  4.12934080  4.51717524
   7.53698153  0.51050845  6.83023648
   3.33975301  7.20234125  8.37082620
   4.28924136  9.40528052  8.03595023
   2.04850764  9.13425420  7.72935455
   7.86355539  5.97702434  5.39777472
   6.37055242  9.92166802  8.35205886
   4.52906558  5.66851816  7.28159626
  -0.02503450  3.48927728  5.50378225
   1.18528296  1.54006287  5.51888252
  -1.89466192 10.38561631  7.40792290
   4.32367237  4.27676939  4.89140031
   2.04384366  4.26411081  4.98155552
   5.25171815  1.76297755  6.30945360
  -4.13200813 10.15349679  6.46684223
   0.07370232  0.38398990  7.24707761
  -3.15086794  8.51071761  7.65766322
  -2.89207767  6.26420547  7.56793928
   1.01386852  4.98166419  7.04671963
   1.28456144  8.30464585  7.00749931
  -1.00032817  8.24079951  6.74523704
   2.21041029  6.42531457  8.45164373
  -1.59802741  4.63393577  6.70350276
   8.92626359  5.04566600  5.58113893
   6.40259689  3.47787012  5.27054184
   7.64392868  1.74521186  6.35827918
   4.19521785  9.94109049  6.80814322
  -1.94714504  3.93815178  4.40697723
   8.24415787  3.67019078  3.81766334
  11.26800676  1.31489483  5.63542422
   8.24765949 -0.05953212  7.79781445
   0.18086981 10.24864494  6.37303900
   3.16793811  8.57842399  8.37206350
   4.55347850  6.71072511  8.09643742
   6.95474506  5.58633747  4.54179625
  -4.92409343  9.53623972  8.68098942
   5.24619682  9.48458947  8.93657989
   7.99157328  7.13879098  6.08775924
   5.55747964  4.93123097  6.89294791
   3.27854517  5.34795373  6.68529185
  -0.51033013  6.03059592  8.07636688
  -0.38936806  6.11910734 11.29050863
  -0.18859165  5.16945346 11.89820122



--------------------------------------------------------------------------------------------------------


 k-point  1 :   0.0000 0.0000 0.0000  plane waves:   36771
 k-point  2 :   0.3333 0.0000 0.0000  plane waves:   36762
 k-point  3 :   0.0000 0.3333 0.0000  plane waves:   36808
 k-point  4 :   0.3333 0.3333 0.0000  plane waves:   36787
 k-point  5 :  -0.3333 0.3333 0.0000  plane waves:   36785

 maximum and minimum number of plane-waves per node :      3089     3039

 maximum number of plane-waves:     36808
 maximum index in each direction: 
   IXMAX=   21   IYMAX=   20   IZMAX=   23
   IXMIN=  -21   IYMIN=  -21   IZMIN=  -23


 parallel 3D FFT for wavefunctions:
    minimum data exchange during FFTs selected (reduces bandwidth)
 parallel 3D FFT for charge:
    minimum data exchange during FFTs selected (reduces bandwidth)


 total amount of memory used by VASP MPI-rank0    75962. kBytes
=======================================================================

   base      :      30000. kBytes
   nonl-proj :      13922. kBytes
   fftplans  :       2626. kBytes
   grid      :       7821. kBytes
   one-center:        155. kBytes
   wavefun   :      21438. kBytes

     INWAV:  cpu time    0.0000: real time    0.0000
 Broyden mixing: mesh for mixing (old mesh)
   NGX = 43   NGY = 41   NGZ = 47
  (NGX  =128   NGY  =128   NGZ  =140)
  gives a total of  82861 points

 initial charge density was supplied:
 charge density of overlapping atoms calculated
 number of electron     280.0000000 magnetization       2.0000000
 keeping initial charge density in first step


--------------------------------------------------------------------------------------------------------


 Maximum index for augmentation-charges          169 (set IRDMAX)


--------------------------------------------------------------------------------------------------------


 First call to EWALD:  gamma=   0.147
 Maximum number of real-space cells 3x 3x 3
 Maximum number of reciprocal cells 3x 3x 3

    FEWALD:  cpu time    0.0040: real time    0.0040


--------------------------------------- Iteration      1(   1)  ---------------------------------------


    POTLOK:  cpu time    0.0687: real time    0.0947
    SETDIJ:  cpu time    0.0087: real time    0.0088
     EDDAV:  cpu time    8.3562: real time    8.3938
 BZINTS: Fermi energy: 10.941169;280.000000 electrons
         Band energy:***********;  BLOECHL correction: -0.039257
       DOS:  cpu time    0.2737: real time    0.2737
    --------------------------------------------
      LOOP:  cpu time    8.7073: real time    8.7710

 eigenvalue-minimisations  :  3808
 total energy-change (2. order) : 0.2618611E+04  (-0.1108899E+05)
 number of electron     280.0000000 magnetization       2.0000000
 augmentation part      280.0000000 magnetization       2.0000000

 Free energy of the ion-electron system (eV)
  ---------------------------------------------------
  alpha Z        PSCENC =       212.20360122
  Ewald energy   TEWEN  =     20645.65194812
  -Hartree energ DENC   =    -32827.24926814
  -exchange      EXHF   =         0.00000000
  -V(xc)+E(xc)   XCENC  =      1071.23404555
  PAW double counting   =     11453.83848114   -11942.90478952
  entropy T*S    EENTRO =         0.00000000
  eigenvalues    EBANDS =     -1165.89911097
  atomic energy  EATOM  =     15171.73615219
  Solvation  Ediel_sol  =         0.00000000
  ---------------------------------------------------
  free energy    TOTEN  =      2618.61105958 eV

  energy without entropy =     2618.61105958  energy(sigma->0) =     2618.61105958


--------------------------------------------------------------------------------------------------------




--------------------------------------- Iteration      1(   2)  ---------------------------------------


     EDDAV:  cpu time    9.7627: real time    9.7754
 BZINTS: Fermi energy: -0.061513;280.000000 electrons
         Band energy:***********;  BLOECHL correction:  0.000000
       DOS:  cpu time    0.0180: real time    0.0180
    --------------------------------------------
      LOOP:  cpu time    9.7807: real time    9.7934

 eigenvalue-minimisations  :  4632
 total energy-change (2. order) :-0.2690214E+04  (-0.2606372E+04)
 number of electron     280.0000000 magnetization       2.0000000
 augmentation part      280.0000000 magnetization       2.0000000

 Free energy of the ion-electron system (eV)
  ---------------------------------------------------
  alpha Z        PSCENC =       212.20360122
  Ewald energy   TEWEN  =     20645.65194812
  -Hartree energ DENC   =    -32827.24926814
  -exchange      EXHF   =         0.00000000
  -V(xc)+E(xc)   XCENC  =      1071.23404555
  PAW double counting   =     11453.83848114   -11942.90478952
  entropy T*S    EENTRO =         0.00000000
  eigenvalues    EBANDS =     -3856.11306326
  atomic energy  EATOM  =     15171.73615219
  Solvation  Ediel_sol  =         0.00000000
  ---------------------------------------------------
  free energy    TOTEN  =       -71.60289272 eV

  energy without entropy =      -71.60289272  energy(sigma->0) =      -71.60289272


--------------------------------------------------------------------------------------------------------




--------------------------------------- Iteration      1(   3)  ---------------------------------------


     EDDAV:  cpu time    8.3479: real time    8.3544
 BZINTS: Fermi energy: -3.221993;280.000000 electrons
         Band energy:***********;  BLOECHL correction:  0.000000
       DOS:  cpu time    0.0169: real time    0.0169
    --------------------------------------------
      LOOP:  cpu time    8.3648: real time    8.3714

 eigenvalue-minimisations  :  3988
 total energy-change (2. order) :-0.4317437E+03  (-0.4277524E+03)
 number of electron     280.0000000 magnetization       2.0000000
 augmentation part      280.0000000 magnetization       2.0000000

 Free energy of the ion-electron system (eV)
  ---------------------------------------------------
  alpha Z        PSCENC =       212.20360122
  Ewald energy   TEWEN  =     20645.65194812
  -Hartree energ DENC   =    -32827.24926814
  -exchange      EXHF   =         0.00000000
  -V(xc)+E(xc)   XCENC  =      1071.23404555
  PAW double counting   =     11453.83848114   -11942.90478952
  entropy T*S    EENTRO =         0.00000000
  eigenvalues    EBANDS =     -4287.85675000
  atomic energy  EATOM  =     15171.73615219
  Solvation  Ediel_sol  =         0.00000000
  ---------------------------------------------------
  free energy    TOTEN  =      -503.34657945 eV

  energy without entropy =     -503.34657945  energy(sigma->0) =     -503.34657945


--------------------------------------------------------------------------------------------------------




--------------------------------------- Iteration      1(   4)  ---------------------------------------


     EDDAV:  cpu time    8.9787: real time    8.9822
 BZINTS: Fermi energy: -3.496124;280.000000 electrons
         Band energy:***********;  BLOECHL correction:  0.000000
       DOS:  cpu time    0.0166: real time    0.0166
    --------------------------------------------
      LOOP:  cpu time    8.9953: real time    8.9988

 eigenvalue-minimisations  :  4392
 total energy-change (2. order) :-0.1699393E+02  (-0.1666238E+02)
 number of electron     280.0000000 magnetization       2.0000000
 augmentation part      280.0000000 magnetization       2.0000000

 Free energy of the ion-electron system (eV)
  ---------------------------------------------------
  alpha Z        PSCENC =       212.20360122
  Ewald energy   TEWEN  =     20645.65194812
  -Hartree energ DENC   =    -32827.24926814
  -exchange      EXHF   =         0.00000000
  -V(xc)+E(xc)   XCENC  =      1071.23404555
  PAW double counting   =     11453.83848114   -11942.90478952
  entropy T*S    EENTRO =         0.00000000
  eigenvalues    EBANDS =     -4304.85067871
  atomic energy  EATOM  =     15171.73615219
  Solvation  Ediel_sol  =         0.00000000
  ---------------------------------------------------
  free energy    TOTEN  =      -520.34050817 eV

  energy without entropy =     -520.34050817  energy(sigma->0) =     -520.34050817


--------------------------------------------------------------------------------------------------------




--------------------------------------- Iteration      1(   5)  ---------------------------------------


     EDDAV:  cpu time    9.7747: real time    9.7778
 BZINTS: Fermi energy: -3.511128;280.000000 electrons
         Band energy:***********;  BLOECHL correction:  0.000000
       DOS:  cpu time    0.0168: real time    0.0168
    CHARGE:  cpu time    0.1346: real time    0.1347
    MIXING:  cpu time    0.0024: real time    0.0025
    --------------------------------------------
      LOOP:  cpu time    9.9285: real time    9.9319

 eigenvalue-minimisations  :  4784
 total energy-change (2. order) :-0.6398155E+00  (-0.6347369E+00)
 number of electron     280.0000008 magnetization       0.0000001
 augmentation part       20.2575762 magnetization       0.0301527

 Broyden mixing:
  rms(total) = 0.42082E+01    rms(broyden)= 0.42054E+01
  rms(prec ) = 0.47365E+01
  weight for this iteration     100.00

 Free energy of the ion-electron system (eV)
  ---------------------------------------------------
  alpha Z        PSCENC =       212.20360122
  Ewald energy   TEWEN  =     20645.65194812
  -Hartree energ DENC   =    -32827.24926814
  -exchange      EXHF   =         0.00000000
  -V(xc)+E(xc)   XCENC  =      1071.23404555
  PAW double counting   =     11453.83848114   -11942.90478952
  entropy T*S    EENTRO =         0.00000000
  eigenvalues    EBANDS =     -4305.49049423
  atomic energy  EATOM  =     15171.73615219
  Solvation  Ediel_sol  =         0.00000000
  ---------------------------------------------------
  free energy    TOTEN  =      -520.98032368 eV

  energy without entropy =     -520.98032368  energy(sigma->0) =     -520.98032368


--------------------------------------------------------------------------------------------------------




--------------------------------------- Iteration      1(   6)  ---------------------------------------


    POTLOK:  cpu time    0.0732: real time    0.0736
    SETDIJ:  cpu time    0.0087: real time    0.0087
     EDDAV:  cpu time    9.3756: real time    9.3781
 BZINTS: Fermi energy: -2.885971;280.000000 electrons
         Band energy:***********;  BLOECHL correction:  0.000000
       DOS:  cpu time    0.0178: real time    0.0178
    CHARGE:  cpu time    0.1476: real time    0.1476
    MIXING:  cpu time    0.0016: real time    0.0018
    --------------------------------------------
      LOOP:  cpu time    9.6245: real time    9.6275

 eigenvalue-minimisations  :  4272
 total energy-change (2. order) : 0.2621283E+02  (-0.5486294E+01)
 number of electron     280.0000008 magnetization      -0.0000000
 augmentation part       19.1993026 magnetization       0.0096786

 Broyden mixing:
  rms(total) = 0.26318E+01    rms(broyden)= 0.26314E+01
  rms(prec ) = 0.28774E+01
  weight for this iteration     100.00

 eigenvalues of (default mixing * dielectric matrix)
  average eigenvalue GAMMA=   1.4125
  1.4125

 Free energy of the ion-electron system (eV)
  ---------------------------------------------------
  alpha Z        PSCENC =       212.20360122
  Ewald energy   TEWEN  =     20645.65194812
  -Hartree energ DENC   =    -33091.92341516
  -exchange      EXHF   =         0.00000000
  -V(xc)+E(xc)   XCENC  =      1086.10886522
  PAW double counting   =     15060.42753482   -15551.54535746
  entropy T*S    EENTRO =         0.00000000
  eigenvalues    EBANDS =     -4027.42682297
  atomic energy  EATOM  =     15171.73615219
  Solvation  Ediel_sol  =         0.00000000
  ---------------------------------------------------
  free energy    TOTEN  =      -494.76749403 eV

  energy without entropy =     -494.76749403  energy(sigma->0) =     -494.76749403


--------------------------------------------------------------------------------------------------------




--------------------------------------- Iteration      1(   7)  ---------------------------------------


    POTLOK:  cpu time    0.0789: real time    0.0796
    SETDIJ:  cpu time    0.0088: real time    0.0088
     EDDAV:  cpu time    8.7199: real time    8.7204
 BZINTS: Fermi energy: -2.844711;280.000000 electrons
         Band energy:***********;  BLOECHL correction:  0.000000
       DOS:  cpu time    0.0158: real time    0.0158
    CHARGE:  cpu time    0.1384: real time    0.1384
    MIXING:  cpu time    0.0015: real time    0.0015
    --------------------------------------------
      LOOP:  cpu time    8.9633: real time    8.9645

 eigenvalue-minimisations  :  4136
 total energy-change (2. order) : 0.4990895E+01  (-0.4744605E+01)
 number of electron     280.0000011 magnetization      -0.0000000
 augmentation part       18.7732924 magnetization       0.0011169

 Broyden mixing:
  rms(total) = 0.17165E+01    rms(broyden)= 0.17162E+01
  rms(prec ) = 0.18941E+01
  weight for this iteration     100.00

 eigenvalues of (default mixing * dielectric matrix)
  average eigenvalue GAMMA=   1.4826
  0.8817  2.0834

 Free energy of the ion-electron system (eV)
  ---------------------------------------------------
  alpha Z        PSCENC =       212.20360122
  Ewald energy   TEWEN  =     20645.65194812
  -Hartree energ DENC   =    -33346.83224250
  -exchange      EXHF   =         0.00000000
  -V(xc)+E(xc)   XCENC  =      1097.27269712
  PAW double counting   =     19721.42426415   -20215.47894273
  entropy T*S    EENTRO =         0.00000000
  eigenvalues    EBANDS =     -3775.75407653
  atomic energy  EATOM  =     15171.73615219
  Solvation  Ediel_sol  =         0.00000000
  ---------------------------------------------------
  free energy    TOTEN  =      -489.77659896 eV

  energy without entropy =     -489.77659896  energy(sigma->0) =     -489.77659896


--------------------------------------------------------------------------------------------------------




--------------------------------------- Iteration      1(   8)  ---------------------------------------


    POTLOK:  cpu time    0.0737: real time    0.0766
    SETDIJ:  cpu time    0.0088: real time    0.0088
     EDDAV:  cpu time    8.3636: real time    8.3642
 BZINTS: Fermi energy: -1.859465;280.000000 electrons
         Band energy:***********;  BLOECHL correction:  0.000000
       DOS:  cpu time    0.0164: real time    0.0164
    CHARGE:  cpu time    0.1291: real time    0.1291
    MIXING:  cpu time    0.0016: real time    0.0016
    --------------------------------------------
      LOOP:  cpu time    8.5932: real time    8.5967

 eigenvalue-minimisations  :  3984
 total energy-change (2. order) : 0.2633697E+01  (-0.1130242E+01)
 number of electron     280.0000012 magnetization       0.0000000
 augmentation part       18.5546755 magnetization       0.0000343

 Broyden mixing:
  rms(total) = 0.11685E+01    rms(broyden)= 0.11684E+01
  rms(prec ) = 0.12258E+01
  weight for this iteration     100.00

 eigenvalues of (default mixing * dielectric matrix)
  average eigenvalue GAMMA=   1.6875
  3.0862  1.2748  0.7015

 Free energy of the ion-electron system (eV)
  ---------------------------------------------------
  alpha Z        PSCENC =       212.20360122
  Ewald energy   TEWEN  =     20645.65194812
  -Hartree energ DENC   =    -33448.07360239
  -exchange      EXHF   =         0.00000000
  -V(xc)+E(xc)   XCENC  =      1102.56896166
  PAW double counting   =     23271.92962059   -23768.28702334
  entropy T*S    EENTRO =         0.00000000
  eigenvalues    EBANDS =     -3674.87256013
  atomic energy  EATOM  =     15171.73615219
  Solvation  Ediel_sol  =         0.00000000
  ---------------------------------------------------
  free energy    TOTEN  =      -487.14290209 eV

  energy without entropy =     -487.14290209  energy(sigma->0) =     -487.14290209


--------------------------------------------------------------------------------------------------------




--------------------------------------- Iteration      1(   9)  ---------------------------------------


    POTLOK:  cpu time    0.0702: real time    0.0747
    SETDIJ:  cpu time    0.0088: real time    0.0088
     EDDAV:  cpu time    9.1010: real time    9.1016
 BZINTS: Fermi energy: -1.879470;280.000000 electrons
         Band energy:***********;  BLOECHL correction:  0.000000
       DOS:  cpu time    0.0162: real time    0.0162
    CHARGE:  cpu time    0.1322: real time    0.1322
    MIXING:  cpu time    0.0016: real time    0.0016
    --------------------------------------------
      LOOP:  cpu time    9.3300: real time    9.3351

 eigenvalue-minimisations  :  4376
 total energy-change (2. order) :-0.2246542E+00  (-0.9185866E+00)
 number of electron     280.0000007 magnetization       0.0000000
 augmentation part       18.5745372 magnetization      -0.0001426

 Broyden mixing:
  rms(total) = 0.64064E+00    rms(broyden)= 0.64015E+00
  rms(prec ) = 0.85050E+00
  weight for this iteration     100.00

 eigenvalues of (default mixing * dielectric matrix)
  average eigenvalue GAMMA=   1.6147
  3.6148  1.3622  0.7410  0.7410

 Free energy of the ion-electron system (eV)
  ---------------------------------------------------
  alpha Z        PSCENC =       212.20360122
  Ewald energy   TEWEN  =     20645.65194812
  -Hartree energ DENC   =    -33503.40829112
  -exchange      EXHF   =         0.00000000
  -V(xc)+E(xc)   XCENC  =      1105.20342661
  PAW double counting   =     27758.93756937   -28259.19224282
  entropy T*S    EENTRO =         0.00000000
  eigenvalues    EBANDS =     -3618.49971986
  atomic energy  EATOM  =     15171.73615219
  Solvation  Ediel_sol  =         0.00000000
  ---------------------------------------------------
  free energy    TOTEN  =      -487.36755629 eV

  energy without entropy =     -487.36755629  energy(sigma->0) =     -487.36755629


--------------------------------------------------------------------------------------------------------




--------------------------------------- Iteration      1(  10)  ---------------------------------------


    POTLOK:  cpu time    0.0777: real time    0.0785
    SETDIJ:  cpu time    0.0089: real time    0.0089
     EDDAV:  cpu time    8.7527: real time    8.7533
 BZINTS: Fermi energy: -1.605651;280.000000 electrons
         Band energy:***********;  BLOECHL correction:  0.000000
       DOS:  cpu time    0.0168: real time    0.0168
    CHARGE:  cpu time    0.1326: real time    0.1327
    MIXING:  cpu time    0.0025: real time    0.0024
    --------------------------------------------
      LOOP:  cpu time    8.9912: real time    8.9926

 eigenvalue-minimisations  :  4200
 total energy-change (2. order) : 0.5748004E+00  (-0.7755171E+00)
 number of electron     280.0000011 magnetization      -0.0000000
 augmentation part       18.5553405 magnetization      -0.0000557

 Broyden mixing:
  rms(total) = 0.30132E+00    rms(broyden)= 0.30062E+00
  rms(prec ) = 0.35540E+00
  weight for this iteration     100.00

 eigenvalues of (default mixing * dielectric matrix)
  average eigenvalue GAMMA=   1.5427
  3.8548  1.5992  1.0380  0.6107  0.6107

 Free energy of the ion-electron system (eV)
  ---------------------------------------------------
  alpha Z        PSCENC =       212.20360122
  Ewald energy   TEWEN  =     20645.65194812
  -Hartree energ DENC   =    -33513.76007276
  -exchange      EXHF   =         0.00000000
  -V(xc)+E(xc)   XCENC  =      1106.09608472
  PAW double counting   =     29661.37100996   -30162.14413823
  entropy T*S    EENTRO =         0.00000000
  eigenvalues    EBANDS =     -3607.94734112
  atomic energy  EATOM  =     15171.73615219
  Solvation  Ediel_sol  =         0.00000000
  ---------------------------------------------------
  free energy    TOTEN  =      -486.79275592 eV

  energy without entropy =     -486.79275592  energy(sigma->0) =     -486.79275592


--------------------------------------------------------------------------------------------------------




--------------------------------------- Iteration      1(  11)  ---------------------------------------


    POTLOK:  cpu time    0.0673: real time    0.0729
    SETDIJ:  cpu time    0.0089: real time    0.0089
     EDDAV:  cpu time    8.8546: real time    8.8571
 BZINTS: Fermi energy: -1.630658;280.000000 electrons
         Band energy:***********;  BLOECHL correction:  0.000000
       DOS:  cpu time    0.0163: real time    0.0163
    CHARGE:  cpu time    0.1380: real time    0.1380
    MIXING:  cpu time    0.0023: real time    0.0023
    --------------------------------------------
      LOOP:  cpu time    9.0874: real time    9.0955

 eigenvalue-minimisations  :  4200
 total energy-change (2. order) : 0.7160461E-01  (-0.1190838E+00)
 number of electron     280.0000010 magnetization      -0.0000000
 augmentation part       18.5493525 magnetization      -0.0000055

 Broyden mixing:
  rms(total) = 0.16601E+00    rms(broyden)= 0.16591E+00
  rms(prec ) = 0.21059E+00
  weight for this iteration     100.00

 eigenvalues of (default mixing * dielectric matrix)
  average eigenvalue GAMMA=   1.5183
  3.8401  1.7763  1.3028  1.0039  0.5933  0.5933

 Free energy of the ion-electron system (eV)
  ---------------------------------------------------
  alpha Z        PSCENC =       212.20360122
  Ewald energy   TEWEN  =     20645.65194812
  -Hartree energ DENC   =    -33491.10864213
  -exchange      EXHF   =         0.00000000
  -V(xc)+E(xc)   XCENC  =      1105.57945751
  PAW double counting   =     30471.03236364   -30971.41747773
  entropy T*S    EENTRO =         0.00000000
  eigenvalues    EBANDS =     -3630.39855412
  atomic energy  EATOM  =     15171.73615219
  Solvation  Ediel_sol  =         0.00000000
  ---------------------------------------------------
  free energy    TOTEN  =      -486.72115130 eV

  energy without entropy =     -486.72115130  energy(sigma->0) =     -486.72115130


--------------------------------------------------------------------------------------------------------




--------------------------------------- Iteration      1(  12)  ---------------------------------------


    POTLOK:  cpu time    0.0733: real time    0.0767
    SETDIJ:  cpu time    0.0090: real time    0.0090
     EDDAV:  cpu time    9.1700: real time    9.1727
 BZINTS: Fermi energy: -1.764441;280.000000 electrons
         Band energy:***********;  BLOECHL correction:  0.000000
       DOS:  cpu time    0.0164: real time    0.0164
    CHARGE:  cpu time    0.1720: real time    0.1720
    MIXING:  cpu time    0.0028: real time    0.0028
    --------------------------------------------
      LOOP:  cpu time    9.4436: real time    9.4496

 eigenvalue-minimisations  :  4296
 total energy-change (2. order) :-0.1224392E-01  (-0.1225728E+00)
 number of electron     280.0000011 magnetization      -0.0000000
 augmentation part       18.5659396 magnetization       0.0000442

 Broyden mixing:
  rms(total) = 0.15723E+00    rms(broyden)= 0.15700E+00
  rms(prec ) = 0.23594E+00
  weight for this iteration     100.00

 eigenvalues of (default mixing * dielectric matrix)
  average eigenvalue GAMMA=   1.4687
  3.8384  2.2202  1.3507  0.8669  0.8669  0.5689  0.5689

 Free energy of the ion-electron system (eV)
  ---------------------------------------------------
  alpha Z        PSCENC =       212.20360122
  Ewald energy   TEWEN  =     20645.65194812
  -Hartree energ DENC   =    -33472.94166734
  -exchange      EXHF   =         0.00000000
  -V(xc)+E(xc)   XCENC  =      1104.91561172
  PAW double counting   =     30689.25322802   -31189.30062985
  entropy T*S    EENTRO =         0.00000000
  eigenvalues    EBANDS =     -3648.25163928
  atomic energy  EATOM  =     15171.73615219
  Solvation  Ediel_sol  =         0.00000000
  ---------------------------------------------------
  free energy    TOTEN  =      -486.73339522 eV

  energy without entropy =     -486.73339522  energy(sigma->0) =     -486.73339522


--------------------------------------------------------------------------------------------------------




--------------------------------------- Iteration      1(  13)  ---------------------------------------


    POTLOK:  cpu time    0.0823: real time    0.0890
    SETDIJ:  cpu time    0.0101: real time    0.0101
     EDDAV:  cpu time    9.3253: real time    9.3277
 BZINTS: Fermi energy: -1.735684;280.000000 electrons
         Band energy:***********;  BLOECHL correction:  0.000000
       DOS:  cpu time    0.0165: real time    0.0164
    CHARGE:  cpu time    0.1330: real time    0.1330
    MIXING:  cpu time    0.0020: real time    0.0020
    --------------------------------------------
      LOOP:  cpu time    9.5691: real time    9.5782

 eigenvalue-minimisations  :  4176
 total energy-change (2. order) : 0.5935754E-01  (-0.6858072E-01)
 number of electron     280.0000010 magnetization       0.0000000
 augmentation part       18.5637546 magnetization       0.0000746

 Broyden mixing:
  rms(total) = 0.65816E-01    rms(broyden)= 0.65510E-01
  rms(prec ) = 0.89994E-01
  weight for this iteration     100.00

 eigenvalues of (default mixing * dielectric matrix)
  average eigenvalue GAMMA=   1.4375
  3.8326  2.5605  1.3587  1.0178  1.0178  0.6130  0.6130  0.4866

 Free energy of the ion-electron system (eV)
  ---------------------------------------------------
  alpha Z        PSCENC =       212.20360122
  Ewald energy   TEWEN  =     20645.65194812
  -Hartree energ DENC   =    -33462.97469580
  -exchange      EXHF   =         0.00000000
  -V(xc)+E(xc)   XCENC  =      1104.56604377
  PAW double counting   =     30807.34351199   -31307.15605149
  entropy T*S    EENTRO =         0.00000000
  eigenvalues    EBANDS =     -3658.04454766
  atomic energy  EATOM  =     15171.73615219
  Solvation  Ediel_sol  =         0.00000000
  ---------------------------------------------------
  free energy    TOTEN  =      -486.67403768 eV

  energy without entropy =     -486.67403768  energy(sigma->0) =     -486.67403768


--------------------------------------------------------------------------------------------------------




--------------------------------------- Iteration      1(  14)  ---------------------------------------


    POTLOK:  cpu time    0.0695: real time    0.0722
    SETDIJ:  cpu time    0.0088: real time    0.0088
     EDDAV:  cpu time    8.1006: real time    8.1011
 BZINTS: Fermi energy: -1.750688;280.000000 electrons
         Band energy:***********;  BLOECHL correction:  0.000000
       DOS:  cpu time    0.0164: real time    0.0164
    CHARGE:  cpu time    0.1307: real time    0.1307
    MIXING:  cpu time    0.0030: real time    0.0030
    --------------------------------------------
      LOOP:  cpu time    8.3290: real time    8.3322

 eigenvalue-minimisations  :  3872
 total energy-change (2. order) : 0.3142056E-02  (-0.5039913E-02)
 number of electron     280.0000010 magnetization       0.0000000
 augmentation part       18.5689515 magnetization       0.0000725

 Broyden mixing:
  rms(total) = 0.39505E-01    rms(broyden)= 0.39497E-01
  rms(prec ) = 0.49498E-01
  weight for this iteration     100.00

 eigenvalues of (default mixing * dielectric matrix)
  average eigenvalue GAMMA=   1.3844
  3.7830  2.5441  1.3502  1.1084  1.1084  0.7271  0.7271  0.5559  0.5559

 Free energy of the ion-electron system (eV)
  ---------------------------------------------------
  alpha Z        PSCENC =       212.20360122
  Ewald energy   TEWEN  =     20645.65194812
  -Hartree energ DENC   =    -33459.76681311
  -exchange      EXHF   =         0.00000000
  -V(xc)+E(xc)   XCENC  =      1104.41010228
  PAW double counting   =     30867.14843852   -31366.91306454
  entropy T*S    EENTRO =         0.00000000
  eigenvalues    EBANDS =     -3661.14126030
  atomic energy  EATOM  =     15171.73615219
  Solvation  Ediel_sol  =         0.00000000
  ---------------------------------------------------
  free energy    TOTEN  =      -486.67089562 eV

  energy without entropy =     -486.67089562  energy(sigma->0) =     -486.67089562


--------------------------------------------------------------------------------------------------------




--------------------------------------- Iteration      1(  15)  ---------------------------------------


    POTLOK:  cpu time    0.0729: real time    0.0734
    SETDIJ:  cpu time    0.0105: real time    0.0105
     EDDAV:  cpu time    8.5695: real time    8.5716
 BZINTS: Fermi energy: -1.750688;280.000000 electrons
         Band energy:***********;  BLOECHL correction:  0.000000
       DOS:  cpu time    0.0160: real time    0.0160
    CHARGE:  cpu time    0.1295: real time    0.1295
    MIXING:  cpu time    0.0024: real time    0.0024
    --------------------------------------------
      LOOP:  cpu time    8.8008: real time    8.8033

 eigenvalue-minimisations  :  4152
 total energy-change (2. order) : 0.9092320E-03  (-0.8613287E-03)
 number of electron     280.0000010 magnetization       0.0000000
 augmentation part       18.5696785 magnetization       0.0000487

 Broyden mixing:
  rms(total) = 0.28490E-01    rms(broyden)= 0.28485E-01
  rms(prec ) = 0.33166E-01
  weight for this iteration     100.00

 eigenvalues of (default mixing * dielectric matrix)
  average eigenvalue GAMMA=   1.4053
  3.6468  2.5496  1.7801  1.3465  1.3465  0.9661  0.6151  0.6151  0.6085  0.5789

 Free energy of the ion-electron system (eV)
  ---------------------------------------------------
  alpha Z        PSCENC =       212.20360122
  Ewald energy   TEWEN  =     20645.65194812
  -Hartree energ DENC   =    -33461.06726729
  -exchange      EXHF   =         0.00000000
  -V(xc)+E(xc)   XCENC  =      1104.43299940
  PAW double counting   =     30866.17363185   -31365.96944143
  entropy T*S    EENTRO =         0.00000000
  eigenvalues    EBANDS =     -3659.83161045
  atomic energy  EATOM  =     15171.73615219
  Solvation  Ediel_sol  =         0.00000000
  ---------------------------------------------------
  free energy    TOTEN  =      -486.66998639 eV

  energy without entropy =     -486.66998639  energy(sigma->0) =     -486.66998639


--------------------------------------------------------------------------------------------------------




--------------------------------------- Iteration      1(  16)  ---------------------------------------


    POTLOK:  cpu time    0.0749: real time    0.0753
    SETDIJ:  cpu time    0.0088: real time    0.0088
     EDDAV:  cpu time    8.4355: real time    8.4362
 BZINTS: Fermi energy: -1.749437;280.000000 electrons
         Band energy:***********;  BLOECHL correction:  0.000000
       DOS:  cpu time    0.0158: real time    0.0158
    CHARGE:  cpu time    0.1368: real time    0.1368
    MIXING:  cpu time    0.0024: real time    0.0024
    --------------------------------------------
      LOOP:  cpu time    8.6743: real time    8.6754

 eigenvalue-minimisations  :  4040
 total energy-change (2. order) : 0.3533915E-03  (-0.4561606E-03)
 number of electron     280.0000010 magnetization       0.0000000
 augmentation part       18.5683480 magnetization       0.0000286

 Broyden mixing:
  rms(total) = 0.14528E-01    rms(broyden)= 0.14510E-01
  rms(prec ) = 0.14940E-01
  weight for this iteration     100.00

 eigenvalues of (default mixing * dielectric matrix)
  average eigenvalue GAMMA=   1.4797
  3.5149  3.5149  1.9264  1.5722  1.1608  1.1608  0.9399  0.6226  0.6226  0.6708
  0.5705

 Free energy of the ion-electron system (eV)
  ---------------------------------------------------
  alpha Z        PSCENC =       212.20360122
  Ewald energy   TEWEN  =     20645.65194812
  -Hartree energ DENC   =    -33462.53170891
  -exchange      EXHF   =         0.00000000
  -V(xc)+E(xc)   XCENC  =      1104.46940439
  PAW double counting   =     30850.71783159   -31350.52322515
  entropy T*S    EENTRO =         0.00000000
  eigenvalues    EBANDS =     -3658.39363644
  atomic energy  EATOM  =     15171.73615219
  Solvation  Ediel_sol  =         0.00000000
  ---------------------------------------------------
  free energy    TOTEN  =      -486.66963300 eV

  energy without entropy =     -486.66963300  energy(sigma->0) =     -486.66963300


--------------------------------------------------------------------------------------------------------




--------------------------------------- Iteration      1(  17)  ---------------------------------------


    POTLOK:  cpu time    0.0761: real time    0.0768
    SETDIJ:  cpu time    0.0094: real time    0.0094
     EDDAV:  cpu time    8.1995: real time    8.2019
 BZINTS: Fermi energy: -1.745686;280.000000 electrons
         Band energy:***********;  BLOECHL correction:  0.000000
       DOS:  cpu time    0.0163: real time    0.0163
    CHARGE:  cpu time    0.1332: real time    0.1332
    MIXING:  cpu time    0.0030: real time    0.0030
    --------------------------------------------
      LOOP:  cpu time    8.4375: real time    8.4407

 eigenvalue-minimisations  :  3832
 total energy-change (2. order) :-0.1416794E-03  (-0.1086456E-03)
 number of electron     280.0000010 magnetization       0.0000000
 augmentation part       18.5684645 magnetization       0.0000465

 Broyden mixing:
  rms(total) = 0.67950E-02    rms(broyden)= 0.67934E-02
  rms(prec ) = 0.92294E-02
  weight for this iteration     100.00

 eigenvalues of (default mixing * dielectric matrix)
  average eigenvalue GAMMA=   1.4964
  3.6095  3.6095  2.3761  1.4995  1.2391  1.2391  0.9519  0.9519  0.6188  0.6188
  0.6797  0.5625

 Free energy of the ion-electron system (eV)
  ---------------------------------------------------
  alpha Z        PSCENC =       212.20360122
  Ewald energy   TEWEN  =     20645.65194812
  -Hartree energ DENC   =    -33462.62228618
  -exchange      EXHF   =         0.00000000
  -V(xc)+E(xc)   XCENC  =      1104.46631771
  PAW double counting   =     30867.04873014   -31366.84998745
  entropy T*S    EENTRO =         0.00000000
  eigenvalues    EBANDS =     -3658.30425043
  atomic energy  EATOM  =     15171.73615219
  Solvation  Ediel_sol  =         0.00000000
  ---------------------------------------------------
  free energy    TOTEN  =      -486.66977468 eV

  energy without entropy =     -486.66977468  energy(sigma->0) =     -486.66977468


--------------------------------------------------------------------------------------------------------




--------------------------------------- Iteration      1(  18)  ---------------------------------------


    POTLOK:  cpu time    0.0708: real time    0.0726
    SETDIJ:  cpu time    0.0094: real time    0.0094
     EDDAV:  cpu time    5.7723: real time    5.7728
 BZINTS: Fermi energy: -1.745686;280.000000 electrons
         Band energy:***********;  BLOECHL correction:  0.000000
       DOS:  cpu time    0.0162: real time    0.0162
    CHARGE:  cpu time    0.1341: real time    0.1341
    MIXING:  cpu time    0.0027: real time    0.0027
    --------------------------------------------
      LOOP:  cpu time    6.0055: real time    6.0079

 eigenvalue-minimisations  :  2320
 total energy-change (2. order) : 0.9939980E-05  (-0.1698717E-03)
 number of electron     280.0000010 magnetization       0.0000000
 augmentation part       18.5686522 magnetization       0.0000723

 Broyden mixing:
  rms(total) = 0.53931E-02    rms(broyden)= 0.53766E-02
  rms(prec ) = 0.77843E-02
  weight for this iteration     100.00

 eigenvalues of (default mixing * dielectric matrix)
  average eigenvalue GAMMA=   1.5132
  3.6376  3.5800  2.7098  1.4609  1.4609  1.2644  1.2644  0.9999  0.7661  0.7661
  0.6070  0.6070  0.5482

 Free energy of the ion-electron system (eV)
  ---------------------------------------------------
  alpha Z        PSCENC =       212.20360122
  Ewald energy   TEWEN  =     20645.65194812
  -Hartree energ DENC   =    -33462.89216676
  -exchange      EXHF   =         0.00000000
  -V(xc)+E(xc)   XCENC  =      1104.47745783
  PAW double counting   =     30877.25188863   -31377.05283625
  entropy T*S    EENTRO =         0.00000000
  eigenvalues    EBANDS =     -3658.04580970
  atomic energy  EATOM  =     15171.73615219
  Solvation  Ediel_sol  =         0.00000000
  ---------------------------------------------------
  free energy    TOTEN  =      -486.66976474 eV

  energy without entropy =     -486.66976474  energy(sigma->0) =     -486.66976474


--------------------------------------------------------------------------------------------------------




--------------------------------------- Iteration      1(  19)  ---------------------------------------


    POTLOK:  cpu time    0.0715: real time    0.0729
    SETDIJ:  cpu time    0.0090: real time    0.0090
     EDDAV:  cpu time    5.3211: real time    5.3216
 BZINTS: Fermi energy: -1.745686;280.000000 electrons
         Band energy:***********;  BLOECHL correction:  0.000000
       DOS:  cpu time    0.0164: real time    0.0164
    --------------------------------------------
      LOOP:  cpu time    5.4180: real time    5.4199

 eigenvalue-minimisations  :  2080
 total energy-change (2. order) : 0.3926318E-04  (-0.2927720E-04)
 number of electron     280.0000010 magnetization       0.0000000
 augmentation part       18.5686522 magnetization       0.0000723

 Free energy of the ion-electron system (eV)
  ---------------------------------------------------
  alpha Z        PSCENC =       212.20360122
  Ewald energy   TEWEN  =     20645.65194812
  -Hartree energ DENC   =    -33462.88333972
  -exchange      EXHF   =         0.00000000
  -V(xc)+E(xc)   XCENC  =      1104.48007851
  PAW double counting   =     30876.94748274   -31376.74318950
  entropy T*S    EENTRO =         0.00000000
  eigenvalues    EBANDS =     -3658.06245903
  atomic energy  EATOM  =     15171.73615219
  Solvation  Ediel_sol  =         0.00000000
  ---------------------------------------------------
  free energy    TOTEN  =      -486.66972548 eV

  energy without entropy =     -486.66972548  energy(sigma->0) =     -486.66972548


--------------------------------------------------------------------------------------------------------




 average (electrostatic) potential at core
  the test charge radii are     0.6991  0.7089  0.9911  0.6991  0.7215
  (the norm of the test charge is              1.0000)
       1 -60.1977       2 -60.3054       3 -60.2866       4 -59.4573       5 -60.0729
       6 -59.9446       7 -60.2559       8 -59.9313       9 -59.8133      10 -60.6055
      11 -60.1065      12 -60.6707      13 -59.3901      14 -60.0192      15 -59.8151
      16 -60.0250      17 -60.1645      18 -59.3819      19 -60.2385      20 -59.9422
      21 -59.7292      22 -60.1439      23 -60.1302      24 -60.1187      25 -73.8864
[...]
   0.507E+01 -.257E+02 0.246E+03   -.471E+01 0.246E+02 -.249E+03   -.270E+00 0.111E+01 0.301E+01   -.812E-02 0.293E-02 0.103E-01
   -.660E+02 -.239E+02 0.913E+02   0.685E+02 0.238E+02 -.933E+02   -.261E+01 0.549E-01 0.202E+01   -.404E-02 0.539E-02 0.208E-03
   0.827E+02 -.170E+02 -.996E+02   -.830E+02 0.153E+02 0.975E+02   0.304E+00 0.162E+01 0.206E+01   -.292E-02 -.210E-02 -.122E-02
   -.455E+01 -.351E+02 -.847E+02   0.604E+01 0.370E+02 0.824E+02   -.143E+01 -.180E+01 0.236E+01   -.332E-02 -.890E-02 0.138E-02
   -.104E+02 -.323E+02 -.170E+03   0.825E+01 0.343E+02 0.170E+03   0.211E+01 -.195E+01 -.429E-01   -.813E-02 0.102E-02 0.553E-03
   -.277E+02 0.707E+02 -.130E+03   0.265E+02 -.696E+02 0.132E+03   0.122E+01 -.968E+00 -.184E+01   0.291E-02 -.691E-02 -.115E-01
   -.856E+01 0.153E+02 0.156E+03   0.880E+01 -.169E+02 -.154E+03   -.277E+00 0.167E+01 -.197E+01   0.513E-03 -.163E-01 0.226E-02
   0.655E+02 0.675E+02 -.797E+02   -.647E+02 -.668E+02 0.816E+02   -.813E+00 -.666E+00 -.199E+01   0.655E-02 0.297E-02 0.753E-03
   0.644E+00 0.369E+02 0.115E+03   -.263E+00 -.416E+02 -.114E+03   -.367E+00 0.449E+01 -.906E+00   -.792E-02 0.994E-02 -.971E-03
   0.802E+02 0.304E+02 0.392E+03   -.788E+02 -.288E+02 -.394E+03   -.134E+01 -.150E+01 0.260E+01   -.161E-02 0.128E-01 0.600E-02
   0.238E+02 0.191E+02 0.880E+02   -.263E+02 -.177E+02 -.867E+02   0.261E+01 -.133E+01 -.110E+01   -.202E-01 0.171E-01 0.701E-02
   0.717E+02 -.190E+01 0.775E+02   -.746E+02 0.173E+01 -.790E+02   0.298E+01 0.151E+00 0.153E+01   0.682E-02 0.256E-03 0.656E-03
   -.410E+02 0.267E+02 0.319E+03   0.419E+02 -.290E+02 -.321E+03   -.817E+00 0.228E+01 0.241E+01   0.112E-01 0.565E-02 0.118E-02
   -.563E+02 -.555E+02 -.869E+01   0.590E+02 0.567E+02 0.834E+01   -.284E+01 -.118E+01 0.397E+00   0.590E-02 -.858E-02 0.670E-02
   -.505E+02 0.724E+01 -.303E+03   0.507E+02 -.947E+01 0.301E+03   -.256E+00 0.221E+01 0.160E+01   0.139E-02 -.937E-02 -.536E-02
   0.398E+01 -.220E+02 -.188E+03   -.151E+01 0.240E+02 0.187E+03   -.244E+01 -.193E+01 0.566E+00   0.615E-02 -.494E-02 -.365E-03
   0.183E+02 -.339E+02 -.167E+03   -.201E+02 0.357E+02 0.164E+03   0.176E+01 -.173E+01 0.237E+01   0.670E-02 -.150E-01 0.285E-02
   0.511E+02 -.129E+03 0.181E+03   -.545E+02 0.131E+03 -.181E+03   0.346E+01 -.173E+01 -.281E+00   -.156E-02 0.576E-02 0.408E-02
   -.190E+02 -.558E+02 -.311E+03   0.190E+02 0.532E+02 0.314E+03   -.671E-01 0.263E+01 -.217E+01   -.779E-03 -.152E-02 -.133E-02
   -.802E+02 0.201E+02 -.139E+03   0.831E+02 -.198E+02 0.141E+03   -.297E+01 -.190E+00 -.132E+01   -.947E-02 -.284E-02 -.828E-02
   -.559E+02 0.311E+02 0.268E+03   0.581E+02 -.313E+02 -.274E+03   -.229E+01 0.184E+00 0.582E+01   0.231E-01 0.138E-01 0.105E-01
   -.215E+03 0.129E+02 0.359E+03   0.245E+03 -.309E+01 -.379E+03   -.291E+02 -.988E+01 0.195E+02   -.699E-02 0.111E-01 0.572E-02
   0.748E+02 -.197E+03 -.272E+03   -.980E+02 0.215E+03 0.291E+03   0.232E+02 -.173E+02 -.187E+02   -.152E-01 -.503E-02 0.648E-02
   0.437E+02 0.512E+02 0.509E+03   -.408E+02 -.666E+02 -.544E+03   -.302E+01 0.154E+02 0.350E+02   -.235E-01 0.171E-01 0.281E-01
   -.204E+02 0.380E+02 0.518E+03   0.173E+02 -.534E+02 -.553E+03   0.295E+01 0.153E+02 0.346E+02   0.172E-02 0.122E-01 0.335E-01
   0.194E+03 -.714E+02 0.291E+02   -.220E+03 0.920E+02 -.291E+02   0.267E+02 -.206E+02 -.376E-01   -.265E-01 0.164E-01 0.658E-03
   -.105E+03 -.207E+02 0.268E+03   0.131E+03 0.134E+02 -.293E+03   -.254E+02 0.735E+01 0.259E+02   -.109E-01 0.346E-02 0.233E-02
   -.107E+02 -.105E+03 -.155E+03   0.107E+02 0.113E+03 0.159E+03   0.453E-02 -.845E+01 -.401E+01   0.107E-02 0.288E-03 -.276E-02
   0.657E+01 0.117E+02 -.306E+03   -.410E+01 -.160E+02 0.324E+03   -.252E+01 0.432E+01 -.181E+02   -.718E-02 -.505E-02 -.123E-02
   0.974E+02 0.543E+02 -.405E+03   -.853E+02 -.532E+02 0.435E+03   -.120E+02 -.113E+01 -.306E+02   0.245E-02 -.255E-03 -.197E-02
   0.268E+01 0.111E+03 -.113E+03   -.227E+02 -.114E+03 0.126E+03   0.200E+02 0.243E+01 -.131E+02   0.123E-01 -.803E-02 -.190E-01
   -.524E+02 0.977E+02 0.118E+03   0.603E+02 -.131E+03 -.123E+03   -.781E+01 0.334E+02 0.485E+01   0.513E-02 -.218E-01 0.189E-02
   0.125E+02 0.762E+02 0.164E+03   -.166E+02 -.106E+03 -.171E+03   0.407E+01 0.298E+02 0.734E+01   0.162E-02 -.154E-01 0.132E-02
   0.384E+02 0.419E+02 -.490E+03   -.624E+02 -.357E+02 0.514E+03   0.239E+02 -.632E+01 -.231E+02   0.524E-02 -.112E-01 -.146E-01
   0.300E+00 0.147E+03 -.156E+03   0.156E+02 -.153E+03 0.178E+03   -.159E+02 0.570E+01 -.225E+02   0.152E-01 0.263E-02 -.274E-02
   0.185E+02 -.702E+01 0.159E+03   -.234E+02 0.442E+01 -.162E+03   0.482E+01 0.259E+01 0.228E+01   0.629E-02 0.903E-02 0.151E-02
   0.310E+02 0.122E+03 0.226E+03   -.304E+02 -.125E+03 -.225E+03   -.587E+00 0.354E+01 -.893E+00   -.242E-01 0.311E-01 0.630E-02
   -.179E+03 -.722E+02 0.982E+01   0.208E+03 0.914E+02 -.853E+01   -.289E+02 -.191E+02 -.134E+01   0.186E-01 0.906E-02 0.793E-03
   0.951E+02 0.364E+02 0.214E+03   -.122E+03 -.450E+02 -.235E+03   0.266E+02 0.868E+01 0.216E+02   0.122E-01 -.467E-02 0.268E-02
   -.806E+02 0.765E+02 0.560E+03   0.944E+02 -.918E+02 -.592E+03   -.138E+02 0.153E+02 0.312E+02   0.137E-01 0.331E-02 0.495E-02
   0.781E+01 0.187E+03 0.606E+03   -.692E+01 -.212E+03 -.633E+03   -.975E+00 0.245E+02 0.273E+02   0.152E-01 0.533E-02 -.329E-02
   0.192E+03 0.504E+02 0.317E+03   -.221E+03 -.413E+02 -.334E+03   0.291E+02 -.907E+01 0.171E+02   0.153E-01 0.291E-02 0.279E-02
   -.439E+02 -.212E+03 -.360E+03   0.634E+02 0.230E+03 0.382E+03   -.195E+02 -.185E+02 -.225E+02   0.144E-01 -.111E-01 0.114E-01
   -.966E+01 -.212E+02 0.257E+03   0.109E+02 0.248E+02 -.272E+03   -.124E+01 -.361E+01 0.153E+02   -.295E-02 -.205E-01 0.391E-02
   -.161E+01 -.407E+02 -.397E+03   -.108E+00 0.448E+02 0.411E+03   0.168E+01 -.410E+01 -.136E+02   0.751E-02 -.171E-01 -.226E-02
   -.241E+03 -.431E+01 -.331E+03   0.271E+03 0.189E+02 0.341E+03   -.295E+02 -.147E+02 -.104E+02   -.110E-01 -.107E-01 -.954E-02
   0.175E+03 -.233E+03 0.484E+03   -.201E+03 0.250E+03 -.499E+03   0.262E+02 -.180E+02 0.151E+02   -.567E-02 0.123E-01 0.116E-01
   -.604E+02 0.335E+02 -.553E+03   0.681E+02 -.513E+02 0.587E+03   -.767E+01 0.178E+02 -.333E+02   -.663E-02 0.157E-02 -.348E-02
   -.730E+01 -.360E+01 -.573E+03   0.509E+01 -.975E+01 0.609E+03   0.222E+01 0.134E+02 -.355E+02   0.357E-02 -.209E-02 -.511E-02
   0.168E+03 -.180E+03 0.200E+03   -.186E+03 0.208E+03 -.210E+03   0.182E+02 -.279E+02 0.935E+01   -.241E-02 -.209E-02 0.282E-02
   -.154E+03 0.268E+02 -.261E+03   0.185E+03 -.286E+02 0.278E+03   -.315E+02 0.163E+01 -.169E+02   -.253E-01 0.115E-01 -.902E-02
   -.427E+02 0.923E+01 0.311E+02   0.451E+02 -.757E+01 -.337E+02   -.241E+01 -.172E+01 0.253E+01   -.556E-02 -.664E-02 -.110E-01
   0.655E+02 0.238E+02 -.943E+03   -.657E+02 -.154E+02 0.965E+03   0.123E+00 -.833E+01 -.212E+02   0.338E-01 -.308E-01 -.683E-02
   0.529E+02 -.182E+03 -.144E+03   -.577E+02 0.204E+03 0.130E+03   0.486E+01 -.230E+02 0.144E+02   0.174E-02 -.276E-02 -.157E-02
   -.298E+02 0.196E+03 -.371E+03   0.402E+02 -.245E+03 0.403E+03   -.104E+02 0.493E+02 -.318E+02   0.135E-02 0.276E-02 -.532E-02
 -----------------------------------------------------------------------------------------------
   0.306E+02 -.407E+02 0.199E+02   0.391E-12 -.171E-12 0.966E-12   -.307E+02 0.407E+02 -.200E+02   0.373E-01 -.115E-01 0.684E-01


 POSITION                                       TOTAL-FORCE (eV/Angst)
 -----------------------------------------------------------------------------------
     -0.00283      2.13058      5.50333         0.039368     -0.049631     -0.001773
      1.06570      4.29786      5.84494         0.057303      0.062034      0.093764
     -1.27314      4.06612      5.51461        -0.024370      0.018801      0.042030
      5.24111      0.50605      6.68078         0.001883     -0.007715      0.079862
      3.21273      4.67741      5.45277         0.095101      0.012524      0.111237
      1.18306      0.54748      6.38154        -0.029627      0.031955      0.008724
     -3.58747      7.30325      7.07883         0.072398      0.029243      0.058877
     -1.94100      9.06224      7.25059         0.003770     -0.012852      0.024457
     -4.13252      9.50610      7.62244         0.027390      0.009651     -0.006174
      2.16208      5.58318      7.43762         0.009647      0.080466      0.092038
      0.16725      8.91820      6.63250        -0.021370      0.011499     -0.002858
     -2.73055      5.32790      6.64574         0.012850      0.030156      0.018133
      6.47059      2.22751      5.90332         0.023422     -0.084786      0.008249
      7.13338      4.19207      4.40265         0.022039     -0.000791      0.069665
      5.34057      4.29571      5.73972         0.098751      0.064120      0.186134
     11.32502      0.34637      6.52856         0.012138     -0.028871      0.014078
      9.23322      4.12934      4.51718         0.046332      0.020754     -0.022988
      7.53698      0.51051      6.83024         0.016340     -0.017990      0.062775
      3.33975      7.20234      8.37083        -0.023651      0.062315     -0.016682
      4.28924      9.40528      8.03595        -0.013634     -0.011752     -0.002275
      2.04851      9.13425      7.72935         0.033665      0.016343      0.045091
      7.86356      5.97702      5.39777         0.029296      0.053065      0.020511
      6.37055      9.92167      8.35206        -0.018563      0.036443     -0.007545
      4.52907      5.66852      7.28160        -0.009749      0.093006      0.075200
     -0.02503      3.48928      5.50378         0.020106      0.056775     -0.009770
      1.18528      1.54006      5.51888         0.007132     -0.002857      0.035916
     -1.89466     10.38562      7.40792         0.000619      0.023236      0.005467
      4.32367      4.27677      4.89140        -0.111615      0.018424     -0.034377
      2.04384      4.26411      4.98156        -0.096626     -0.012764     -0.055890
      5.25172      1.76298      6.30945        -0.013313      0.043312     -0.056757
     -4.13201     10.15350      6.46684         0.031535     -0.025910      0.010755
      0.07370      0.38399      7.24708         0.032887      0.019143     -0.010830
     -3.15087      8.51072      7.65766        -0.045227     -0.001032      0.003052
     -2.89208      6.26421      7.56794        -0.009092     -0.020271     -0.010534
      1.01387      4.98166      7.04672        -0.012654     -0.081139     -0.117776
      1.28456      8.30465      7.00750         0.012025     -0.070363     -0.042913
     -1.00033      8.24080      6.74524         0.005451     -0.027257     -0.059219
      2.21041      6.42531      8.45164        -0.079771     -0.109084     -0.058237
     -1.59803      4.63394      6.70350         0.022740      0.020319     -0.030037
      8.92626      5.04567      5.58114        -0.048253     -0.005114      0.011260
      6.40260      3.47787      5.27054        -0.003010      0.068983     -0.069663
      7.64393      1.74521      6.35828        -0.031165      0.063404     -0.054364
      4.19522      9.94109      6.80814         0.002780     -0.006465     -0.019432
     -1.94715      3.93815      4.40698        -0.050224     -0.033729     -0.065401
      8.24416      3.67019      3.81766        -0.063723     -0.005866      0.009266
     11.26801      1.31489      5.63542        -0.032124      0.001005     -0.035165
      8.24766     -0.05953      7.79781         0.021884      0.015203     -0.027097
      0.18087     10.24864      6.37304         0.002302     -0.033980     -0.038749
      3.16794      8.57842      8.37206        -0.036082     -0.001877     -0.053555
      4.55348      6.71073      8.09644         0.070023     -0.068461     -0.041416
      6.95475      5.58634      4.54180        -0.033138     -0.085671     -0.010278
     -4.92409      9.53624      8.68099         0.058609     -0.005209      0.018927
      5.24620      9.48459      8.93658         0.006584      0.024619     -0.017324
      7.99157      7.13879      6.08776        -0.040407     -0.048814     -0.010868
      5.55748      4.93123      6.89295         0.015198     -0.122624     -0.110452
      3.27855      5.34795      6.68529        -0.041949     -0.051990     -0.096127
     -0.51033      6.03060      8.07637        -0.029388      0.043972      0.069920
     -0.38937      6.11911     11.29051         0.015933     -0.063362      0.054462
     -0.18859      5.16945     11.89820        -0.008773      0.067461     -0.033325
 -----------------------------------------------------------------------------------
    total drift:                               -0.008302     -0.004302     -0.005865


--------------------------------------------------------------------------------------------------------



  FREE ENERGIE OF THE ION-ELECTRON SYSTEM (eV)
  ---------------------------------------------------
  free  energy   TOTEN  =      -491.09277777 eV

  energy  without entropy=     -491.09277777  energy(sigma->0) =     -491.09277777



--------------------------------------------------------------------------------------------------------


    POTLOK:  cpu time    0.1050: real time    0.1050


--------------------------------------------------------------------------------------------------------


     LOOP+:  cpu time  172.7168: real time  172.8901
    4ORBIT:  cpu time    0.0000: real time    0.0000



 total charge     

# of ion       s       p       d       tot
------------------------------------------
    1        0.865   1.749   0.000   2.615
    2        0.850   1.750   0.000   2.600
    3        0.867   1.781   0.000   2.647
    4        0.864   1.748   0.000   2.612
    5        0.871   1.771   0.000   2.642
    6        0.878   1.774   0.000   2.652
    7        0.856   1.736   0.000   2.593
    8        0.862   1.741   0.000   2.603
    9        0.874   1.763   0.000   2.637
   10        0.864   1.762   0.000   2.627
   11        0.868   1.764   0.000   2.632
   12        0.881   1.803   0.000   2.683
   13        0.840   1.731   0.000   2.571
   14        0.855   1.724   0.000   2.579
   15        0.864   1.751   0.000   2.615
   16        0.867   1.746   0.000   2.613
   17        0.869   1.752   0.000   2.621
   18        0.862   1.738   0.000   2.600
   19        0.851   1.723   0.000   2.574
   20        0.860   1.728   0.000   2.588
   21        0.860   1.744   0.000   2.605
   22        0.859   1.724   0.000   2.584
   23        0.871   1.752   0.000   2.623
   24        0.862   1.747   0.000   2.609
   25        1.224   2.824   0.000   4.048
   26        1.275   2.672   0.000   3.947
   27        1.268   2.671   0.000   3.938
   28        1.291   2.653   0.000   3.944
   29        1.287   2.654   0.000   3.941
   30        1.263   2.650   0.000   3.912
   31        1.291   2.678   0.000   3.969
   32        1.235   2.756   0.000   3.991
   33        1.231   2.776   0.000   4.007
   34        1.272   2.676   0.000   3.948
   35        1.244   2.666   0.000   3.910
   36        1.270   2.670   0.000   3.940
   37        1.261   2.641   0.000   3.901
   38        1.261   2.649   0.000   3.909
   39        1.260   2.686   0.000   3.946
   40        1.231   2.775   0.000   4.006
   41        1.227   2.774   0.000   4.001
   42        1.265   2.636   0.000   3.901
   43        1.272   2.663   0.000   3.935
   44        1.283   2.656   0.000   3.939
   45        1.275   2.639   0.000   3.914
   46        1.262   2.657   0.000   3.919
   47        1.273   2.653   0.000   3.926
   48        1.235   2.730   0.000   3.965
   49        1.226   2.739   0.000   3.965
   50        1.266   2.653   0.000   3.920
   51        1.264   2.616   0.000   3.880
   52        1.286   2.638   0.000   3.923
   53        1.281   2.641   0.000   3.922
   54        1.261   2.642   0.000   3.902
   55        1.274   2.647   0.000   3.921
   56        1.227   2.775   0.000   4.002
   57        1.375   0.611  10.037  12.024
   58        1.036   1.438   0.000   2.475
   59        1.640   3.536   0.000   5.176
--------------------------------------------------
tot         65.109 133.443  10.037 208.590



 magnetization (x)

# of ion       s       p       d       tot
------------------------------------------
    1       -0.000  -0.000   0.000  -0.000
    2       -0.000  -0.001   0.000  -0.001
    3       -0.000   0.000   0.000  -0.000
    4        0.000   0.001   0.000   0.001
    5       -0.000  -0.001   0.000  -0.001
    6       -0.000  -0.000   0.000  -0.000
    7       -0.000   0.000   0.000   0.000
    8        0.000   0.000   0.000   0.000
    9       -0.000  -0.000   0.000  -0.000
   10       -0.000  -0.000   0.000  -0.000
   11       -0.000  -0.000   0.000  -0.000
   12       -0.000   0.000   0.000   0.000
   13        0.000   0.001   0.000   0.001
   14        0.000   0.001   0.000   0.001
   15       -0.000  -0.001   0.000  -0.001
   16       -0.000  -0.000   0.000  -0.000
   17        0.000   0.000   0.000   0.000
   18        0.000   0.001   0.000   0.001
   19       -0.000  -0.000   0.000  -0.000
   20       -0.000  -0.000   0.000  -0.000
   21        0.000   0.000   0.000   0.000
   22        0.000   0.000   0.000   0.000
   23       -0.000  -0.000   0.000  -0.000
   24       -0.000  -0.000   0.000  -0.000
   25        0.000   0.000   0.000   0.000
   26       -0.000  -0.000   0.000  -0.000
   27        0.000   0.000   0.000   0.000
   28        0.000   0.000   0.000   0.000
   29        0.000   0.000   0.000   0.000
   30       -0.000   0.000   0.000  -0.000
   31       -0.000  -0.000   0.000  -0.000
   32       -0.000  -0.000   0.000  -0.000
   33       -0.000   0.000   0.000   0.000
   34        0.000  -0.000   0.000  -0.000
   35        0.000  -0.000   0.000  -0.000
   36       -0.000   0.000   0.000   0.000
   37       -0.000   0.000   0.000   0.000
   38        0.000  -0.000   0.000  -0.000
   39        0.000   0.000   0.000   0.000
   40       -0.000   0.000   0.000   0.000
   41       -0.000  -0.000   0.000  -0.000
   42        0.000   0.000   0.000   0.000
   43       -0.000   0.000   0.000  -0.000
   44       -0.000  -0.000   0.000  -0.000
   45        0.000   0.000   0.000   0.000
   46        0.000  -0.000   0.000  -0.000
   47        0.000   0.000   0.000   0.000
   48        0.000   0.000   0.000   0.000
   49       -0.000  -0.000   0.000  -0.000
   50       -0.000   0.000   0.000  -0.000
   51        0.000   0.000   0.000   0.000
   52       -0.000  -0.000   0.000  -0.000
   53       -0.000  -0.000   0.000  -0.000
   54        0.000   0.000   0.000   0.000
   55       -0.000  -0.000   0.000  -0.000
   56       -0.000  -0.001   0.000  -0.001
   57       -0.000  -0.001  -0.000  -0.001
   58       -0.000  -0.000   0.000  -0.000
   59       -0.000  -0.000   0.000  -0.000
--------------------------------------------------
tot          0.000  -0.000  -0.000   0.000

 BZINTS: Fermi energy: -1.745686;280.000000 electrons
         Band energy:***********;  BLOECHL correction:  0.000000

 total amount of memory used by VASP MPI-rank0    75962. kBytes
=======================================================================

   base      :      30000. kBytes
   nonl-proj :      13922. kBytes
   fftplans  :       2626. kBytes
   grid      :       7821. kBytes
   one-center:        155. kBytes
   wavefun   :      21438. kBytes

  
  
 General timing and accounting informations for this job:
 ========================================================
  
                  Total CPU time used (sec):      184.002
                            User time (sec):      183.202
                          System time (sec):        0.800
                         Elapsed time (sec):      184.711
  
                   Maximum memory used (kb):      160344.
                   Average memory used (kb):           0.
  
                          Minor page faults:        44636
                          Major page faults:            3
                 Voluntary context switches:         1001
