 vasp.5.4.4.18Apr17-6-g9f103f2a35 (build Sep 02 2021 13:24:58) complex          
  
 executed on             LinuxIFC date 2023.01.15  13:02:11
 running on   48 total cores
 distrk:  each k-point on   48 cores,    1 groups
 distr:  one band on NCORES_PER_BAND=  12 cores,    4 groups


--------------------------------------------------------------------------------------------------------


 INCAR:
 POTCAR:    PAW_PBE C 08Apr2002                   
 POTCAR:    PAW_PBE N 08Apr2002                   
 POTCAR:    PAW_PBE C 08Apr2002                   
 POTCAR:    PAW_PBE Cr_pv 02Aug2007               
 POTCAR:    PAW_PBE C 08Apr2002                   
   SHA256 =  253f7b50bb8d59471dbedb8285d89021f4a42ed1a2c5d38a03a736e69125dd95 C/
   COPYR  = (c) Copyright 08Apr2002 Georg Kresse                                
   COPYR  = This file is part of the software VASP. Any use, copying, and all ot
   COPYR  = If you do not have a valid VASP license, you may not use, copy or di
   VRHFIN =C: s2p2                                                              
   LEXCH  = PE                                                                  
   EATOM  =   147.1560 eV,   10.8157 Ry                                         
                                                                                
   TITEL  = PAW_PBE C 08Apr2002                                                 
   LULTRA =        F    use ultrasoft PP ?                                      
   IUNSCR =        1    unscreen: 0-lin 1-nonlin 2-no                           
   RPACOR =    1.200    partial core radius                                     
   POMASS =   12.011; ZVAL   =    4.000    mass and valenz                      
   RCORE  =    1.500    outmost cutoff radius                                   
   RWIGS  =    1.630; RWIGS  =    0.863    wigner-seitz radius (au A)           
   ENMAX  =  400.000; ENMIN  =  300.000 eV                                      
   ICORE  =        2    local potential                                         
   LCOR   =        T    correct aug charges                                     
   LPAW   =        T    paw PP                                                  
   EAUG   =  644.873                                                            
   DEXC   =    0.000                                                            
   RMAX   =    1.529    core radius for proj-oper                               
   RAUG   =    1.300    factor for augmentation sphere                          
   RDEP   =    1.501    radius for radial grids                                 
   RDEPT  =    1.300    core radius for aug-charge                              
                                                                                
   Atomic configuration                                                         
    4 entries                                                                   
     n  l   j            E        occ.                                          
     1  0  0.50      -273.3789   2.0000                                         
     2  0  0.50       -13.7508   2.0000                                         
     2  1  0.50        -5.2854   2.0000                                         
     3  2  1.50        -5.4423   0.0000                                         
   Description                                                                  
     l       E           TYP  RCUT    TYP  RCUT                                 
     0    -13.7508458     23  1.200                                             
     0     -8.2022199     23  1.200                                             
     1     -5.2854383     23  1.500                                             
     1     34.0145650     23  1.500                                             
     2     -5.4423304      7  1.500                                             
  local pseudopotential read in
  partial core-charges read in
  partial kinetic energy density read in
  atomic valenz-charges read in
  non local Contribution for L=           0  read in
    real space projection operators read in
  non local Contribution for L=           0  read in
    real space projection operators read in
  non local Contribution for L=           1  read in
    real space projection operators read in
  non local Contribution for L=           1  read in
    real space projection operators read in
    PAW grid and wavefunctions read in
 
   number of l-projection  operators is LMAX  =           4
   number of lm-projection operators is LMMAX =           8
 
 POTCAR:    PAW_PBE N 08Apr2002                   
   SHA256 =  e053789ff3a61a86a1b75d8a110fcc91f86041011e7b0817c7c99e4e8a6349d7 N/
   COPYR  = (c) Copyright 08Apr2002 Georg Kresse                                
   COPYR  = This file is part of the software VASP. Any use, copying, and all ot
   COPYR  = If you do not have a valid VASP license, you may not use, copy or di
   VRHFIN =N: s2p3                                                              
   LEXCH  = PE                                                                  
   EATOM  =   264.5486 eV,   19.4438 Ry                                         
                                                                                
   TITEL  = PAW_PBE N 08Apr2002                                                 
   LULTRA =        F    use ultrasoft PP ?                                      
   IUNSCR =        1    unscreen: 0-lin 1-nonlin 2-no                           
   RPACOR =    1.200    partial core radius                                     
   POMASS =   14.001; ZVAL   =    5.000    mass and valenz                      
   RCORE  =    1.500    outmost cutoff radius                                   
   RWIGS  =    1.400; RWIGS  =    0.741    wigner-seitz radius (au A)           
   ENMAX  =  400.000; ENMIN  =  300.000 eV                                      
   ICORE  =        2    local potential                                         
   LCOR   =        T    correct aug charges                                     
   LPAW   =        T    paw PP                                                  
   EAUG   =  627.112                                                            
   DEXC   =    0.000                                                            
   RMAX   =    1.529    core radius for proj-oper                               
   RAUG   =    1.300    factor for augmentation sphere                          
   RDEP   =    1.514    radius for radial grids                                 
   RDEPT  =    1.338    core radius for aug-charge                              
                                                                                
   Atomic configuration                                                         
    4 entries                                                                   
     n  l   j            E        occ.                                          
     1  0  0.50      -384.7179   2.0000                                         
     2  0  0.50       -18.5828   2.0000                                         
     2  1  0.50        -7.0898   3.0000                                         
     3  2  1.50        -6.8029   0.0000                                         
   Description                                                                  
     l       E           TYP  RCUT    TYP  RCUT                                 
     0    -18.5828119     23  1.200                                             
     0    -13.5018863     23  1.200                                             
     1     -7.0897853     23  1.500                                             
     1      9.5240782     23  1.500                                             
     2     -6.8029130      7  1.500                                             
  local pseudopotential read in
  partial core-charges read in
  partial kinetic energy density read in
  atomic valenz-charges read in
  non local Contribution for L=           0  read in
    real space projection operators read in
  non local Contribution for L=           0  read in
    real space projection operators read in
  non local Contribution for L=           1  read in
    real space projection operators read in
  non local Contribution for L=           1  read in
    real space projection operators read in
    PAW grid and wavefunctions read in
 
   number of l-projection  operators is LMAX  =           4
   number of lm-projection operators is LMMAX =           8
 
 POTCAR:    PAW_PBE C 08Apr2002                   
   SHA256 =  253f7b50bb8d59471dbedb8285d89021f4a42ed1a2c5d38a03a736e69125dd95 C/
   COPYR  = (c) Copyright 08Apr2002 Georg Kresse                                
   COPYR  = This file is part of the software VASP. Any use, copying, and all ot
   COPYR  = If you do not have a valid VASP license, you may not use, copy or di
   VRHFIN =C: s2p2                                                              
   LEXCH  = PE                                                                  
   EATOM  =   147.1560 eV,   10.8157 Ry                                         
                                                                                
   TITEL  = PAW_PBE C 08Apr2002                                                 
   LULTRA =        F    use ultrasoft PP ?                                      
   IUNSCR =        1    unscreen: 0-lin 1-nonlin 2-no                           
   RPACOR =    1.200    partial core radius                                     
   POMASS =   12.011; ZVAL   =    4.000    mass and valenz                      
   RCORE  =    1.500    outmost cutoff radius                                   
   RWIGS  =    1.630; RWIGS  =    0.863    wigner-seitz radius (au A)           
   ENMAX  =  400.000; ENMIN  =  300.000 eV                                      
   ICORE  =        2    local potential                                         
   LCOR   =        T    correct aug charges                                     
   LPAW   =        T    paw PP                                                  
   EAUG   =  644.873                                                            
   DEXC   =    0.000                                                            
   RMAX   =    1.529    core radius for proj-oper                               
   RAUG   =    1.300    factor for augmentation sphere                          
   RDEP   =    1.501    radius for radial grids                                 
   RDEPT  =    1.300    core radius for aug-charge                              
                                                                                
   Atomic configuration                                                         
    4 entries                                                                   
     n  l   j            E        occ.                                          
     1  0  0.50      -273.3789   2.0000                                         
     2  0  0.50       -13.7508   2.0000                                         
     2  1  0.50        -5.2854   2.0000                                         
     3  2  1.50        -5.4423   0.0000                                         
   Description                                                                  
     l       E           TYP  RCUT    TYP  RCUT                                 
     0    -13.7508458     23  1.200                                             
     0     -8.2022199     23  1.200                                             
     1     -5.2854383     23  1.500                                             
     1     34.0145650     23  1.500                                             
     2     -5.4423304      7  1.500                                             
  local pseudopotential read in
  partial core-charges read in
  partial kinetic energy density read in
  atomic valenz-charges read in
  non local Contribution for L=           0  read in
    real space projection operators read in
  non local Contribution for L=           0  read in
    real space projection operators read in
  non local Contribution for L=           1  read in
    real space projection operators read in
  non local Contribution for L=           1  read in
    real space projection operators read in
    PAW grid and wavefunctions read in
 
   number of l-projection  operators is LMAX  =           4
   number of lm-projection operators is LMMAX =           8
 
 POTCAR:    PAW_PBE Cr_pv 02Aug2007               
   SHA256 =  c9a7df34d3cdbacf1090e328ef39c0b420964e11c23f63548d1ac9dd218cdba0 Cr
   COPYR  = (c) Copyright 02Aug2007 Georg Kresse                                
   COPYR  = This file is part of the software VASP. Any use, copying, and all ot
   COPYR  = If you do not have a valid VASP license, you may not use, copy or di
   VRHFIN =Cr : p6d5s1                                                          
   LEXCH  = PE                                                                  
   EATOM  =  1647.9177 eV,  121.1185 Ry                                         
                                                                                
   TITEL  = PAW_PBE Cr_pv 02Aug2007                                             
   LULTRA =        F    use ultrasoft PP ?                                      
   IUNSCR =        1    unscreen: 0-lin 1-nonlin 2-no                           
   RPACOR =    2.080    partial core radius                                     
   POMASS =   51.996; ZVAL   =   12.000    mass and valenz                      
   RCORE  =    2.300    outmost cutoff radius                                   
   RWIGS  =    2.500; RWIGS  =    1.323    wigner-seitz radius (au A)           
   ENMAX  =  265.681; ENMIN  =  199.261 eV                                      
   ICORE  =        3    local potential                                         
   LCOR   =        T    correct aug charges                                     
   LPAW   =        T    paw PP                                                  
   EAUG   =  519.424                                                            
   DEXC   =    0.000                                                            
   RMAX   =    2.356    core radius for proj-oper                               
   RAUG   =    1.300    factor for augmentation sphere                          
   RDEP   =    2.447    radius for radial grids                                 
   RDEPT  =    1.882    core radius for aug-charge                              
                                                                                
   Atomic configuration                                                         
    8 entries                                                                   
     n  l   j            E        occ.                                          
     1  0  0.50     -5880.4963   2.0000                                         
     2  0  0.50      -667.0865   2.0000                                         
     2  1  1.50      -560.6250   6.0000                                         
     3  0  0.50       -73.9860   2.0000                                         
     3  1  1.50       -45.4378   6.0000                                         
     3  2  2.50        -2.9137   5.0000                                         
     4  0  0.50        -4.0071   1.0000                                         
     4  3  2.50        -1.3606   0.0000                                         
   Description                                                                  
     l       E           TYP  RCUT    TYP  RCUT                                 
     1    -45.4377911     23  2.000                                             
     1      1.3605826     23  2.000                                             
     2     -2.9136672     23  2.300                                             
     2     -4.2742498     23  2.300                                             
     0     -4.0071320     23  2.300                                             
     0      9.4498803     23  2.300                                             
     3      2.7211652     23  2.300                                             
  local pseudopotential read in
  partial core-charges read in
  partial kinetic energy density read in
  atomic valenz-charges read in
  non local Contribution for L=           1  read in
    real space projection operators read in
  non local Contribution for L=           1  read in
    real space projection operators read in
  non local Contribution for L=           2  read in
    real space projection operators read in
  non local Contribution for L=           2  read in
    real space projection operators read in
  non local Contribution for L=           0  read in
    real space projection operators read in
  non local Contribution for L=           0  read in
    real space projection operators read in
    PAW grid and wavefunctions read in
 
   number of l-projection  operators is LMAX  =           6
   number of lm-projection operators is LMMAX =          18
 
 Optimization of the real space projectors (new method)

 maximal supplied QI-value         = 25.13
 optimisation between [QCUT,QGAM] = [ 11.81, 23.88] = [ 39.08,159.64] Ry 
 Optimized for a Real-space Cutoff    1.18 Angstroem

   l    n(q)    QCUT    max X(q) W(low)/X(q) W(high)/X(q)  e(spline) 
   0      8    11.813   115.676    0.10E-03    0.16E-03    0.35E-06
   0      8    11.813    87.132    0.10E-03    0.16E-03    0.35E-06
   1      8    11.813     4.429    0.16E-03    0.13E-04    0.22E-06
   1      8    11.813     2.733    0.13E-03    0.10E-04    0.18E-06
 Optimization of the real space projectors (new method)

 maximal supplied QI-value         = 25.13
 optimisation between [QCUT,QGAM] = [ 11.81, 23.88] = [ 39.08,159.64] Ry 
 Optimized for a Real-space Cutoff    1.41 Angstroem

   l    n(q)    QCUT    max X(q) W(low)/X(q) W(high)/X(q)  e(spline) 
   0     10    11.813    79.467    0.48E-04    0.30E-04    0.67E-06
   0     10    11.813    66.151    0.47E-04    0.30E-04    0.67E-06
   1     10    11.813    20.169    0.11E-03    0.17E-03    0.11E-05
   1     10    11.813    14.454    0.11E-03    0.17E-03    0.11E-05
 Optimization of the real space projectors (new method)

 maximal supplied QI-value         = 25.13
 optimisation between [QCUT,QGAM] = [ 11.81, 23.88] = [ 39.08,159.64] Ry 
 Optimized for a Real-space Cutoff    1.18 Angstroem

   l    n(q)    QCUT    max X(q) W(low)/X(q) W(high)/X(q)  e(spline) 
   0      8    11.813   115.676    0.10E-03    0.16E-03    0.35E-06
   0      8    11.813    87.132    0.10E-03    0.16E-03    0.35E-06
   1      8    11.813     4.429    0.16E-03    0.13E-04    0.22E-06
   1      8    11.813     2.733    0.13E-03    0.10E-04    0.18E-06
 Optimization of the real space projectors (new method)

 maximal supplied QI-value         = 16.25
 optimisation between [QCUT,QGAM] = [ 11.86, 23.89] = [ 39.41,159.82] Ry 
 Optimized for a Real-space Cutoff    1.33 Angstroem

   l    n(q)    QCUT    max X(q) W(low)/X(q) W(high)/X(q)  e(spline) 
   1      9    11.864     3.262    0.48E-04    0.16E-03    0.14E-06
   1      9    11.864     5.741    0.74E-04    0.40E-03    0.35E-06
   2      9    11.864    60.438    0.17E-03    0.21E-03    0.26E-06
   2      9    11.864    55.380    0.17E-03    0.21E-03    0.27E-06
   0      9    11.864    80.273    0.40E-04    0.47E-04    0.12E-06
   0      9    11.864    36.654    0.35E-04    0.41E-04    0.11E-06
  PAW_PBE C 08Apr2002                   :
 energy of atom  1       EATOM= -147.1560
 kinetic energy error for atom=    0.0066 (will be added to EATOM!!)
  PAW_PBE N 08Apr2002                   :
 energy of atom  2       EATOM= -264.5486
 kinetic energy error for atom=    0.0116 (will be added to EATOM!!)
  PAW_PBE C 08Apr2002                   :
 energy of atom  3       EATOM= -147.1560
 kinetic energy error for atom=    0.0066 (will be added to EATOM!!)
  PAW_PBE Cr_pv 02Aug2007               :
 energy of atom  4       EATOM=-1647.9177
 kinetic energy error for atom=    0.0054 (will be added to EATOM!!)
 
 
 POSCAR: POSCAR-clean                            
  positions in cartesian coordinates
  No initial velocities read in
 exchange correlation table for  LEXCH =        8
   RHO(1)=    0.500       N(1)  =     2000
   RHO(2)=  100.500       N(2)  =     4000
 


--------------------------------------------------------------------------------------------------------


 ion  position               nearest neighbor table
   1  0.000  1.000  0.498-   2 1.42  60 1.42  70 1.43
   2  0.056  0.111  0.498-   1 1.42  13 1.42  15 1.43
   3  0.168  0.002  0.498-   4 1.42  62 1.43  60 1.43
   4  0.224  0.113  0.498-   3 1.42  15 1.42  17 1.44
   5  0.334  0.002  0.498-   6 1.42  62 1.43  64 1.43
   6  0.390  0.113  0.498-   5 1.42  19 1.42  17 1.44
   7  0.500  1.000  0.498-   8 1.42  64 1.42  66 1.43
   8  0.556  0.111  0.498-   7 1.42  21 1.42  19 1.43
   9  0.666  0.998  0.498-  10 1.42  66 1.42  68 1.44
  10  0.722  0.109  0.498-   9 1.42  23 1.43  21 1.43
  11  0.832  0.998  0.498-  12 1.42  70 1.42  68 1.44
  12  0.888  0.109  0.498-  11 1.42  23 1.43  13 1.43
  13  0.999  0.165  0.498-  14 1.42   2 1.42  12 1.43
  14  0.054  0.277  0.499-  13 1.42  25 1.42  27 1.43
  15  0.167  0.168  0.498-  16 1.42   4 1.42   2 1.43
  16  0.223  0.280  0.500-  15 1.42  27 1.43  29 1.44
  17  0.335  0.170  0.499-  18 1.42   4 1.44   6 1.44
  18  0.391  0.281  0.503-  17 1.42  31 1.44  29 1.44
  19  0.501  0.168  0.498-  20 1.42   6 1.42   8 1.43
  20  0.557  0.280  0.500-  19 1.42  33 1.43  31 1.44
  21  0.667  0.165  0.498-  22 1.42   8 1.42  10 1.43
  22  0.723  0.277  0.498-  21 1.42  35 1.42  33 1.43
  23  0.833  0.165  0.498-  24 1.42  10 1.43  12 1.43
  24  0.888  0.276  0.498-  23 1.42  25 1.42  35 1.43
  25  0.999  0.332  0.498-  14 1.42  26 1.42  24 1.42
  26  0.054  0.444  0.499-  39 1.42  37 1.42  25 1.42
  27  0.165  0.333  0.500-  28 1.42  16 1.43  14 1.43
  28  0.219  0.444  0.502-  41 1.41  27 1.42  39 1.42
  29  0.335  0.338  0.503-  30 1.41  18 1.44  16 1.44
  30  0.387  0.448  0.510-  41 1.41  29 1.41  71 2.00
  31  0.503  0.338  0.504-  32 1.41  18 1.44  20 1.44
  32  0.562  0.448  0.510-  43 1.41  31 1.41  71 2.00
  33  0.668  0.333  0.500-  34 1.42  20 1.43  22 1.43
  34  0.725  0.444  0.501-  43 1.41  33 1.42  45 1.42
  35  0.833  0.332  0.498-  22 1.42  36 1.42  24 1.43
  36  0.890  0.444  0.498-  45 1.42  37 1.42  35 1.42
  37  0.000  0.500  0.498-  36 1.42  26 1.42  38 1.42
  38  0.056  0.611  0.498-  47 1.42  49 1.42  37 1.42
  39  0.165  0.500  0.500-  26 1.42  28 1.42  40 1.42
  40  0.220  0.611  0.500-  49 1.42  51 1.42  39 1.42
  41  0.329  0.499  0.505-  30 1.41  28 1.41  42 1.44
  42  0.385  0.612  0.505-  53 1.41  51 1.41  41 1.44
  43  0.671  0.499  0.505-  32 1.41  34 1.41  44 1.44
  44  0.727  0.612  0.505-  55 1.41  57 1.41  43 1.44
  45  0.836  0.500  0.499-  36 1.42  34 1.42  46 1.42
  46  0.891  0.611  0.499-  47 1.42  57 1.42  45 1.42
  47  0.001  0.667  0.498-  46 1.42  38 1.42  48 1.42
  48  0.057  0.779  0.498-  59 1.42  47 1.42  61 1.43
  49  0.166  0.667  0.499-  40 1.42  38 1.42  50 1.42
  50  0.222  0.779  0.498-  63 1.42  49 1.42  61 1.42
  51  0.331  0.667  0.502-  42 1.41  52 1.42  40 1.42
  52  0.388  0.778  0.500-  51 1.42  65 1.43  63 1.43
  53  0.494  0.663  0.510-  42 1.41  54 1.41  71 2.00
  54  0.553  0.773  0.503-  53 1.41  67 1.44  65 1.44
  55  0.669  0.663  0.510-  44 1.41  56 1.41  71 2.00
  56  0.721  0.773  0.504-  55 1.41  67 1.44  69 1.44
  57  0.837  0.667  0.501-  44 1.41  58 1.42  46 1.42
  58  0.891  0.778  0.500-  57 1.42  69 1.42  59 1.43
  59  0.002  0.835  0.498-  60 1.42  48 1.42  58 1.43
  60  0.057  0.946  0.498-  59 1.42   1 1.42   3 1.43
  61  0.168  0.835  0.498-  62 1.42  50 1.42  48 1.43
  62  0.223  0.946  0.498-  61 1.42   3 1.43   5 1.43
  63  0.333  0.835  0.499-  64 1.42  50 1.42  52 1.43
  64  0.389  0.946  0.498-  63 1.42   7 1.42   5 1.43
  65  0.499  0.832  0.500-  66 1.42  52 1.43  54 1.44
  66  0.555  0.943  0.498-  65 1.42   9 1.42   7 1.43
  67  0.665  0.830  0.503-  68 1.42  56 1.44  54 1.44
  68  0.721  0.941  0.499-  67 1.42   9 1.44  11 1.44
  69  0.833  0.832  0.500-  70 1.42  58 1.42  56 1.44
  70  0.889  0.943  0.498-  69 1.42  11 1.42   1 1.43
  71  0.528  0.556  0.554-  55 2.00  32 2.00  53 2.00  30 2.00
 

IMPORTANT INFORMATION: All symmetrisations will be switched off!
NOSYMM: (Re-)initialisation of all symmetry stuff for point group C_1.

 
 
 KPOINTS: K-Points                                

Automatic generation of k-mesh.
Space group operators:
 irot       det(A)        alpha          n_x          n_y          n_z        tau_x        tau_y        tau_z
    1     1.000000     0.000000     1.000000     0.000000     0.000000     0.000000     0.000000     0.000000
 
 Subroutine IBZKPT returns following result:
 ===========================================
 
 Found      4 irreducible k-points:
 
 Following reciprocal coordinates:
            Coordinates               Weight
  0.000000  0.000000  0.000000      1.000000
  0.500000  0.000000  0.000000      1.000000
 -0.000000  0.500000  0.000000      1.000000
  0.500000  0.500000  0.000000      1.000000
 
 Following cartesian coordinates:
            Coordinates               Weight
  0.000000  0.000000  0.000000      1.000000
  0.033606  0.019589  0.000000      1.000000
 -0.000000  0.039178  0.000000      1.000000
  0.033606  0.058767  0.000000      1.000000
 


--------------------------------------------------------------------------------------------------------




 Dimension of arrays:
   k-points           NKPTS =      4   k-points in BZ     NKDIM =      4   number of bands    NBANDS=    184
   number of dos      NEDOS =    301   number of ions     NIONS =     71
   non local maximal  LDIM  =      6   non local SUM 2l+1 LMDIM =     18
   total plane-waves  NPLWV = ******
   max r-space proj   IRMAX =   7110   max aug-charges    IRDMAX=  21308
   dimension x,y,z NGX =   120 NGY =  120 NGZ =  120
   dimension x,y,z NGXF=   240 NGYF=  240 NGZF=  240
   support grid    NGXF=   240 NGYF=  240 NGZF=  240
   ions per type =              36   1  33   1
   NGX,Y,Z   is equivalent  to a cutoff of  13.41, 13.50, 13.30 a.u.
   NGXF,Y,Z  is equivalent  to a cutoff of  26.82, 27.01, 26.60 a.u.

 SYSTEM =  unknown system                          
 POSCAR =  POSCAR-clean                            

 Startparameter for this run:
   NWRITE =      2    write-flag & timer
   PREC   = accura    normal or accurate (medium, high low for compatibility)
   ISTART =      0    job   : 0-new  1-cont  2-samecut
   ICHARG =      2    charge: 1-file 2-atom 10-const
   ISPIN  =      2    spin polarized calculation?
   LNONCOLLINEAR =      F non collinear calculations
   LSORBIT =      F    spin-orbit coupling
   INIWAV =      1    electr: 0-lowe 1-rand  2-diag
   LASPH  =      F    aspherical Exc in radial PAW
   METAGGA=      F    non-selfconsistent MetaGGA calc.

 Electronic Relaxation 1
   ENCUT  =  550.0 eV  40.42 Ry    6.36 a.u.  28.45 28.25 28.68*2*pi/ulx,y,z
   ENINI  =  550.0     initial cutoff
   ENAUG  =  644.9 eV  augmentation charge cutoff
   NELM   =     50;   NELMIN=  2; NELMDL= -5     # of ELM steps 
   EDIFF  = 0.1E-04   stopping-criterion for ELM
   LREAL  =      T    real-space projection
   NLSPLINE    = F    spline interpolate recip. space projectors
   LCOMPAT=      F    compatible to vasp.4.4
   GGA_COMPAT  = T    GGA compatible to vasp.4.4-vasp.4.6
   LMAXPAW     = -100 max onsite density
   LMAXMIX     =    2 max onsite mixed and CHGCAR
   VOSKOWN=      0    Vosko Wilk Nusair interpolation
   ROPT   =   -0.00025  -0.00025  -0.00025  -0.00025
 Ionic relaxation
   EDIFFG = -.5E-01   stopping-criterion for IOM
   NSW    =    400    number of steps for IOM
   NBLOCK =      1;   KBLOCK =    400    inner block; outer block 
   IBRION =      2    ionic relax: 0-MD 1-quasi-New 2-CG
   NFREE  =      1    steps in history (QN), initial steepest desc. (CG)
   ISIF   =      3    stress and relaxation
   IWAVPR =     11    prediction:  0-non 1-charg 2-wave 3-comb
   ISYM   =      0    0-nonsym 1-usesym 2-fastsym
   LCORR  =      T    Harris-Foulkes like correction to forces

   POTIM  = 0.3000    time-step for ionic-motion
   TEIN   =    0.0    initial temperature
   TEBEG  =    0.0;   TEEND  =   0.0 temperature during run
   SMASS  =  -3.00    Nose mass-parameter (am)
   estimated Nose-frequenzy (Omega)   =  0.10E-29 period in steps =****** mass=  -0.506E-26a.u.
   SCALEE = 1.0000    scale energy and forces
   NPACO  =    256;   APACO  = 16.0  distance and # of slots for P.C.
   PSTRESS=    0.0 pullay stress

  Mass of Ions in am
   POMASS =  12.01 14.00 12.01 52.00
  Ionic Valenz
   ZVAL   =   4.00  5.00  4.00 12.00
  Atomic Wigner-Seitz radii
   RWIGS  =  -1.00 -1.00 -1.00 -1.00
  virtual crystal weights 
   VCA    =   1.00  1.00  1.00  1.00
   NELECT =     293.0000    total number of electrons
   NUPDOWN=      -1.0000    fix difference up-down

 DOS related values:
   EMIN   =  10.00;   EMAX   =-10.00  energy-range for DOS
   EFERMI =   0.00
   ISMEAR =     0;   SIGMA  =   0.10  broadening in eV -4-tet -1-fermi 0-gaus

 Electronic relaxation 2 (details)
   IALGO  =     68    algorithm
   LDIAG  =      T    sub-space diagonalisation (order eigenvalues)
   LSUBROT=      F    optimize rotation matrix (better conditioning)
   TURBO    =      0    0=normal 1=particle mesh
   IRESTART =      0    0=no restart 2=restart with 2 vectors
   NREBOOT  =      0    no. of reboots
   NMIN     =      0    reboot dimension
   EREF     =   0.00    reference energy to select bands
   IMIX   =      4    mixing-type and parameters
     AMIX     =   0.40;   BMIX     =  1.00
     AMIX_MAG =   1.60;   BMIX_MAG =  1.00
     AMIN     =   0.10
     WC   =   100.;   INIMIX=   1;  MIXPRE=   1;  MAXMIX= -45

 Intra band minimization:
   WEIMIN = 0.0010     energy-eigenvalue tresh-hold
   EBREAK =  0.14E-07  absolut break condition
   DEPER  =   0.30     relativ break condition  

   TIME   =   0.40     timestep for ELM

  volume/ion in A,a.u.               =      40.12       270.71
  Fermi-wavevector in a.u.,A,eV,Ry     =   0.767079  1.449569  8.005805  0.588410
  Thomas-Fermi vector in A             =   1.867557
 
 Write flags
   LWAVE        =      F    write WAVECAR
   LDOWNSAMPLE  =      F    k-point downsampling of WAVECAR
   LCHARG       =      F    write CHGCAR
   LVTOT        =      F    write LOCPOT, total local potential
   LVHAR        =      F    write LOCPOT, Hartree potential only
   LELF         =      F    write electronic localiz. function (ELF)
   LORBIT       =      0    0 simple, 1 ext, 2 COOP (PROOUT), +10 PAW based schemes


 Dipole corrections
   LMONO  =      F    monopole corrections only (constant potential shift)
   LDIPOL =      F    correct potential (dipole corrections)
   IDIPOL =      0    1-x, 2-y, 3-z, 4-all directions 
   EPSILON=  1.0000000 bulk dielectric constant

 Exchange correlation treatment:
   GGA     =    --    GGA type
   LEXCH   =     8    internal setting for exchange type
   VOSKOWN=      0    Vosko Wilk Nusair interpolation
   LHFCALC =     F    Hartree Fock is set to
   LHFONE  =     F    Hartree Fock one center treatment
   AEXX    =    0.0000 exact exchange contribution

 Linear response parameters
   LEPSILON=     F    determine dielectric tensor
   LRPA    =     F    only Hartree local field effects (RPA)
   LNABLA  =     F    use nabla operator in PAW spheres
   LVEL    =     F    velocity operator in full k-point grid
   LINTERFAST=   F  fast interpolation
   KINTER  =     0    interpolate to denser k-point grid
   CSHIFT  =0.1000    complex shift for real part using Kramers Kronig
   OMEGAMAX=  -1.0    maximum frequency
   DEG_THRESHOLD= 0.2000000E-02 threshold for treating states as degnerate
   RTIME   =   -0.100 relaxation time in fs
  (WPLASMAI=    0.000 imaginary part of plasma frequency in eV, 0.658/RTIME)
   DFIELD  = 0.0000000 0.0000000 0.0000000 field for delta impulse in time
 
 Orbital magnetization related:
   ORBITALMAG=     F  switch on orbital magnetization
   LCHIMAG   =     F  perturbation theory with respect to B field
   DQ        =  0.001000  dq finite difference perturbation B field
   LLRAUG    =     F  two centre corrections for induced B field



--------------------------------------------------------------------------------------------------------


 conjugate gradient relaxation of ions
 charge density and potential will be updated during run
 spin polarized calculation
 RMM-DIIS sequential band-by-band and
  variant of blocked Davidson during initial phase
 perform sub-space diagonalisation
    before iterative eigenvector-optimisation
 modified Broyden-mixing scheme, WC =      100.0
 initial mixing is a Kerker type mixing with AMIX =  0.4000 and BMIX =      1.0000
 Hartree-type preconditioning will be used
 using additional bands           37
 real space projection scheme for non local part
 use partial core corrections
 calculate Harris-corrections to forces 
   (improved forces if not selfconsistent)
 use gradient corrections 
 use of overlap-Matrix (Vanderbilt PP)
 Gauss-broadening in eV      SIGMA  =   0.10


--------------------------------------------------------------------------------------------------------


  energy-cutoff  :      550.00
  volume of cell :     2848.21
      direct lattice vectors                 reciprocal lattice vectors
    14.878307727  0.000105424  0.000000000     0.067211667  0.039178051  0.000000000
    -7.439153864 12.762195204  0.000000000    -0.000000555  0.078356102  0.000000000
     0.000000000  0.000000000 15.000000000     0.000000000  0.000000000  0.066666667

  length of vectors
    14.878307728 14.772089786 15.000000000     0.077796709  0.078356102  0.066666667


 
 k-points in units of 2pi/SCALE and weight: K-Points                                
   0.00000000  0.00000000  0.00000000       0.250
   0.03360583  0.01958903  0.00000000       0.250
  -0.00000028  0.03917805  0.00000000       0.250
   0.03360556  0.05876708  0.00000000       0.250
 
 k-points in reciprocal lattice and weights: K-Points                                
   0.00000000  0.00000000  0.00000000       0.250
   0.50000000  0.00000000  0.00000000       0.250
  -0.00000000  0.50000000  0.00000000       0.250
   0.50000000  0.50000000  0.00000000       0.250
 
 position of ions in fractional coordinates (direct lattice) 
   0.00014703  0.99993181  0.49766807
   0.05571316  0.11129367  0.49774774
   0.16803225  0.00210520  0.49753985
   0.22355821  0.11343998  0.49825115
   0.33432830  0.00207694  0.49777234
   0.39014706  0.11341551  0.49841838
   0.50002407  0.99989044  0.49775648
   0.55582710  0.11125266  0.49767590
   0.66571506  0.99774295  0.49825147
   0.72152612  0.10907882  0.49753824
   0.83231512  0.99776674  0.49841003
   0.88783929  0.10910686  0.49776801
   0.99908442  0.16549374  0.49784405
   0.05430809  0.27667161  0.49853746
   0.16734775  0.16806595  0.49834347
   0.22284185  0.27957445  0.49997583
   0.33528932  0.17029644  0.49941211
   0.39084341  0.28141813  0.50254970
   0.50097822  0.16802960  0.49842000
   0.55697129  0.27954076  0.49998817
   0.66664919  0.16545038  0.49752014
   0.72257294  0.27663324  0.49802908
   0.83255361  0.16485921  0.49764969
   0.88821716  0.27620991  0.49780056
   0.99906908  0.33222521  0.49838447
   0.05442247  0.44382388  0.49884723
   0.16531768  0.33288444  0.50001215
   0.21898612  0.44382270  0.50165224
   0.33514858  0.33773328  0.50339031
   0.38694525  0.44827387  0.50958670
   0.50284791  0.33770682  0.50360105
   0.56160602  0.44823797  0.50998391
   0.66778145  0.33285443  0.49963749
   0.72504010  0.44380782  0.50114295
   0.83335701  0.33221195  0.49791518
   0.88957865  0.44380677  0.49825237
   0.00003314  0.49990030  0.49835048
   0.05573614  0.61130743  0.49834565
   0.16452790  0.49985599  0.50032235
   0.22027264  0.61134265  0.50031499
   0.32877881  0.49923631  0.50514604
   0.38513300  0.61194665  0.50514739
   0.67071104  0.49923365  0.50517220
   0.72707059  0.61195035  0.50517224
   0.83551700  0.49986026  0.49948453
   0.89125350  0.61133457  0.49948422
   0.00136430  0.66739252  0.49824937
   0.05673614  0.77898562  0.49790902
   0.16620335  0.66738054  0.49883406
   0.22244721  0.77897560  0.49837060
   0.33076298  0.66736579  0.50164604
   0.38803591  0.77830247  0.50000539
   0.49425975  0.66291375  0.50958718
   0.55300964  0.77344715  0.50338828
   0.66896610  0.66295341  0.50998288
   0.72073432  0.77348097  0.50359479
   0.83682433  0.66738081  0.50114212
   0.89051054  0.77833045  0.49963539
   0.00151950  0.83455528  0.49802741
   0.05677874  0.94573836  0.49751926
   0.16759972  0.83498348  0.49779087
   0.22328727  0.94632847  0.49764984
   0.33324173  0.83452222  0.49853136
   0.38919606  0.94569806  0.49784785
   0.49886656  0.83160652  0.49997424
   0.55488261  0.94311446  0.49834783
   0.66501623  0.82976534  0.50254304
   0.72058356  0.94088512  0.49940688
   0.83301728  0.83164625  0.49998031
   0.88852543  0.94315192  0.49840894
   0.52788678  0.55561308  0.55407295
 
 position of ions in cartesian coordinates  (Angst):
  -7.43645893 12.76132490  7.46502101
   0.00098677  1.42035737  7.46621609
   2.48437460  0.02688469  7.46309769
   2.48227038  1.44776676  7.47376727
   4.95878870  0.02654158  7.46658504
   4.96101252  1.44747206  7.47627575
   0.00117320 12.76084966  7.46634727
   7.44214093  1.41988678  7.46513856
   2.48235028 12.73346045  7.47377203
   9.92363354  1.39216125  7.46307356
   4.96090025 12.73378160  7.47615045
  12.39788345  1.39253665  7.46652020
  13.63355202  2.11216869  7.46766080
  -1.25019027  3.53094287  7.47806186
   1.23958287  2.14490807  7.47515208
   1.23571236  3.56800714  7.49963746
   3.72167632  2.17339173  7.49118168
   3.72157576  3.59155433  7.53824552
   6.20371007  2.14447940  7.47630003
   6.20724356  3.56761241  7.49982262
   8.68780104  2.11158030  7.46280215
   8.69274532  3.53052356  7.47043619
  11.16057575  2.10405319  7.46474541
  11.16040021  3.52513843  7.46700843
  12.39298273  4.24002833  7.47576708
  -2.49195986  5.66417272  7.48270852
  -0.01673121  4.24835367  7.50018218
  -0.04352248  5.66417505  7.52478359
   2.47399392  4.31025334  7.55085470
   2.42231217  5.72099937  7.64380057
   4.96927299  4.30993342  7.55401582
   5.02123589  5.72055973  7.64975858
   7.45930259  4.24802358  7.49456242
   7.48581505  5.66403852  7.51714419
   9.92756627  4.23984160  7.46872767
   9.93387816  5.66404236  7.47378561
  -3.71834223  6.37982525  7.47525727
  -3.71835051  7.80163060  7.47518475
  -1.27060894  6.37927707  7.50483528
  -1.27058799  7.80209747  7.50472492
   1.17777658  6.37138591  7.57719062
   1.17776199  7.80982318  7.57721079
   6.26516932  6.37138797  7.57758296
   6.26518706  7.80990654  7.57758361
   8.71254167  6.37940228  7.49226792
   8.71253189  7.80206507  7.49226324
  -4.94453714  8.51739379  7.47374059
  -4.95085604  9.94157246  7.46863529
  -2.49192199  8.51725823  7.48251084
  -2.48528121  9.94146208  7.47555906
  -0.04344336  8.51708741  7.52469062
  -0.01659412  9.93288892  7.50008080
   2.42223119  8.46028680  7.64380763
   2.47405524  9.87094181  7.55082413
   5.02127100  8.46081135  7.64974323
   4.96926315  9.87139105  7.55392179
   7.48578134  8.51733237  7.51713176
   7.45916989  9.93329897  7.49453080
  -6.18577746 10.65075751  7.47041111
  -6.19072161 12.06970350  7.46278894
  -3.71797037 10.65623981  7.46686302
  -3.71774635 12.07725221  7.46474766
  -1.25006613 10.65037063  7.47797042
  -1.24461459 12.06922431  7.46771775
   1.23584141 10.61317732  7.49961357
   1.23974067 12.03626939  7.47521740
   3.72156413 10.58969736  7.53814562
   3.72167477 12.00783549  7.49110317
   6.20714301 10.61371955  7.49970466
   6.20350242 12.03678263  7.47613410
   3.72077071  7.09089829  8.31109430
 


--------------------------------------------------------------------------------------------------------


 k-point  1 :   0.0000 0.0000 0.0000  plane waves:   83445
 k-point  2 :   0.5000 0.0000 0.0000  plane waves:   83448
 k-point  3 :  -0.0000 0.5000 0.0000  plane waves:   83436
 k-point  4 :   0.5000 0.5000 0.0000  plane waves:   83444

 maximum and minimum number of plane-waves per node :      6984     6935

 maximum number of plane-waves:     83448
 maximum index in each direction: 
   IXMAX=   28   IYMAX=   28   IZMAX=   28
   IXMIN=  -28   IYMIN=  -28   IZMIN=  -28


 real space projection operators:
  total allocation   :      18580.55 KBytes
  max/ min on nodes  :       1558.05       1535.34


 parallel 3D FFT for wavefunctions:
    minimum data exchange during FFTs selected (reduces bandwidth)
 parallel 3D FFT for charge:
    minimum data exchange during FFTs selected (reduces bandwidth)


 total amount of memory used by VASP MPI-rank0   135450. kBytes
=======================================================================

   base      :      30000. kBytes
   nonlr-proj:      10461. kBytes
   fftplans  :      14072. kBytes
   grid      :      39398. kBytes
   one-center:        186. kBytes
   wavefun   :      41333. kBytes
 
     INWAV:  cpu time    0.0000: real time    0.0000
 Broyden mixing: mesh for mixing (old mesh)
   NGX = 57   NGY = 57   NGZ = 57
  (NGX  =240   NGY  =240   NGZ  =240)
  gives a total of 185193 points

 initial charge density was supplied:
 charge density of overlapping atoms calculated
 number of electron     293.0000000 magnetization       1.0000000
 keeping initial charge density in first step


--------------------------------------------------------------------------------------------------------


 Maximum index for non-local projection operator          513
 Maximum index for augmentation-charges          410 (set IRDMAX)


--------------------------------------------------------------------------------------------------------


 First call to EWALD:  gamma=   0.125
 Maximum number of real-space cells 3x 3x 3
 Maximum number of reciprocal cells 3x 3x 3

    FEWALD:  cpu time    0.0036: real time    0.0038


--------------------------------------- Iteration      1(   1)  ---------------------------------------


    POTLOK:  cpu time    0.5488: real time    0.5702
    SETDIJ:  cpu time    0.0168: real time    0.0241
     EDDAV:  cpu time   16.8922: real time   17.1836
       DOS:  cpu time    0.0013: real time    0.0017
    --------------------------------------------
      LOOP:  cpu time   17.4591: real time   17.7796

 eigenvalue-minimisations  :  3248
 total energy-change (2. order) : 0.2743703E+04  (-0.1173107E+05)
 number of electron     293.0000000 magnetization       1.0000000
 augmentation part      293.0000000 magnetization       1.0000000

 Free energy of the ion-electron system (eV)
  ---------------------------------------------------
  alpha Z        PSCENC =       156.95040625
  Ewald energy   TEWEN  =     30377.05851807
  -Hartree energ DENC   =    -39543.09274525
  -exchange      EXHF   =         0.00000000
  -V(xc)+E(xc)   XCENC  =       982.54288866
  PAW double counting   =      9000.30529238    -9089.18527416
  entropy T*S    EENTRO =        -0.11464374
  eigenvalues    EBANDS =     -1206.51984059
  atomic energy  EATOM  =     12065.75791449
  Solvation  Ediel_sol  =         0.00000000
  ---------------------------------------------------
  free energy    TOTEN  =      2743.70251611 eV

  energy without entropy =     2743.81715985  energy(sigma->0) =     2743.75983798


--------------------------------------------------------------------------------------------------------




--------------------------------------- Iteration      1(   2)  ---------------------------------------


     EDDAV:  cpu time   22.0323: real time   22.6384
       DOS:  cpu time    0.0010: real time    0.0010
    --------------------------------------------
      LOOP:  cpu time   22.0333: real time   22.6393

 eigenvalue-minimisations  :  4304
 total energy-change (2. order) :-0.2914955E+04  (-0.2785658E+04)
 number of electron     293.0000000 magnetization       1.0000000
 augmentation part      293.0000000 magnetization       1.0000000

 Free energy of the ion-electron system (eV)
  ---------------------------------------------------
  alpha Z        PSCENC =       156.95040625
  Ewald energy   TEWEN  =     30377.05851807
  -Hartree energ DENC   =    -39543.09274525
  -exchange      EXHF   =         0.00000000
  -V(xc)+E(xc)   XCENC  =       982.54288866
  PAW double counting   =      9000.30529238    -9089.18527416
  entropy T*S    EENTRO =        -0.03132927
  eigenvalues    EBANDS =     -4121.55817682
  atomic energy  EATOM  =     12065.75791449
  Solvation  Ediel_sol  =         0.00000000
  ---------------------------------------------------
  free energy    TOTEN  =      -171.25250564 eV

  energy without entropy =     -171.22117637  energy(sigma->0) =     -171.23684101


--------------------------------------------------------------------------------------------------------




--------------------------------------- Iteration      1(   3)  ---------------------------------------


     EDDAV:  cpu time   18.7699: real time   19.0105
       DOS:  cpu time    0.0010: real time    0.0010
    --------------------------------------------
      LOOP:  cpu time   18.7709: real time   19.0114

 eigenvalue-minimisations  :  3560
 total energy-change (2. order) :-0.5129665E+03  (-0.5100369E+03)
 number of electron     293.0000000 magnetization       1.0000000
 augmentation part      293.0000000 magnetization       1.0000000

 Free energy of the ion-electron system (eV)
  ---------------------------------------------------
  alpha Z        PSCENC =       156.95040625
  Ewald energy   TEWEN  =     30377.05851807
  -Hartree energ DENC   =    -39543.09274525
  -exchange      EXHF   =         0.00000000
  -V(xc)+E(xc)   XCENC  =       982.54288866
  PAW double counting   =      9000.30529238    -9089.18527416
  entropy T*S    EENTRO =        -0.04047392
  eigenvalues    EBANDS =     -4634.51557458
  atomic energy  EATOM  =     12065.75791449
  Solvation  Ediel_sol  =         0.00000000
  ---------------------------------------------------
  free energy    TOTEN  =      -684.21904805 eV

  energy without entropy =     -684.17857413  energy(sigma->0) =     -684.19881109


--------------------------------------------------------------------------------------------------------




--------------------------------------- Iteration      1(   4)  ---------------------------------------


     EDDAV:  cpu time   18.8442: real time   19.1265
       DOS:  cpu time    0.0010: real time    0.0010
    --------------------------------------------
      LOOP:  cpu time   18.8452: real time   19.1275

 eigenvalue-minimisations  :  3544
 total energy-change (2. order) :-0.1950778E+02  (-0.1935632E+02)
 number of electron     293.0000000 magnetization       1.0000000
 augmentation part      293.0000000 magnetization       1.0000000

 Free energy of the ion-electron system (eV)
  ---------------------------------------------------
  alpha Z        PSCENC =       156.95040625
  Ewald energy   TEWEN  =     30377.05851807
  -Hartree energ DENC   =    -39543.09274525
  -exchange      EXHF   =         0.00000000
  -V(xc)+E(xc)   XCENC  =       982.54288866
  PAW double counting   =      9000.30529238    -9089.18527416
  entropy T*S    EENTRO =        -0.04342728
  eigenvalues    EBANDS =     -4654.02040498
  atomic energy  EATOM  =     12065.75791449
  Solvation  Ediel_sol  =         0.00000000
  ---------------------------------------------------
  free energy    TOTEN  =      -703.72683182 eV

  energy without entropy =     -703.68340454  energy(sigma->0) =     -703.70511818


--------------------------------------------------------------------------------------------------------




--------------------------------------- Iteration      1(   5)  ---------------------------------------


     EDDAV:  cpu time   20.8666: real time   21.1647
       DOS:  cpu time    0.0010: real time    0.0012
    CHARGE:  cpu time    0.9828: real time    0.9978
    MIXING:  cpu time    0.0093: real time    0.0126
    --------------------------------------------
      LOOP:  cpu time   21.8597: real time   22.1762

 eigenvalue-minimisations  :  4024
 total energy-change (2. order) :-0.6292946E+00  (-0.6272931E+00)
 number of electron     292.9999998 magnetization       0.7752017
 augmentation part       11.6645843 magnetization       0.7585813

 Broyden mixing:
  rms(total) = 0.46548E+01    rms(broyden)= 0.46544E+01
  rms(prec ) = 0.54193E+01
  weight for this iteration     100.00

 Free energy of the ion-electron system (eV)
  ---------------------------------------------------
  alpha Z        PSCENC =       156.95040625
  Ewald energy   TEWEN  =     30377.05851807
  -Hartree energ DENC   =    -39543.09274525
  -exchange      EXHF   =         0.00000000
  -V(xc)+E(xc)   XCENC  =       982.54288866
  PAW double counting   =      9000.30529238    -9089.18527416
  entropy T*S    EENTRO =        -0.04370381
  eigenvalues    EBANDS =     -4654.64942304
  atomic energy  EATOM  =     12065.75791449
  Solvation  Ediel_sol  =         0.00000000
  ---------------------------------------------------
  free energy    TOTEN  =      -704.35612641 eV

  energy without entropy =     -704.31242260  energy(sigma->0) =     -704.33427450


--------------------------------------------------------------------------------------------------------




--------------------------------------- Iteration      1(   6)  ---------------------------------------


    POTLOK:  cpu time    0.5450: real time    0.5561
    SETDIJ:  cpu time    0.0140: real time    0.0150
    EDDIAG:  cpu time    3.2937: real time    3.3317
  RMM-DIIS:  cpu time   17.5795: real time   17.7429
    ORTHCH:  cpu time    0.2438: real time    0.2449
       DOS:  cpu time    0.0010: real time    0.0010
    CHARGE:  cpu time    1.0038: real time    1.0186
    MIXING:  cpu time    0.0090: real time    0.0100
    --------------------------------------------
      LOOP:  cpu time   22.6898: real time   22.9202

 eigenvalue-minimisations  :  4034
 total energy-change (2. order) :-0.2767445E+02  (-0.5281962E+02)
 number of electron     293.0000008 magnetization       0.7189738
 augmentation part       17.3373434 magnetization       0.9488736

 Broyden mixing:
  rms(total) = 0.84029E+01    rms(broyden)= 0.84028E+01
  rms(prec ) = 0.92809E+01
  weight for this iteration     100.00

 eigenvalues of (default mixing * dielectric matrix)
  average eigenvalue GAMMA=   0.2154
  0.2154

 Free energy of the ion-electron system (eV)
  ---------------------------------------------------
  alpha Z        PSCENC =       156.95040625
  Ewald energy   TEWEN  =     30377.05851807
  -Hartree energ DENC   =    -39835.11436379
  -exchange      EXHF   =         0.00000000
  -V(xc)+E(xc)   XCENC  =       996.32217734
  PAW double counting   =     15150.18548805   -15238.89490949
  entropy T*S    EENTRO =        -0.05039673
  eigenvalues    EBANDS =     -4404.24541007
  atomic energy  EATOM  =     12065.75791449
  Solvation  Ediel_sol  =         0.00000000
  ---------------------------------------------------
  free energy    TOTEN  =      -732.03057589 eV

  energy without entropy =     -731.98017916  energy(sigma->0) =     -732.00537752


--------------------------------------------------------------------------------------------------------




--------------------------------------- Iteration      1(   7)  ---------------------------------------


    POTLOK:  cpu time    0.5446: real time    0.5561
    SETDIJ:  cpu time    0.0140: real time    0.0147
    EDDIAG:  cpu time    3.2353: real time    3.2650
  RMM-DIIS:  cpu time   13.5563: real time   13.7303
    ORTHCH:  cpu time    0.3636: real time    0.3647
       DOS:  cpu time    0.0009: real time    0.0009
    CHARGE:  cpu time    0.9868: real time    0.9991
    MIXING:  cpu time    0.0099: real time    0.0101
    --------------------------------------------
      LOOP:  cpu time   18.7115: real time   18.9407

 eigenvalue-minimisations  :  3088
 total energy-change (2. order) : 0.6942001E+02  (-0.5859741E+01)
 number of electron     293.0000006 magnetization       0.6185428
 augmentation part       15.3045939 magnetization       0.6140314

 Broyden mixing:
  rms(total) = 0.32364E+01    rms(broyden)= 0.32363E+01
  rms(prec ) = 0.38972E+01
  weight for this iteration     100.00

 eigenvalues of (default mixing * dielectric matrix)
  average eigenvalue GAMMA=   0.4630
  0.4630  0.4630

 Free energy of the ion-electron system (eV)
  ---------------------------------------------------
  alpha Z        PSCENC =       156.95040625
  Ewald energy   TEWEN  =     30377.05851807
  -Hartree energ DENC   =    -39956.66755567
  -exchange      EXHF   =         0.00000000
  -V(xc)+E(xc)   XCENC  =      1000.85536088
  PAW double counting   =     16736.07424334   -16831.59034431
  entropy T*S    EENTRO =        -0.00013443
  eigenvalues    EBANDS =     -4211.04897575
  atomic energy  EATOM  =     12065.75791449
  Solvation  Ediel_sol  =         0.00000000
  ---------------------------------------------------
  free energy    TOTEN  =      -662.61056713 eV

  energy without entropy =     -662.61043270  energy(sigma->0) =     -662.61049991


--------------------------------------------------------------------------------------------------------




--------------------------------------- Iteration      1(   8)  ---------------------------------------


    POTLOK:  cpu time    0.5389: real time    0.5443
    SETDIJ:  cpu time    0.0145: real time    0.0147
    EDDIAG:  cpu time    3.1920: real time    3.2170
  RMM-DIIS:  cpu time   13.6322: real time   13.7340
    ORTHCH:  cpu time    0.3976: real time    0.4175
       DOS:  cpu time    0.0010: real time    0.0010
    CHARGE:  cpu time    0.9806: real time    0.9933
    MIXING:  cpu time    0.0106: real time    0.0110
    --------------------------------------------
      LOOP:  cpu time   18.7675: real time   18.9328

 eigenvalue-minimisations  :  3126
 total energy-change (2. order) : 0.1989170E-01  (-0.2240924E+01)
 number of electron     292.9999999 magnetization       0.3487429
 augmentation part       11.2251206 magnetization       0.3082859

 Broyden mixing:
  rms(total) = 0.28444E+01    rms(broyden)= 0.28441E+01
  rms(prec ) = 0.34891E+01
  weight for this iteration     100.00

 eigenvalues of (default mixing * dielectric matrix)
  average eigenvalue GAMMA=   0.8452
  1.8579  0.3388  0.3388

 Free energy of the ion-electron system (eV)
  ---------------------------------------------------
  alpha Z        PSCENC =       156.95040625
  Ewald energy   TEWEN  =     30377.05851807
  -Hartree energ DENC   =    -40135.91148237
  -exchange      EXHF   =         0.00000000
  -V(xc)+E(xc)   XCENC  =      1007.51320213
  PAW double counting   =     19603.13116265   -19702.65915733
  entropy T*S    EENTRO =        -0.03018102
  eigenvalues    EBANDS =     -4034.40105831
  atomic energy  EATOM  =     12065.75791449
  Solvation  Ediel_sol  =         0.00000000
  ---------------------------------------------------
  free energy    TOTEN  =      -662.59067543 eV

  energy without entropy =     -662.56049441  energy(sigma->0) =     -662.57558492


--------------------------------------------------------------------------------------------------------




--------------------------------------- Iteration      1(   9)  ---------------------------------------


    POTLOK:  cpu time    0.5340: real time    0.5385
    SETDIJ:  cpu time    0.0148: real time    0.0150
    EDDIAG:  cpu time    3.2114: real time    3.2402
  RMM-DIIS:  cpu time   13.0454: real time   13.3294
    ORTHCH:  cpu time    0.4536: real time    0.4656
       DOS:  cpu time    0.0010: real time    0.0010
    CHARGE:  cpu time    0.9999: real time    1.0259
    MIXING:  cpu time    0.0104: real time    0.0105
    --------------------------------------------
      LOOP:  cpu time   18.2706: real time   18.6261

 eigenvalue-minimisations  :  2967
 total energy-change (2. order) : 0.1535390E+02  (-0.1985767E+01)
 number of electron     293.0000002 magnetization       0.2584620
 augmentation part       12.1460007 magnetization       0.2752571

 Broyden mixing:
  rms(total) = 0.11896E+01    rms(broyden)= 0.11894E+01
  rms(prec ) = 0.13512E+01
  weight for this iteration     100.00

 eigenvalues of (default mixing * dielectric matrix)
  average eigenvalue GAMMA=   0.9114
  2.2159  0.7272  0.3511  0.3511

 Free energy of the ion-electron system (eV)
  ---------------------------------------------------
  alpha Z        PSCENC =       156.95040625
  Ewald energy   TEWEN  =     30377.05851807
  -Hartree energ DENC   =    -40441.35857828
  -exchange      EXHF   =         0.00000000
  -V(xc)+E(xc)   XCENC  =      1020.37178133
  PAW double counting   =     27787.11398059   -27889.42486180
  entropy T*S    EENTRO =        -0.00278320
  eigenvalues    EBANDS =     -3723.70315573
  atomic energy  EATOM  =     12065.75791449
  Solvation  Ediel_sol  =         0.00000000
  ---------------------------------------------------
  free energy    TOTEN  =      -647.23677827 eV

  energy without entropy =     -647.23399508  energy(sigma->0) =     -647.23538667


--------------------------------------------------------------------------------------------------------




--------------------------------------- Iteration      1(  10)  ---------------------------------------


    POTLOK:  cpu time    0.5452: real time    0.5498
    SETDIJ:  cpu time    0.0147: real time    0.0150
    EDDIAG:  cpu time    3.3388: real time    3.3662
  RMM-DIIS:  cpu time   13.1935: real time   13.3073
    ORTHCH:  cpu time    0.3050: real time    0.3061
       DOS:  cpu time    0.0010: real time    0.0010
    CHARGE:  cpu time    0.9679: real time    0.9808
    MIXING:  cpu time    0.0119: real time    0.0120
    --------------------------------------------
      LOOP:  cpu time   18.3781: real time   18.5381

 eigenvalue-minimisations  :  2991
 total energy-change (2. order) :-0.4143585E+00  (-0.3357339E+00)
 number of electron     293.0000005 magnetization       0.2044643
 augmentation part       13.7706045 magnetization       0.2218258

 Broyden mixing:
  rms(total) = 0.14519E+01    rms(broyden)= 0.14515E+01
  rms(prec ) = 0.18071E+01
  weight for this iteration     100.00

 eigenvalues of (default mixing * dielectric matrix)
  average eigenvalue GAMMA=   0.9240
  2.3355  1.1081  0.3471  0.3471  0.4820

 Free energy of the ion-electron system (eV)
  ---------------------------------------------------
  alpha Z        PSCENC =       156.95040625
  Ewald energy   TEWEN  =     30377.05851807
  -Hartree energ DENC   =    -40485.78167738
  -exchange      EXHF   =         0.00000000
  -V(xc)+E(xc)   XCENC  =      1021.36011611
  PAW double counting   =     29331.24353574   -29432.42383083
  entropy T*S    EENTRO =        -0.00552899
  eigenvalues    EBANDS =     -3681.81059027
  atomic energy  EATOM  =     12065.75791449
  Solvation  Ediel_sol  =         0.00000000
  ---------------------------------------------------
  free energy    TOTEN  =      -647.65113681 eV

  energy without entropy =     -647.64560782  energy(sigma->0) =     -647.64837232


--------------------------------------------------------------------------------------------------------




--------------------------------------- Iteration      1(  11)  ---------------------------------------


    POTLOK:  cpu time    0.5351: real time    0.5446
    SETDIJ:  cpu time    0.0469: real time    0.0475
    EDDIAG:  cpu time    3.2083: real time    3.2344
  RMM-DIIS:  cpu time   13.8701: real time   14.0272
    ORTHCH:  cpu time    0.3393: real time    0.3598
       DOS:  cpu time    0.0011: real time    0.0011
    CHARGE:  cpu time    0.9987: real time    1.0078
    MIXING:  cpu time    0.0125: real time    0.0125
    --------------------------------------------
      LOOP:  cpu time   19.0118: real time   19.2348

 eigenvalue-minimisations  :  3144
 total energy-change (2. order) : 0.1099454E+01  (-0.4011314E-01)
 number of electron     293.0000003 magnetization       0.1426745
 augmentation part       12.5490266 magnetization       0.1214994

 Broyden mixing:
  rms(total) = 0.77666E+00    rms(broyden)= 0.77610E+00
  rms(prec ) = 0.82462E+00
  weight for this iteration     100.00

 eigenvalues of (default mixing * dielectric matrix)
  average eigenvalue GAMMA=   0.9606
  2.1024  1.9833  0.6330  0.3453  0.3453  0.3544

 Free energy of the ion-electron system (eV)
  ---------------------------------------------------
  alpha Z        PSCENC =       156.95040625
  Ewald energy   TEWEN  =     30377.05851807
  -Hartree energ DENC   =    -40519.07984578
  -exchange      EXHF   =         0.00000000
  -V(xc)+E(xc)   XCENC  =      1021.77855246
  PAW double counting   =     29996.03990505   -30096.52015483
  entropy T*S    EENTRO =        -0.02694166
  eigenvalues    EBANDS =     -3648.51003698
  atomic energy  EATOM  =     12065.75791449
  Solvation  Ediel_sol  =         0.00000000
  ---------------------------------------------------
  free energy    TOTEN  =      -646.55168293 eV

  energy without entropy =     -646.52474126  energy(sigma->0) =     -646.53821209


--------------------------------------------------------------------------------------------------------




--------------------------------------- Iteration      1(  12)  ---------------------------------------


    POTLOK:  cpu time    0.5335: real time    0.5389
    SETDIJ:  cpu time    0.0139: real time    0.0149
    EDDIAG:  cpu time    3.2227: real time    3.3424
  RMM-DIIS:  cpu time   12.8735: real time   12.9679
    ORTHCH:  cpu time    0.4763: real time    0.4793
       DOS:  cpu time    0.0011: real time    0.0011
    CHARGE:  cpu time    0.9890: real time    1.0023
    MIXING:  cpu time    0.0116: real time    0.0116
    --------------------------------------------
      LOOP:  cpu time   18.1216: real time   18.3584

 eigenvalue-minimisations  :  2944
 total energy-change (2. order) : 0.1461924E+00  (-0.1480025E-01)
 number of electron     293.0000004 magnetization       0.1631146
 augmentation part       12.8967696 magnetization      -0.1960282

 Broyden mixing:
  rms(total) = 0.64923E+00    rms(broyden)= 0.64896E+00
  rms(prec ) = 0.67199E+00
  weight for this iteration     100.00

 eigenvalues of (default mixing * dielectric matrix)
  average eigenvalue GAMMA=   0.8531
  2.1004  2.1004  0.5514  0.3467  0.3467  0.3602  0.1657

 Free energy of the ion-electron system (eV)
  ---------------------------------------------------
  alpha Z        PSCENC =       156.95040625
  Ewald energy   TEWEN  =     30377.05851807
  -Hartree energ DENC   =    -40544.32167993
  -exchange      EXHF   =         0.00000000
  -V(xc)+E(xc)   XCENC  =      1021.38818611
  PAW double counting   =     30419.08016482   -30518.10883132
  entropy T*S    EENTRO =        -0.06163721
  eigenvalues    EBANDS =     -3624.14853180
  atomic energy  EATOM  =     12065.75791449
  Solvation  Ediel_sol  =         0.00000000
  ---------------------------------------------------
  free energy    TOTEN  =      -646.40549052 eV

  energy without entropy =     -646.34385330  energy(sigma->0) =     -646.37467191


--------------------------------------------------------------------------------------------------------




--------------------------------------- Iteration      1(  13)  ---------------------------------------


    POTLOK:  cpu time    0.5619: real time    0.5659
    SETDIJ:  cpu time    0.0147: real time    0.0161
    EDDIAG:  cpu time    3.3681: real time    3.4137
  RMM-DIIS:  cpu time   13.0801: real time   13.2193
    ORTHCH:  cpu time    0.2639: real time    0.2666
       DOS:  cpu time    0.0011: real time    0.0011
    CHARGE:  cpu time    1.0093: real time    1.0184
    MIXING:  cpu time    0.0134: real time    0.0138
    --------------------------------------------
      LOOP:  cpu time   18.3126: real time   18.5148

 eigenvalue-minimisations  :  2990
 total energy-change (2. order) :-0.1075739E+00  (-0.2832538E-02)
 number of electron     293.0000004 magnetization       0.0577445
 augmentation part       12.9671472 magnetization      -0.3987996

 Broyden mixing:
  rms(total) = 0.72795E+00    rms(broyden)= 0.72790E+00
  rms(prec ) = 0.76252E+00
  weight for this iteration     100.00

 eigenvalues of (default mixing * dielectric matrix)
  average eigenvalue GAMMA=   0.8679
  2.1661  2.1661  0.6648  0.3458  0.3458  0.5199  0.3336  0.4010

 Free energy of the ion-electron system (eV)
  ---------------------------------------------------
  alpha Z        PSCENC =       156.95040625
  Ewald energy   TEWEN  =     30377.05851807
  -Hartree energ DENC   =    -40546.80039861
  -exchange      EXHF   =         0.00000000
  -V(xc)+E(xc)   XCENC  =      1021.40579287
  PAW double counting   =     30427.58185575   -30526.50287452
  entropy T*S    EENTRO =        -0.03895491
  eigenvalues    EBANDS =     -3621.92532378
  atomic energy  EATOM  =     12065.75791449
  Solvation  Ediel_sol  =         0.00000000
  ---------------------------------------------------
  free energy    TOTEN  =      -646.51306439 eV

  energy without entropy =     -646.47410948  energy(sigma->0) =     -646.49358694


--------------------------------------------------------------------------------------------------------




--------------------------------------- Iteration      1(  14)  ---------------------------------------


    POTLOK:  cpu time    0.5392: real time    0.5439
    SETDIJ:  cpu time    0.0149: real time    0.0150
    EDDIAG:  cpu time    3.2899: real time    3.3148
  RMM-DIIS:  cpu time   13.1147: real time   13.2150
    ORTHCH:  cpu time    0.5362: real time    0.5382
       DOS:  cpu time    0.0010: real time    0.0010
    CHARGE:  cpu time    1.0532: real time    1.0614
    MIXING:  cpu time    0.0132: real time    0.0132
    --------------------------------------------
      LOOP:  cpu time   18.5623: real time   18.7026

 eigenvalue-minimisations  :  2969
 total energy-change (2. order) : 0.1950490E+00  (-0.3116990E-02)
 number of electron     293.0000004 magnetization       0.0196189
 augmentation part       13.0226155 magnetization      -0.3076024

 Broyden mixing:
  rms(total) = 0.68890E+00    rms(broyden)= 0.68888E+00
  rms(prec ) = 0.74205E+00
  weight for this iteration     100.00

 eigenvalues of (default mixing * dielectric matrix)
  average eigenvalue GAMMA=   0.8210
  2.1973  2.1973  0.6788  0.3455  0.3455  0.5081  0.3371  0.3899  0.3899

 Free energy of the ion-electron system (eV)
  ---------------------------------------------------
  alpha Z        PSCENC =       156.95040625
  Ewald energy   TEWEN  =     30377.05851807
  -Hartree energ DENC   =    -40549.77418538
  -exchange      EXHF   =         0.00000000
  -V(xc)+E(xc)   XCENC  =      1021.40852894
  PAW double counting   =     30515.10669259   -30613.90203759
  entropy T*S    EENTRO =        -0.07053003
  eigenvalues    EBANDS =     -3618.85332272
  atomic energy  EATOM  =     12065.75791449
  Solvation  Ediel_sol  =         0.00000000
  ---------------------------------------------------
  free energy    TOTEN  =      -646.31801538 eV

  energy without entropy =     -646.24748535  energy(sigma->0) =     -646.28275036


--------------------------------------------------------------------------------------------------------




--------------------------------------- Iteration      1(  15)  ---------------------------------------


    POTLOK:  cpu time    0.5258: real time    0.5299
    SETDIJ:  cpu time    0.0151: real time    0.0152
    EDDIAG:  cpu time    3.3068: real time    3.3340
  RMM-DIIS:  cpu time   13.0903: real time   13.1968
    ORTHCH:  cpu time    0.4410: real time    0.4424
       DOS:  cpu time    0.0010: real time    0.0010
    CHARGE:  cpu time    1.0054: real time    1.0188
    MIXING:  cpu time    0.0136: real time    0.0138
    --------------------------------------------
      LOOP:  cpu time   18.3990: real time   18.5519

 eigenvalue-minimisations  :  3020
 total energy-change (2. order) :-0.7159381E-02  (-0.7474662E-03)
 number of electron     293.0000004 magnetization       0.0542185
 augmentation part       13.0265487 magnetization       0.0429346

 Broyden mixing:
  rms(total) = 0.53201E+00    rms(broyden)= 0.53178E+00
  rms(prec ) = 0.60121E+00
  weight for this iteration     100.00

 eigenvalues of (default mixing * dielectric matrix)
  average eigenvalue GAMMA=   0.8124
  2.2171  2.2171  0.4607  0.7136  0.6611  0.3461  0.3461  0.4133  0.4133  0.3355

 Free energy of the ion-electron system (eV)
  ---------------------------------------------------
  alpha Z        PSCENC =       156.95040625
  Ewald energy   TEWEN  =     30377.05851807
  -Hartree energ DENC   =    -40551.24221350
  -exchange      EXHF   =         0.00000000
  -V(xc)+E(xc)   XCENC  =      1021.43776563
  PAW double counting   =     30514.41810275   -30613.24534134
  entropy T*S    EENTRO =        -0.09192465
  eigenvalues    EBANDS =     -3617.36840246
  atomic energy  EATOM  =     12065.75791449
  Solvation  Ediel_sol  =         0.00000000
  ---------------------------------------------------
  free energy    TOTEN  =      -646.32517476 eV

  energy without entropy =     -646.23325011  energy(sigma->0) =     -646.27921244


--------------------------------------------------------------------------------------------------------




--------------------------------------- Iteration      1(  16)  ---------------------------------------


    POTLOK:  cpu time    0.5213: real time    0.5264
    SETDIJ:  cpu time    0.0145: real time    0.0147
    EDDIAG:  cpu time    3.2420: real time    3.2697
  RMM-DIIS:  cpu time   12.7920: real time   13.0017
    ORTHCH:  cpu time    0.3189: real time    0.3199
       DOS:  cpu time    0.0011: real time    0.0011
    CHARGE:  cpu time    0.9710: real time    0.9785
    MIXING:  cpu time    0.0136: real time    0.0138
    --------------------------------------------
      LOOP:  cpu time   17.8745: real time   18.1258

 eigenvalue-minimisations  :  2945
 total energy-change (2. order) :-0.2381357E-01  (-0.2017807E-02)
 number of electron     293.0000004 magnetization       0.0461234
 augmentation part       12.9344430 magnetization      -0.0605756

 Broyden mixing:
  rms(total) = 0.43537E+00    rms(broyden)= 0.43535E+00
  rms(prec ) = 0.47729E+00
  weight for this iteration     100.00

 eigenvalues of (default mixing * dielectric matrix)
  average eigenvalue GAMMA=   0.7603
  2.2146  2.2146  0.4699  0.6778  0.6778  0.4616  0.4616  0.3459  0.3459  0.3386
  0.1552

 Free energy of the ion-electron system (eV)
  ---------------------------------------------------
  alpha Z        PSCENC =       156.95040625
  Ewald energy   TEWEN  =     30377.05851807
  -Hartree energ DENC   =    -40568.61899069
  -exchange      EXHF   =         0.00000000
  -V(xc)+E(xc)   XCENC  =      1021.69982711
  PAW double counting   =     30504.70834617   -30603.53287186
  entropy T*S    EENTRO =        -0.08663152
  eigenvalues    EBANDS =     -3600.28550636
  atomic energy  EATOM  =     12065.75791449
  Solvation  Ediel_sol  =         0.00000000
  ---------------------------------------------------
  free energy    TOTEN  =      -646.34898834 eV

  energy without entropy =     -646.26235682  energy(sigma->0) =     -646.30567258


--------------------------------------------------------------------------------------------------------




--------------------------------------- Iteration      1(  17)  ---------------------------------------


    POTLOK:  cpu time    0.5432: real time    0.5479
    SETDIJ:  cpu time    0.0145: real time    0.0149
    EDDIAG:  cpu time    3.2576: real time    3.2872
  RMM-DIIS:  cpu time   12.9833: real time   13.0793
    ORTHCH:  cpu time    0.2989: real time    0.3002
       DOS:  cpu time    0.0011: real time    0.0011
    CHARGE:  cpu time    0.9944: real time    1.0067
    MIXING:  cpu time    0.0142: real time    0.0143
    --------------------------------------------
      LOOP:  cpu time   18.1072: real time   18.2516

 eigenvalue-minimisations  :  2996
 total energy-change (2. order) :-0.4556611E-02  (-0.2812996E-02)
 number of electron     293.0000003 magnetization       0.0541704
 augmentation part       12.7067991 magnetization      -0.1584185

 Broyden mixing:
  rms(total) = 0.37141E+00    rms(broyden)= 0.37133E+00
  rms(prec ) = 0.38206E+00
  weight for this iteration     100.00

 eigenvalues of (default mixing * dielectric matrix)
  average eigenvalue GAMMA=   0.7653
  2.2068  2.2068  0.4852  0.4852  0.7474  0.7474  0.3453  0.3453  0.4896  0.3974
  0.3974  0.3292

 Free energy of the ion-electron system (eV)
  ---------------------------------------------------
  alpha Z        PSCENC =       156.95040625
  Ewald energy   TEWEN  =     30377.05851807
  -Hartree energ DENC   =    -40590.80119419
  -exchange      EXHF   =         0.00000000
  -V(xc)+E(xc)   XCENC  =      1021.97769325
  PAW double counting   =     30445.03386706   -30543.81176428
  entropy T*S    EENTRO =        -0.05723476
  eigenvalues    EBANDS =     -3578.46175083
  atomic energy  EATOM  =     12065.75791449
  Solvation  Ediel_sol  =         0.00000000
  ---------------------------------------------------
  free energy    TOTEN  =      -646.35354495 eV

  energy without entropy =     -646.29631019  energy(sigma->0) =     -646.32492757


--------------------------------------------------------------------------------------------------------




--------------------------------------- Iteration      1(  18)  ---------------------------------------


    POTLOK:  cpu time    0.5401: real time    0.5437
    SETDIJ:  cpu time    0.0145: real time    0.0146
    EDDIAG:  cpu time    3.2499: real time    3.2764
  RMM-DIIS:  cpu time   13.4735: real time   13.5761
    ORTHCH:  cpu time    0.4017: real time    0.4031
       DOS:  cpu time    0.0010: real time    0.0010
    CHARGE:  cpu time    1.0086: real time    1.0211
    MIXING:  cpu time    0.0146: real time    0.0146
    --------------------------------------------
      LOOP:  cpu time   18.7038: real time   18.8505

 eigenvalue-minimisations  :  3091
 total energy-change (2. order) :-0.2804935E-01  (-0.8099111E-03)
 number of electron     293.0000004 magnetization       0.0567308
 augmentation part       12.8234175 magnetization      -0.2491907

 Broyden mixing:
  rms(total) = 0.43800E+00    rms(broyden)= 0.43796E+00
  rms(prec ) = 0.44834E+00
  weight for this iteration     100.00

 eigenvalues of (default mixing * dielectric matrix)
  average eigenvalue GAMMA=   0.7438
  2.2035  2.2035  0.7092  0.5073  0.7538  0.7538  0.3453  0.3453  0.4184  0.4184
  0.3739  0.3182  0.3182

 Free energy of the ion-electron system (eV)
  ---------------------------------------------------
  alpha Z        PSCENC =       156.95040625
  Ewald energy   TEWEN  =     30377.05851807
  -Hartree energ DENC   =    -40594.48897374
  -exchange      EXHF   =         0.00000000
  -V(xc)+E(xc)   XCENC  =      1022.00009983
  PAW double counting   =     30433.21695214   -30531.95113865
  entropy T*S    EENTRO =        -0.05359029
  eigenvalues    EBANDS =     -3574.87178240
  atomic energy  EATOM  =     12065.75791449
  Solvation  Ediel_sol  =         0.00000000
  ---------------------------------------------------
  free energy    TOTEN  =      -646.38159429 eV

  energy without entropy =     -646.32800401  energy(sigma->0) =     -646.35479915


--------------------------------------------------------------------------------------------------------




--------------------------------------- Iteration      1(  19)  ---------------------------------------


    POTLOK:  cpu time    0.5416: real time    0.5456
    SETDIJ:  cpu time    0.0148: real time    0.0148
    EDDIAG:  cpu time    3.2736: real time    3.2978
  RMM-DIIS:  cpu time   13.2776: real time   13.3878
    ORTHCH:  cpu time    0.2682: real time    0.2691
       DOS:  cpu time    0.0009: real time    0.0010
    CHARGE:  cpu time    0.9748: real time    0.9898
    MIXING:  cpu time    0.0150: real time    0.0151
    --------------------------------------------
      LOOP:  cpu time   18.3665: real time   18.5208

 eigenvalue-minimisations  :  2993
 total energy-change (2. order) :-0.1359388E-02  (-0.4074109E-03)
 number of electron     293.0000003 magnetization       0.0504918
 augmentation part       12.8000793 magnetization      -0.2433574

 Broyden mixing:
  rms(total) = 0.42162E+00    rms(broyden)= 0.42162E+00
  rms(prec ) = 0.42903E+00
  weight for this iteration     100.00

 eigenvalues of (default mixing * dielectric matrix)
  average eigenvalue GAMMA=   0.7020
  2.2047  2.2047  0.7964  0.5001  0.7489  0.7489  0.3456  0.3456  0.4258  0.4258
  0.3820  0.2498  0.2498  0.2002

 Free energy of the ion-electron system (eV)
  ---------------------------------------------------
  alpha Z        PSCENC =       156.95040625
  Ewald energy   TEWEN  =     30377.05851807
  -Hartree energ DENC   =    -40594.87469223
  -exchange      EXHF   =         0.00000000
  -V(xc)+E(xc)   XCENC  =      1022.00132332
  PAW double counting   =     30433.88074436   -30532.59314093
  entropy T*S    EENTRO =        -0.05242169
  eigenvalues    EBANDS =     -3574.51160533
  atomic energy  EATOM  =     12065.75791449
  Solvation  Ediel_sol  =         0.00000000
  ---------------------------------------------------
  free energy    TOTEN  =      -646.38295368 eV

  energy without entropy =     -646.33053200  energy(sigma->0) =     -646.35674284


--------------------------------------------------------------------------------------------------------




--------------------------------------- Iteration      1(  20)  ---------------------------------------


    POTLOK:  cpu time    0.5355: real time    0.5405
    SETDIJ:  cpu time    0.0139: real time    0.0150
    EDDIAG:  cpu time    3.2205: real time    3.2416
  RMM-DIIS:  cpu time   10.4387: real time   10.5108
    ORTHCH:  cpu time    0.4153: real time    0.4170
       DOS:  cpu time    0.0010: real time    0.0010
    CHARGE:  cpu time    0.9762: real time    0.9858
    MIXING:  cpu time    0.0154: real time    0.0156
    --------------------------------------------
      LOOP:  cpu time   15.6166: real time   15.7273

 eigenvalue-minimisations  :  2272
 total energy-change (2. order) : 0.7654556E-02  (-0.5743387E-04)
 number of electron     293.0000003 magnetization       0.1597839
 augmentation part       12.7939034 magnetization      -0.1281228

 Broyden mixing:
  rms(total) = 0.41953E+00    rms(broyden)= 0.41953E+00
  rms(prec ) = 0.42636E+00
  weight for this iteration     100.00

 eigenvalues of (default mixing * dielectric matrix)
  average eigenvalue GAMMA=   0.8177
  2.2023  2.2023  1.3917  1.3917  0.4900  0.6315  0.6315  0.6263  0.5866  0.3450
  0.3450  0.3689  0.3689  0.3414  0.3414

 Free energy of the ion-electron system (eV)
  ---------------------------------------------------
  alpha Z        PSCENC =       156.95040625
  Ewald energy   TEWEN  =     30377.05851807
  -Hartree energ DENC   =    -40594.92099871
  -exchange      EXHF   =         0.00000000
  -V(xc)+E(xc)   XCENC  =      1022.00020528
  PAW double counting   =     30434.10510886   -30532.81380367
  entropy T*S    EENTRO =        -0.05288279
  eigenvalues    EBANDS =     -3574.45976691
  atomic energy  EATOM  =     12065.75791449
  Solvation  Ediel_sol  =         0.00000000
  ---------------------------------------------------
  free energy    TOTEN  =      -646.37529913 eV

  energy without entropy =     -646.32241633  energy(sigma->0) =     -646.34885773


[...]
  E(xc)   -1111.04084 -1110.73477 -1150.16943     0.00002    -0.00118    -0.00139
  Local  -83769.42137-83714.66031 86084.56855     0.00887    -0.84396    -1.01954
  n-local  -289.50922  -286.70444  -269.73241    -0.00036    -0.04140     0.02211
  augment    66.67237    65.02738    65.44430    -0.00061     0.01579     0.01175
  Kinetic  4383.06373  4371.22100  4985.39755    -0.00254     0.01899    -0.03715
  Fock        0.00000     0.00000     0.00000     0.00000     0.00000     0.00000
  vdW        -1.53506    -1.67721    -0.04219    -0.00001    -0.00058     0.00061
  -------------------------------------------------------------------------------------
  Total       0.13880     0.19947    -0.70961    -0.00114    -0.01266    -0.00108
  in kB       0.07821     0.11239    -0.39983    -0.00064    -0.00713    -0.00061
  external pressure =       -0.07 kB  Pullay stress =        0.00 kB


 VOLUME and BASIS-vectors are now :
 -----------------------------------------------------------------------------
  energy-cutoff  :      550.00
  volume of cell :     2843.49
      direct lattice vectors                 reciprocal lattice vectors
    14.860536817  0.000011824  0.000000000     0.067292289  0.039196149  0.000000000
    -7.430268409 12.756349395  0.000000000    -0.000000062  0.078392297  0.000000000
     0.000000000  0.000000000 15.000000000     0.000000000  0.000000000  0.066666667

  length of vectors
    14.860536817 14.762565445 15.000000000     0.077875479  0.078392297  0.066666667


 FORCES acting on ions
    electron-ion (+dipol)            ewald-force                    non-local-force                 convergence-correction
 -----------------------------------------------------------------------------------------------
   0.104E+01 -.679E+00 0.796E+01   -.112E+01 0.641E+00 -.799E+01   0.819E-01 0.491E-01 0.311E-01   -.819E-03 -.575E-03 -.314E-03
   -.180E+01 0.128E+01 0.768E+01   0.197E+01 -.132E+01 -.772E+01   -.157E+00 0.156E-01 0.306E-01   -.190E-02 0.377E-02 -.336E-03
   0.555E+00 -.724E+00 0.733E+01   -.586E+00 0.902E+00 -.736E+01   0.160E-01 -.177E+00 0.254E-01   0.572E-03 -.364E-02 -.349E-03
   -.158E+01 0.591E+00 0.754E+01   0.166E+01 -.471E+00 -.755E+01   -.930E-01 -.135E+00 0.940E-02   -.731E-03 0.984E-03 -.332E-03
   -.555E+00 -.710E+00 0.655E+01   0.586E+00 0.887E+00 -.658E+01   -.167E-01 -.176E+00 0.197E-01   -.497E-03 -.368E-02 -.564E-03
   0.159E+01 0.593E+00 0.691E+01   -.167E+01 -.472E+00 -.691E+01   0.925E-01 -.135E+00 0.387E-02   0.688E-03 0.885E-03 -.540E-03
   -.104E+01 -.673E+00 0.770E+01   0.112E+01 0.636E+00 -.772E+01   -.824E-01 0.509E-01 0.275E-01   0.858E-03 -.771E-03 -.338E-03
   0.180E+01 0.129E+01 0.786E+01   -.197E+01 -.132E+01 -.789E+01   0.156E+00 0.174E-01 0.330E-01   0.194E-02 0.355E-02 -.333E-03
   -.176E+01 0.395E+00 0.752E+01   0.178E+01 -.595E+00 -.753E+01   -.181E-01 0.219E+00 0.856E-02   0.434E-03 0.181E-02 -.285E-03
   0.666E+00 0.193E+01 0.733E+01   -.779E+00 -.221E+01 -.736E+01   0.106E+00 0.276E+00 0.256E-01   0.133E-02 0.413E-02 -.315E-03
   0.177E+01 0.395E+00 0.690E+01   -.179E+01 -.594E+00 -.690E+01   0.172E-01 0.218E+00 0.348E-02   -.548E-03 0.194E-02 -.474E-03
   -.668E+00 0.192E+01 0.652E+01   0.781E+00 -.219E+01 -.654E+01   -.106E+00 0.276E+00 0.200E-01   -.132E-02 0.420E-02 -.526E-03
   0.148E+00 0.529E+01 0.682E+01   -.604E-01 -.555E+01 -.683E+01   -.100E+00 0.252E+00 0.661E-02   -.446E-03 0.495E-02 -.497E-03
   0.602E+00 0.654E+01 0.638E+01   0.319E-01 -.694E+01 -.640E+01   -.620E+00 0.385E+00 0.155E-01   -.528E-03 0.423E-02 -.485E-03
   0.792E+00 0.542E+01 0.872E+01   -.696E+00 -.536E+01 -.873E+01   -.105E+00 -.874E-01 0.159E-01   -.453E-02 0.407E-02 -.245E-03
   -.306E+01 0.736E+01 0.102E+02   0.373E+01 -.721E+01 -.103E+02   -.663E+00 -.148E+00 0.109E+00   -.618E-02 0.267E-02 -.239E-03
   -.952E-02 0.555E+01 0.741E+01   0.986E-02 -.516E+01 -.744E+01   -.111E-02 -.398E+00 0.270E-01   -.215E-04 -.362E-03 -.573E-03
   -.318E-01 0.696E+01 0.618E+01   0.342E-01 -.632E+01 -.575E+01   -.214E-02 -.626E+00 -.435E+00   -.119E-03 -.151E-02 -.685E-03
   -.803E+00 0.540E+01 0.830E+01   0.708E+00 -.534E+01 -.831E+01   0.104E+00 -.876E-01 0.116E-01   0.450E-02 0.388E-02 -.453E-03
   0.311E+01 0.735E+01 0.986E+01   -.378E+01 -.720E+01 -.997E+01   0.663E+00 -.147E+00 0.105E+00   0.614E-02 0.258E-02 -.457E-03
   -.147E+00 0.528E+01 0.782E+01   0.598E-01 -.554E+01 -.783E+01   0.998E-01 0.253E+00 0.754E-02   0.480E-03 0.478E-02 -.236E-03
   -.573E+00 0.654E+01 0.799E+01   -.619E-01 -.693E+01 -.801E+01   0.621E+00 0.386E+00 0.248E-01   0.609E-03 0.410E-02 -.781E-04
   0.950E-03 0.596E+01 0.603E+01   -.673E-03 -.655E+01 -.601E+01   0.120E-03 0.580E+00 -.169E-01   0.432E-04 0.460E-02 -.493E-03
   -.630E-02 0.112E+02 0.617E+01   0.590E-02 -.121E+02 -.620E+01   0.472E-03 0.872E+00 0.200E-01   0.775E-04 0.346E-02 -.468E-03
   -.541E+01 0.117E+02 0.530E+01   0.581E+01 -.131E+02 -.531E+01   -.397E+00 0.145E+01 -.489E-02   -.463E-03 0.276E-02 -.537E-03
   -.206E+02 0.181E+02 0.501E+01   0.261E+02 -.212E+02 -.499E+01   -.548E+01 0.310E+01 -.180E-01   -.130E-02 0.119E-02 -.402E-03
   0.227E+00 0.118E+02 0.689E+01   0.262E+00 -.120E+02 -.685E+01   -.512E+00 0.198E+00 -.425E-01   -.310E-02 0.279E-02 -.281E-03
   0.765E+01 0.632E+01 0.627E+01   -.682E+01 -.651E+01 -.640E+01   -.818E+00 0.199E+00 0.125E+00   -.378E-02 0.104E-02 -.149E-03
   -.236E+01 0.182E+02 0.125E+02   0.272E+01 -.173E+02 -.127E+02   -.378E+00 -.927E+00 0.244E+00   -.733E-02 -.506E-03 -.436E-03
   -.860E+01 0.342E+02 0.234E+02   0.149E+02 -.306E+02 -.224E+02   -.634E+01 -.355E+01 -.102E+01   -.106E-01 -.383E-02 -.172E-02
   0.231E+01 0.182E+02 0.115E+02   -.266E+01 -.172E+02 -.117E+02   0.375E+00 -.935E+00 0.242E+00   0.714E-02 -.532E-03 -.751E-03
   0.839E+01 0.341E+02 0.211E+02   -.147E+02 -.305E+02 -.200E+02   0.633E+01 -.356E+01 -.107E+01   0.103E-01 -.360E-02 -.210E-02
   -.207E+00 0.117E+02 0.785E+01   -.281E+00 -.119E+02 -.780E+01   0.512E+00 0.197E+00 -.466E-01   0.311E-02 0.272E-02 -.116E-03
   -.752E+01 0.630E+01 0.784E+01   0.668E+01 -.649E+01 -.797E+01   0.826E+00 0.197E+00 0.131E+00   0.383E-02 0.995E-03 0.819E-04
   0.542E+01 0.117E+02 0.674E+01   -.582E+01 -.131E+02 -.674E+01   0.398E+00 0.145E+01 0.111E-03   0.633E-03 0.269E-02 -.113E-03
   0.206E+02 0.181E+02 0.689E+01   -.261E+02 -.212E+02 -.690E+01   0.548E+01 0.310E+01 0.179E-01   0.147E-02 0.119E-02 0.121E-03
   -.422E-02 -.502E+00 0.749E+01   0.298E-02 0.740E+00 -.758E+01   0.185E-02 -.225E+00 0.922E-01   0.138E-03 -.151E-02 -.267E-03
   -.893E-02 -.265E+02 0.646E+01   0.832E-02 0.327E+02 -.653E+01   0.559E-03 -.628E+01 0.628E-01   0.155E-03 -.209E-02 -.414E-03
   -.561E+01 0.176E+01 0.366E+01   0.707E+01 -.137E+01 -.359E+01   -.148E+01 -.404E+00 -.707E-01   0.176E-03 0.380E-03 -.370E-03
   -.195E+01 -.472E+01 0.384E+01   0.278E+01 0.516E+01 -.380E+01   -.830E+00 -.430E+00 -.503E-01   -.373E-03 -.164E-02 -.501E-03
   0.227E+02 0.892E+01 0.139E+02   -.216E+02 -.937E+01 -.144E+02   -.109E+01 0.471E+00 0.507E+00   -.102E-01 -.175E-02 -.296E-03
   0.225E+02 -.923E+01 0.141E+02   -.215E+02 0.968E+01 -.146E+02   -.106E+01 -.456E+00 0.515E+00   -.935E-02 -.101E-02 -.365E-03
   -.225E+02 0.882E+01 0.134E+02   0.214E+02 -.927E+01 -.139E+02   0.110E+01 0.464E+00 0.471E+00   0.999E-02 -.168E-02 -.656E-03
   -.224E+02 -.913E+01 0.135E+02   0.213E+02 0.958E+01 -.140E+02   0.107E+01 -.450E+00 0.480E+00   0.906E-02 -.104E-02 -.741E-03
   0.570E+01 0.174E+01 0.629E+01   -.717E+01 -.135E+01 -.623E+01   0.148E+01 -.404E+00 -.562E-01   -.748E-04 0.355E-03 0.303E-03
   0.204E+01 -.470E+01 0.652E+01   -.287E+01 0.513E+01 -.648E+01   0.834E+00 -.430E+00 -.356E-01   0.466E-03 -.165E-02 0.145E-03
   0.107E+01 -.143E+02 0.766E+01   -.215E+01 0.153E+02 -.770E+01   0.109E+01 -.999E+00 0.437E-01   -.458E-03 -.202E-02 -.187E-03
   0.111E+01 -.598E+01 0.664E+01   -.120E+01 0.670E+01 -.663E+01   0.726E-01 -.693E+00 -.142E-01   0.903E-03 -.487E-02 -.381E-03
   -.104E+01 -.143E+02 0.568E+01   0.212E+01 0.153E+02 -.571E+01   -.109E+01 -.999E+00 0.238E-01   0.645E-03 -.206E-02 -.684E-03
   -.110E+01 -.601E+01 0.522E+01   0.119E+01 0.672E+01 -.521E+01   -.710E-01 -.693E+00 -.171E-01   -.773E-03 -.498E-02 -.752E-03
   0.769E+01 -.888E+01 0.615E+01   -.701E+01 0.904E+01 -.627E+01   -.669E+00 -.159E+00 0.123E+00   -.524E-02 -.328E-02 -.293E-03
   0.228E+01 -.110E+02 0.680E+01   -.196E+01 0.112E+02 -.676E+01   -.322E+00 -.214E+00 -.439E-01   -.339E-02 -.417E-02 -.303E-03
   -.878E+01 -.349E+02 0.241E+02   0.151E+02 0.314E+02 -.232E+02   -.635E+01 0.354E+01 -.977E+00   -.690E-02 0.297E-02 -.159E-02
   -.186E+01 -.182E+02 0.123E+02   0.216E+01 0.173E+02 -.125E+02   -.313E+00 0.931E+00 0.226E+00   -.331E-02 0.905E-04 -.517E-03
   0.857E+01 -.348E+02 0.218E+02   -.149E+02 0.313E+02 -.208E+02   0.635E+01 0.355E+01 -.103E+01   0.663E-02 0.277E-02 -.199E-02
   0.180E+01 -.181E+02 0.114E+02   -.210E+01 0.172E+02 -.116E+02   0.310E+00 0.940E+00 0.224E+00   0.310E-02 0.397E-04 -.829E-03
   -.756E+01 -.885E+01 0.768E+01   0.687E+01 0.901E+01 -.781E+01   0.677E+00 -.157E+00 0.129E+00   0.523E-02 -.319E-02 -.132E-03
   -.225E+01 -.109E+02 0.775E+01   0.194E+01 0.111E+02 -.770E+01   0.323E+00 -.214E+00 -.474E-01   0.345E-02 -.413E-02 -.200E-03
   -.174E+01 -.507E+01 0.785E+01   0.153E+01 0.529E+01 -.787E+01   0.189E+00 -.231E+00 0.245E-01   0.109E-02 -.504E-02 -.184E-03
   -.101E+01 -.465E+01 0.775E+01   0.101E+01 0.483E+01 -.775E+01   0.102E-01 -.156E+00 0.722E-02   -.543E-03 -.347E-02 -.249E-03
   -.756E-02 -.711E+01 0.610E+01   0.741E-02 0.746E+01 -.613E+01   0.755E-03 -.356E+00 0.228E-01   0.542E-04 -.530E-02 -.650E-03
   -.115E-02 -.291E+01 0.596E+01   0.852E-03 0.318E+01 -.595E+01   0.318E-03 -.268E+00 -.175E-01   0.359E-04 -.457E-02 -.547E-03
   0.177E+01 -.506E+01 0.630E+01   -.156E+01 0.529E+01 -.632E+01   -.188E+00 -.231E+00 0.160E-01   -.970E-03 -.508E-02 -.521E-03
   0.101E+01 -.466E+01 0.678E+01   -.101E+01 0.484E+01 -.679E+01   -.104E-01 -.155E+00 0.640E-02   0.654E-03 -.355E-02 -.500E-03
   -.301E+01 -.725E+01 0.102E+02   0.356E+01 0.708E+01 -.103E+02   -.554E+00 0.161E+00 0.110E+00   -.371E-02 -.150E-02 -.281E-03
   0.114E+01 -.444E+01 0.865E+01   -.112E+01 0.434E+01 -.866E+01   -.269E-01 0.123E+00 0.717E-02   -.138E-02 0.284E-04 -.250E-03
   -.283E-01 -.699E+01 0.599E+01   0.303E-01 0.632E+01 -.558E+01   -.222E-02 0.673E+00 -.421E+00   -.116E-03 0.152E-02 -.706E-03
   -.579E-02 -.499E+01 0.734E+01   0.566E-02 0.458E+01 -.736E+01   -.639E-03 0.427E+00 0.273E-01   -.557E-04 0.266E-02 -.500E-03
   0.305E+01 -.724E+01 0.986E+01   -.361E+01 0.707E+01 -.997E+01   0.555E+00 0.160E+00 0.105E+00   0.366E-02 -.151E-02 -.503E-03
   -.115E+01 -.442E+01 0.828E+01   0.113E+01 0.431E+01 -.829E+01   0.256E-01 0.121E+00 0.356E-02   0.130E-02 0.206E-03 -.437E-03
   -.425E+00 0.104E+00 -.621E+03   0.514E+00 -.229E+00 0.603E+03   -.916E-01 0.103E+00 0.178E+02   0.321E-03 0.826E-02 0.565E-02
 -----------------------------------------------------------------------------------------------
   0.573E-01 0.292E+00 -.169E+02   -.291E-12 0.707E-12 0.000E+00   -.579E-01 -.292E+00 0.170E+02   0.146E-03 0.512E-02 -.267E-01
 
 
 POSITION                                       TOTAL-FORCE (eV/Angst)
 -----------------------------------------------------------------------------------
     -7.42801     12.75426      7.46445        -0.001682      0.011756     -0.000495
      0.00025      1.42373      7.46572         0.014116     -0.017579     -0.001284
      2.48206      0.02443      7.46309        -0.013741     -0.002491     -0.000657
      2.48039      1.44676      7.47376        -0.015320     -0.012344      0.000662
      4.95194      0.02425      7.46610         0.012939     -0.001605     -0.003648
      4.95370      1.44655      7.47578         0.014931     -0.011615     -0.002163
      0.00150     12.75389      7.46578         0.000907      0.013590     -0.001073
      7.43380      1.42335      7.46469        -0.015608     -0.015765     -0.001555
      2.47956     12.72948      7.47383         0.000631      0.019825      0.001918
      9.91084      1.39465      7.46310        -0.006163      0.003748     -0.001188
      4.95452     12.72970      7.47578        -0.000696      0.018876     -0.000751
     12.38374      1.39483      7.46615         0.004950      0.003866     -0.003788
     13.61548      2.11726      7.46725        -0.012001     -0.012468     -0.004618
     -1.25136      3.53918      7.47743         0.014228     -0.011791     -0.003696
      1.23751      2.14536      7.47544        -0.011269     -0.023711     -0.000006
      1.23412      3.56854      7.50078         0.002496      0.004482     -0.001184
      3.71708      2.17061      7.49071        -0.000781     -0.005795     -0.004467
      3.71711      3.59176      7.53740         0.000160      0.025622     -0.005785
      6.19658      2.14506      7.47620         0.010497     -0.023044     -0.003273
      6.19993      3.56828      7.50044        -0.003908      0.006853     -0.004249
      8.67903      2.11696      7.46277         0.012098     -0.010647     -0.001440
      8.68518      3.53894      7.47043        -0.014171     -0.010909      0.001182
     11.14723      2.10529      7.46413         0.000446     -0.005421     -0.004481
     11.14717      3.52409      7.46606         0.000162      0.016250     -0.005612
     12.36867      4.24764      7.47460         0.002922      0.010869     -0.005551
     -2.50106      5.66950      7.48249         0.011919      0.004332     -0.003006
     -0.01869      4.24781      7.50001        -0.027981     -0.006555     -0.001097
     -0.05244      5.66200      7.52450         0.017332      0.007157      0.001196
      2.47222      4.31024      7.55098        -0.015406     -0.001659      0.007740
      2.41866      5.72186      7.64551         0.006028     -0.004398      0.020855
      4.96205      4.31025      7.55333         0.013992      0.000132      0.003603
      5.01567      5.72184      7.65028        -0.006529     -0.000725      0.014187
      7.45256      4.24760      7.49458         0.028646     -0.005681      0.000057
      7.48605      5.66191      7.51713        -0.017057      0.007462      0.003480
      9.92560      4.24751      7.46859        -0.002275      0.011811      0.000486
      9.93455      5.66944      7.47519        -0.009515      0.004031      0.004608
     -3.71354      6.37447      7.47503         0.000757      0.009995     -0.000103
     -3.71351      7.78521      7.47379         0.000114     -0.003467     -0.004761
     -1.28097      6.37973      7.50486        -0.031902     -0.012373     -0.003143
     -1.26622      7.79950      7.50466        -0.007378      0.000677     -0.003430
      1.17022      6.36856      7.57807        -0.013324      0.010550      0.011234
      1.17674      7.80326      7.57803        -0.013590      0.005244      0.009242
      6.26382      6.36853      7.57753         0.014411      0.010679      0.006048
      6.25730      7.80328      7.57757         0.014499      0.005034      0.004205
      8.71446      6.37970      7.49383         0.033436     -0.011500      0.005620
      8.69972      7.79949      7.49347         0.008460     -0.000107      0.004672
     -4.93490      8.49993      7.47328         0.013286     -0.014136     -0.000451
     -4.93852      9.92860      7.46841        -0.021964      0.019334     -0.003237
     -2.49211      8.49991      7.48110        -0.010795     -0.014619     -0.007445
     -2.48834      9.92852      7.47450         0.022762      0.020800     -0.007722
     -0.04397      8.51065      7.52491         0.008170     -0.003403      0.000484
     -0.01774      9.92877      7.50019        -0.013731      0.007606      0.000684
      2.42324      8.45115      7.64401        -0.012207     -0.002861      0.012461
      2.47231      9.86402      7.55099        -0.006728      0.001249      0.006223
      5.01110      8.45117      7.64876         0.011594     -0.006209      0.006248
      4.96196      9.86402      7.55326         0.005559     -0.000441      0.002151
      7.47762      8.51073      7.51757        -0.008085     -0.004089      0.002022
      7.45161      9.92896      7.49475         0.013987      0.006254      0.001319
     -6.17569     10.64010      7.47061        -0.015269     -0.010468      0.001717
     -6.18244     12.06083      7.46288         0.005904      0.012907     -0.000312
     -3.71342     10.64550      7.46603         0.000669     -0.018375     -0.006401
     -3.71333     12.06999      7.46421         0.000066     -0.002529     -0.003178
     -1.25105     10.63989      7.47754         0.015324     -0.010422     -0.002454
     -1.24415     12.06057      7.46735        -0.005744      0.014047     -0.003504
      1.23393     10.60704      7.50075        -0.002345     -0.010265      0.001111
      1.23713     12.03102      7.47559        -0.010654      0.019051      0.000877
      3.71713     10.58338      7.53766        -0.000351     -0.004628     -0.005608
      3.71709     12.00506      7.49089        -0.000816      0.010587     -0.001637
      6.20012     10.60731      7.50034         0.002401     -0.012365     -0.002239
      6.19696     12.03136      7.47614         0.009250      0.016464     -0.001673
      3.71512      7.08520      8.31686        -0.001066     -0.014683     -0.013925
 -----------------------------------------------------------------------------------
    total drift:                               -0.000429      0.004613     -0.026477


--------------------------------------------------------------------------------------------------------



  FREE ENERGIE OF THE ION-ELECTRON SYSTEM (eV)
  ---------------------------------------------------
  free  energy   TOTEN  =      -653.41698160 eV

  energy  without entropy=     -653.37738077  energy(sigma->0) =     -653.39718119
 
 d Force = 0.6041398E-03[-0.714E-04, 0.128E-02]  d Energy = 0.6210511E-03-0.169E-04
 d Force =-0.5273382E+00[-0.532E+00,-0.523E+00]  d Ewald  =-0.7119766E+01 0.659E+01


--------------------------------------------------------------------------------------------------------


    POTLOK:  cpu time    0.5506: real time    0.5530


--------------------------------------------------------------------------------------------------------


 Conjugate gradient step on ions:
 trial-energy change:   -0.000621  1 .order   -0.000641   -0.001385    0.000104
  (g-gl).g = 0.166E-02      g.g   = 0.168E-02  gl.gl    = 0.356E-02
 g(Force)  = 0.151E-02   g(Stress)= 0.165E-03 ortho     = 0.233E-04
 gamma     =   0.46513
 trial     =   0.82149
 opt step  =   0.76402  (harmonic =   0.76402) maximal distance =0.00170286
 next E    =  -653.417005   (d E  =  -0.00064)


--------------------------------------------------------------------------------------------------------


  
 reached required accuracy - stopping structural energy minimisation
     LOOP+:  cpu time  108.2618: real time  109.0952
    4ORBIT:  cpu time    0.0000: real time    0.0000

 total amount of memory used by VASP MPI-rank0   135450. kBytes
=======================================================================

   base      :      30000. kBytes
   nonlr-proj:      10461. kBytes
   fftplans  :      14072. kBytes
   grid      :      39398. kBytes
   one-center:        186. kBytes
   wavefun   :      41333. kBytes
 
  
  
 General timing and accounting informations for this job:
 ========================================================
  
                  Total CPU time used (sec):     2944.857
                            User time (sec):     2919.863
                          System time (sec):       24.994
                         Elapsed time (sec):     2976.156
  
                   Maximum memory used (kb):      614992.
                   Average memory used (kb):           0.
  
                          Minor page faults:      4954400
                          Major page faults:           34
                 Voluntary context switches:        25448
