       N       E                     dE             d eps       ncg     rms          rms(c)
DAV:   1     0.249861262681E+04    0.24986E+04   -0.10761E+05  3336   0.107E+03
DAV:   2    -0.224467659497E+03   -0.27231E+04   -0.26023E+04  4224   0.281E+02
DAV:   3    -0.686653839628E+03   -0.46219E+03   -0.45931E+03  3552   0.122E+02
DAV:   4    -0.703705246205E+03   -0.17051E+02   -0.16909E+02  3584   0.288E+01
DAV:   5    -0.704246534511E+03   -0.54129E+00   -0.53937E+00  4056   0.436E+00    0.469E+01
RMM:   6    -0.730022905289E+03   -0.25776E+02   -0.51591E+02  4065   0.388E+01    0.829E+01
RMM:   7    -0.661807363344E+03    0.68216E+02   -0.56547E+01  3040   0.134E+01    0.309E+01
RMM:   8    -0.661769917954E+03    0.37445E-01   -0.21431E+01  3103   0.715E+00    0.280E+01
RMM:   9    -0.647290469491E+03    0.14479E+02   -0.20198E+01  2967   0.841E+00    0.110E+01
RMM:  10    -0.647906495578E+03   -0.61603E+00   -0.26610E+00  2991   0.296E+00    0.142E+01
RMM:  11    -0.646782768433E+03    0.11237E+01   -0.41543E-01  3074   0.105E+00    0.747E+00
RMM:  12    -0.646776849862E+03    0.59186E-02   -0.17322E-01  2944   0.961E-01    0.706E+00
RMM:  13    -0.646834739116E+03   -0.57889E-01   -0.26864E-02  3023   0.342E-01    0.710E+00
RMM:  14    -0.646557765893E+03    0.27697E+00   -0.40197E-02  2958   0.481E-01    0.607E+00
RMM:  15    -0.646597053250E+03   -0.39287E-01   -0.17846E-02  2973   0.188E-01    0.573E+00
RMM:  16    -0.646619102632E+03   -0.22049E-01   -0.43365E-02  2945   0.661E-01    0.561E+00
RMM:  17    -0.646570004183E+03    0.49098E-01   -0.25436E-02  2960   0.293E-01    0.419E+00
RMM:  18    -0.646549837083E+03    0.20167E-01   -0.24282E-02  2973   0.243E-01    0.176E+00
RMM:  19    -0.646594219462E+03   -0.44382E-01   -0.11958E-02  2950   0.294E-01    0.828E-01
RMM:  20    -0.646604608907E+03   -0.10389E-01   -0.68722E-03  2980   0.155E-01    0.934E-01
RMM:  21    -0.646597058901E+03    0.75500E-02   -0.18638E-03  2957   0.106E-01    0.127E+00
RMM:  22    -0.646609286992E+03   -0.12228E-01   -0.61931E-03  2968   0.128E-01    0.126E+00
RMM:  23    -0.646630728268E+03   -0.21441E-01   -0.18170E-02  2977   0.181E-01    0.144E+00
RMM:  24    -0.646641812938E+03   -0.11085E-01   -0.56401E-03  3066   0.968E-02    0.212E+00
RMM:  25    -0.646638868771E+03    0.29442E-02   -0.16410E-03  3033   0.852E-02    0.247E+00
RMM:  26    -0.646656810478E+03   -0.17942E-01   -0.15185E-02  2968   0.200E-01    0.241E+00
RMM:  27    -0.646643687948E+03    0.13123E-01   -0.14732E-02  2981   0.168E-01    0.130E+00
RMM:  28    -0.646655066938E+03   -0.11379E-01   -0.19834E-03  2994   0.951E-02    0.102E+00
RMM:  29    -0.646656797963E+03   -0.17310E-02   -0.73286E-04  2810   0.466E-02    0.968E-01
RMM:  30    -0.646662357206E+03   -0.55592E-02   -0.46488E-03  2945   0.137E-01    0.130E+00
RMM:  31    -0.646657788678E+03    0.45685E-02   -0.71772E-03  2990   0.142E-01    0.156E+00
RMM:  32    -0.646659012235E+03   -0.12236E-02   -0.19674E-03  2950   0.972E-02    0.132E+00
RMM:  33    -0.646659918094E+03   -0.90586E-03   -0.10636E-03  2892   0.509E-02    0.108E+00
RMM:  34    -0.646659595126E+03    0.32297E-03   -0.10533E-03  2928   0.489E-02    0.843E-01
RMM:  35    -0.646657438899E+03    0.21562E-02   -0.10133E-03  2890   0.519E-02    0.769E-01
RMM:  36    -0.646658759181E+03   -0.13203E-02   -0.30735E-04  2845   0.575E-02    0.753E-01
RMM:  37    -0.646659647625E+03   -0.88844E-03   -0.44270E-04  2789   0.386E-02    0.800E-01
RMM:  38    -0.646662283666E+03   -0.26360E-02   -0.24789E-04  2446   0.310E-02    0.925E-01
RMM:  39    -0.646665927899E+03   -0.36442E-02   -0.79528E-04  2921   0.442E-02    0.121E+00
RMM:  40    -0.646671660498E+03   -0.57326E-02   -0.59647E-04  2809   0.442E-02    0.150E+00
RMM:  41    -0.646670309103E+03    0.13514E-02   -0.17117E-04  2356   0.397E-02    0.160E+00
RMM:  42    -0.646682372121E+03   -0.12063E-01   -0.11094E-03  2949   0.495E-02    0.191E+00
RMM:  43    -0.646679431455E+03    0.29407E-02   -0.19075E-04  2345   0.384E-02    0.198E+00
RMM:  44    -0.646680349530E+03   -0.91807E-03   -0.86766E-05  2045   0.144E-02    0.203E+00
RMM:  45    -0.646688304336E+03   -0.79548E-02   -0.43211E-04  2722   0.296E-02    0.216E+00
RMM:  46    -0.646677256764E+03    0.11048E-01   -0.80812E-04  2904   0.561E-02    0.211E+00
RMM:  47    -0.646666846038E+03    0.10411E-01   -0.10996E-03  2954   0.472E-02    0.188E+00
RMM:  48    -0.646668859645E+03   -0.20136E-02   -0.14725E-04  2147   0.296E-02    0.179E+00
RMM:  49    -0.646672024557E+03   -0.31649E-02   -0.51079E-05  1959   0.196E-02    0.182E+00
RMM:  50    -0.646678296125E+03   -0.62716E-02   -0.29041E-04  2577   0.264E-02
   1 F= -.65307935E+03 E0= -.65305373E+03  d E =-.653079E+03  mag=     0.2812
       N       E                     dE             d eps       ncg     rms          rms(c)
DAV:   1    -0.646686533515E+03   -0.14509E-01   -0.14640E+00  3392   0.389E+00    0.247E+00
RMM:   2    -0.646827150826E+03   -0.14062E+00   -0.24427E-01  2983   0.907E-01    0.315E+00
RMM:   3    -0.646887623625E+03   -0.60473E-01   -0.15426E-01  3113   0.560E-01    0.407E+00
RMM:   4    -0.646859256191E+03    0.28367E-01   -0.37329E-02  3301   0.227E-01    0.349E+00
RMM:   5    -0.646859155048E+03    0.10114E-03   -0.10278E-02  3401   0.815E-02    0.346E+00
RMM:   6    -0.646866675678E+03   -0.75206E-02   -0.19273E-03  2953   0.677E-02    0.361E+00
RMM:   7    -0.646708261847E+03    0.15841E+00   -0.75385E-02  2955   0.423E-01    0.363E+00
RMM:   8    -0.646840624657E+03   -0.13236E+00   -0.15546E-01  2975   0.630E-01    0.323E+00
RMM:   9    -0.646579998797E+03    0.26063E+00   -0.25249E-01  2995   0.780E-01    0.344E+00
RMM:  10    -0.646878549986E+03   -0.29855E+00   -0.48933E-01  2991   0.110E+00    0.221E+00
RMM:  11    -0.646897734667E+03   -0.19185E-01   -0.37223E-01  3025   0.854E-01    0.192E+00
RMM:  12    -0.647012053841E+03   -0.11432E+00   -0.76895E-02  2999   0.372E-01    0.155E+00
RMM:  13    -0.647022543541E+03   -0.10490E-01   -0.90947E-03  3426   0.893E-02    0.168E+00
RMM:  14    -0.647024707593E+03   -0.21641E-02   -0.10859E-03  2738   0.322E-02    0.173E+00
RMM:  15    -0.647055611008E+03   -0.30903E-01   -0.11818E-02  2995   0.168E-01    0.120E+00
RMM:  16    -0.647050526529E+03    0.50845E-02   -0.18657E-02  3008   0.210E-01    0.105E+00
RMM:  17    -0.647112698723E+03   -0.62172E-01   -0.31798E-02  2958   0.246E-01    0.371E-01
RMM:  18    -0.647152306906E+03   -0.39608E-01   -0.28257E-02  2990   0.239E-01    0.866E-01
RMM:  19    -0.647155707003E+03   -0.34001E-02   -0.10666E-02  2961   0.170E-01    0.339E-01
RMM:  20    -0.647162085495E+03   -0.63785E-02   -0.96516E-04  2939   0.502E-02    0.161E-01
RMM:  21    -0.647166720524E+03   -0.46350E-02   -0.20732E-03  2959   0.731E-02    0.240E-01
RMM:  22    -0.647170353462E+03   -0.36329E-02   -0.34124E-04  2610   0.252E-02    0.220E-01
RMM:  23    -0.647172122672E+03   -0.17692E-02   -0.33754E-04  2538   0.301E-02    0.899E-02
RMM:  24    -0.647172905266E+03   -0.78259E-03   -0.13794E-04  2210   0.153E-02    0.690E-02
RMM:  25    -0.647173107501E+03   -0.20224E-03   -0.27801E-05  1938   0.733E-03    0.743E-02
RMM:  26    -0.647173317665E+03   -0.21016E-03   -0.38409E-05  2016   0.868E-03    0.388E-02
RMM:  27    -0.647173379773E+03   -0.62108E-04   -0.18542E-05  1744   0.488E-03    0.265E-02
RMM:  28    -0.647173432146E+03   -0.52373E-04   -0.95357E-06  1519   0.372E-03    0.196E-02
RMM:  29    -0.647173477166E+03   -0.45020E-04   -0.10147E-05  1815   0.469E-03    0.488E-03
RMM:  30    -0.647173516632E+03   -0.39466E-04   -0.34220E-06  1147   0.281E-03    0.444E-03
RMM:  31    -0.647173528684E+03   -0.12052E-04   -0.17849E-06  1088   0.226E-03    0.416E-03
RMM:  32    -0.647173537412E+03   -0.87279E-05   -0.20767E-06  1320   0.248E-03
   2 F= -.65357474E+03 E0= -.65355758E+03  d E =-.495394E+00  mag=     1.4614
       N       E                     dE             d eps       ncg     rms          rms(c)
DAV:   1    -0.647177518333E+03   -0.39896E-02   -0.37576E-01  3480   0.196E+00    0.181E-01
RMM:   2    -0.647179263992E+03   -0.17457E-02   -0.21954E-02  2993   0.300E-01    0.138E-01
RMM:   3    -0.647179110671E+03    0.15332E-03   -0.18810E-03  3425   0.839E-02    0.152E-01
RMM:   4    -0.647178867069E+03    0.24360E-03   -0.40882E-04  2982   0.381E-02    0.551E-02
RMM:   5    -0.647178820768E+03    0.46301E-04   -0.11206E-04  2846   0.215E-02    0.239E-02
RMM:   6    -0.647178860581E+03   -0.39813E-04   -0.19896E-05  1855   0.108E-02    0.809E-03
RMM:   7    -0.647178886105E+03   -0.25523E-04   -0.37898E-06  1776   0.510E-03    0.352E-03
RMM:   8    -0.647178908469E+03   -0.22365E-04   -0.12878E-06  1481   0.285E-03    0.199E-03
RMM:   9    -0.647178928133E+03   -0.19664E-04   -0.79570E-07  1071   0.205E-03    0.860E-04
RMM:  10    -0.647178935651E+03   -0.75177E-05   -0.39983E-07   821   0.167E-03
   3 F= -.65358007E+03 E0= -.65356178E+03  d E =-.500724E+00  mag=     1.4670
       N       E                     dE             d eps       ncg     rms          rms(c)
DAV:   1    -0.647179038629E+03   -0.11050E-03   -0.59717E-03  3408   0.247E-01    0.230E-02
RMM:   2    -0.647179058115E+03   -0.19487E-04   -0.33070E-04  2942   0.376E-02    0.173E-02
RMM:   3    -0.647179060654E+03   -0.25389E-05   -0.26371E-05  1923   0.106E-02
   4 F= -.65358019E+03 E0= -.65356173E+03  d E =-.500839E+00  mag=     1.4674
       N       E                     dE             d eps       ncg     rms          rms(c)
DAV:   1    -0.647173414475E+03    0.56436E-02   -0.93859E-01  3368   0.309E+00    0.289E-01
RMM:   2    -0.647177905368E+03   -0.44909E-02   -0.53043E-02  2973   0.489E-01    0.364E-01
RMM:   3    -0.647176728462E+03    0.11769E-02   -0.41405E-03  3426   0.122E-01    0.186E-01
RMM:   4    -0.647176356834E+03    0.37163E-03   -0.74690E-04  3054   0.529E-02    0.132E-01
RMM:   5    -0.647176079572E+03    0.27726E-03   -0.45628E-04  2932   0.427E-02    0.442E-02
RMM:   6    -0.647176241210E+03   -0.16164E-03   -0.56754E-05  2049   0.169E-02    0.118E-02
RMM:   7    -0.647176398485E+03   -0.15728E-03   -0.14247E-05  1812   0.766E-03    0.696E-03
RMM:   8    -0.647176506089E+03   -0.10760E-03   -0.76564E-06  1790   0.482E-03    0.267E-03
RMM:   9    -0.647176552389E+03   -0.46300E-04   -0.22619E-06  1391   0.278E-03    0.169E-03
RMM:  10    -0.647176575410E+03   -0.23021E-04   -0.88459E-07  1069   0.201E-03    0.987E-04
RMM:  11    -0.647176589470E+03   -0.14059E-04   -0.73397E-07   896   0.180E-03    0.487E-04
RMM:  12    -0.647176592748E+03   -0.32787E-05   -0.32630E-07   711   0.155E-03
   5 F= -.65357783E+03 E0= -.65356061E+03  d E =0.235839E-02  mag=     1.4811
       N       E                     dE             d eps       ncg     rms          rms(c)
DAV:   1    -0.647179239951E+03   -0.26505E-02   -0.36142E-01  3472   0.192E+00    0.180E-01
RMM:   2    -0.647180758274E+03   -0.15183E-02   -0.20292E-02  2971   0.302E-01    0.220E-01
RMM:   3    -0.647180370887E+03    0.38739E-03   -0.15814E-03  3393   0.755E-02    0.118E-01
RMM:   4    -0.647180192103E+03    0.17878E-03   -0.29794E-04  3017   0.335E-02    0.833E-02
RMM:   5    -0.647180101502E+03    0.90601E-04   -0.18054E-04  2881   0.270E-02    0.280E-02
RMM:   6    -0.647180242137E+03   -0.14064E-03   -0.24815E-05  1898   0.112E-02    0.722E-03
RMM:   7    -0.647180344746E+03   -0.10261E-03   -0.54363E-06  1776   0.538E-03    0.417E-03
RMM:   8    -0.647180407924E+03   -0.63178E-04   -0.28325E-06  1623   0.322E-03    0.152E-03
RMM:   9    -0.647180434018E+03   -0.26095E-04   -0.87103E-07  1016   0.200E-03    0.968E-04
RMM:  10    -0.647180448532E+03   -0.14514E-04   -0.59280E-07   936   0.173E-03    0.657E-04
RMM:  11    -0.647180456240E+03   -0.77077E-05   -0.30178E-07   724   0.152E-03
   6 F= -.65358163E+03 E0= -.65356366E+03  d E =-.144185E-02  mag=     1.4734
       N       E                     dE             d eps       ncg     rms          rms(c)
DAV:   1    -0.647181085600E+03   -0.63707E-03   -0.21102E-01  3096   0.135E+00    0.133E-01
RMM:   2    -0.647181796074E+03   -0.71047E-03   -0.86570E-03  2959   0.220E-01    0.187E-01
RMM:   3    -0.647181525985E+03    0.27009E-03   -0.79351E-04  3455   0.563E-02    0.810E-02
RMM:   4    -0.647181434482E+03    0.91502E-04   -0.16528E-04  2953   0.246E-02    0.581E-02
RMM:   5    -0.647181356459E+03    0.78024E-04   -0.94279E-05  2700   0.196E-02    0.175E-02
RMM:   6    -0.647181410510E+03   -0.54051E-04   -0.89044E-06  1796   0.761E-03    0.583E-03
RMM:   7    -0.647181462684E+03   -0.52175E-04   -0.33202E-06  1760   0.394E-03    0.308E-03
RMM:   8    -0.647181506764E+03   -0.44080E-04   -0.20102E-06  1301   0.250E-03    0.144E-03
RMM:   9    -0.647181534521E+03   -0.27757E-04   -0.99983E-07   992   0.196E-03    0.734E-04
RMM:  10    -0.647181547306E+03   -0.12784E-04   -0.77205E-07   919   0.176E-03    0.453E-04
RMM:  11    -0.647181551459E+03   -0.41534E-05   -0.23915E-07   645   0.153E-03
   7 F= -.65358267E+03 E0= -.65356406E+03  d E =-.104351E-02  mag=     1.4819
       N       E                     dE             d eps       ncg     rms          rms(c)
DAV:   1    -0.647181674379E+03   -0.12707E-03   -0.15865E-02  3224   0.370E-01    0.363E-02
RMM:   2    -0.647181712760E+03   -0.38381E-04   -0.64233E-04  2961   0.602E-02    0.509E-02
RMM:   3    -0.647181693467E+03    0.19293E-04   -0.54236E-05  2031   0.154E-02    0.220E-02
RMM:   4    -0.647181683189E+03    0.10278E-04   -0.13023E-05  1803   0.872E-03    0.160E-02
RMM:   5    -0.647181672164E+03    0.11025E-04   -0.95508E-06  1745   0.764E-03    0.447E-03
RMM:   6    -0.647181684359E+03   -0.12194E-04   -0.18387E-06  1693   0.408E-03    0.231E-03
RMM:   7    -0.647181694480E+03   -0.10122E-04   -0.50002E-07  1079   0.207E-03    0.984E-04
RMM:   8    -0.647181702145E+03   -0.76649E-05   -0.20258E-07   777   0.164E-03
   8 F= -.65358284E+03 E0= -.65356440E+03  d E =-.120977E-02  mag=     1.4798
       N       E                     dE             d eps       ncg     rms          rms(c)
DAV:   1    -0.647182194385E+03   -0.49990E-03   -0.57460E-02  3032   0.657E-01    0.672E-02
RMM:   2    -0.647182343626E+03   -0.14924E-03   -0.18548E-03  2961   0.103E-01    0.111E-01
RMM:   3    -0.647182236310E+03    0.10732E-03   -0.19937E-04  2689   0.284E-02    0.386E-02
RMM:   4    -0.647182202333E+03    0.33978E-04   -0.33138E-05  1982   0.124E-02    0.282E-02
RMM:   5    -0.647182176681E+03    0.25651E-04   -0.27259E-05  1884   0.112E-02    0.777E-03
RMM:   6    -0.647182205804E+03   -0.29123E-04   -0.36977E-06  1746   0.540E-03    0.374E-03
RMM:   7    -0.647182237190E+03   -0.31386E-04   -0.16008E-06  1691   0.294E-03    0.173E-03
RMM:   8    -0.647182265556E+03   -0.28366E-04   -0.86379E-07  1028   0.189E-03    0.976E-04
RMM:   9    -0.647182279742E+03   -0.14186E-04   -0.47967E-07   796   0.161E-03    0.492E-04
RMM:  10    -0.647182289043E+03   -0.93011E-05   -0.32789E-07   697   0.153E-03
   9 F= -.65358334E+03 E0= -.65356477E+03  d E =-.494838E-03  mag=     1.4877
       N       E                     dE             d eps       ncg     rms          rms(c)
DAV:   1    -0.647182318925E+03   -0.39183E-04   -0.19478E-03  3184   0.121E-01    0.124E-02
RMM:   2    -0.647182319597E+03   -0.67139E-06   -0.59352E-05  2115   0.191E-02
  10 F= -.65358335E+03 E0= -.65356477E+03  d E =-.508033E-03  mag=     1.4882
       N       E                     dE             d eps       ncg     rms          rms(c)
DAV:   1    -0.647182583315E+03   -0.26439E-03   -0.40371E-02  3104   0.556E-01    0.520E-02
RMM:   2    -0.647182631309E+03   -0.47994E-04   -0.11055E-03  2999   0.775E-02    0.625E-02
RMM:   3    -0.647182595820E+03    0.35490E-04   -0.10969E-04  2399   0.217E-02    0.323E-02
RMM:   4    -0.647182564793E+03    0.31027E-04   -0.30112E-05  1918   0.120E-02    0.152E-02
RMM:   5    -0.647182562440E+03    0.23530E-05   -0.12091E-05  1773   0.819E-03
  11 F= -.65358357E+03 E0= -.65356500E+03  d E =-.216727E-03  mag=     1.4926
