       N       E                     dE             d eps       ncg     rms          rms(c)
DAV:   1     0.255309268961E+04    0.25531E+04   -0.11157E+05  4344   0.107E+03
DAV:   2    -0.236943569118E+03   -0.27900E+04   -0.26594E+04  5480   0.280E+02
DAV:   3    -0.702589689988E+03   -0.46565E+03   -0.46233E+03  4592   0.121E+02
DAV:   4    -0.719391696503E+03   -0.16802E+02   -0.16663E+02  4624   0.283E+01
DAV:   5    -0.719947165029E+03   -0.55547E+00   -0.55360E+00  5272   0.432E+00    0.477E+01
DAV:   6    -0.721025029476E+03   -0.10779E+01   -0.88911E+01  4864   0.281E+01    0.753E+01
DAV:   7    -0.674185850116E+03    0.46839E+02   -0.60151E+01  4896   0.534E+01    0.271E+01
DAV:   8    -0.671655788077E+03    0.25301E+01   -0.43189E+01  5016   0.148E+01    0.271E+01
DAV:   9    -0.664103134285E+03    0.75527E+01   -0.24845E+01  4584   0.137E+01    0.194E+01
DAV:  10    -0.662920563805E+03    0.11826E+01   -0.23527E+01  5248   0.128E+01    0.121E+01
DAV:  11    -0.661820834300E+03    0.10997E+01   -0.25820E+00  5208   0.350E+00    0.707E+00
DAV:  12    -0.662177990133E+03   -0.35716E+00   -0.33626E-01  4976   0.169E+00    0.717E+00
DAV:  13    -0.662332578267E+03   -0.15459E+00   -0.48188E-01  4776   0.184E+00    0.411E+00
DAV:  14    -0.662349026461E+03   -0.16448E-01   -0.11237E-01  4528   0.762E-01    0.352E+00
DAV:  15    -0.662363630543E+03   -0.14604E-01   -0.11931E-01  4792   0.600E-01    0.296E+00
DAV:  16    -0.662351394241E+03    0.12236E-01   -0.35804E-02  4736   0.383E-01    0.212E+00
DAV:  17    -0.662339465123E+03    0.11929E-01   -0.13437E-02  5120   0.271E-01    0.174E+00
DAV:  18    -0.662328907478E+03    0.10558E-01   -0.58656E-03  5152   0.206E-01    0.134E+00
DAV:  19    -0.662318356399E+03    0.10551E-01   -0.14164E-02  5120   0.283E-01    0.772E-01
DAV:  20    -0.662316739728E+03    0.16167E-02   -0.20314E-03  4928   0.110E-01    0.525E-01
DAV:  21    -0.662316630395E+03    0.10933E-03   -0.27962E-04  3096   0.421E-02    0.519E-01
DAV:  22    -0.662316516243E+03    0.11415E-03   -0.25332E-05  2720   0.147E-02    0.519E-01
DAV:  23    -0.662315996395E+03    0.51985E-03   -0.11433E-03  4496   0.883E-02    0.368E-01
DAV:  24    -0.662315723097E+03    0.27330E-03   -0.15510E-03  4760   0.986E-02    0.251E-01
DAV:  25    -0.662315498064E+03    0.22503E-03   -0.22269E-04  3248   0.406E-02    0.215E-01
DAV:  26    -0.662314636187E+03    0.86188E-03   -0.46267E-04  3616   0.715E-02    0.116E-01
DAV:  27    -0.662314659441E+03   -0.23255E-04   -0.18436E-04  2896   0.346E-02
   1 F= -.66874224E+03 E0= -.66874224E+03  d E =0.000000E+00  mag=    -1.0027
