       N       E                     dE             d eps       ncg     rms          ort
DAV:   1     0.263871855397E+04    0.26387E+04   -0.98594E+04   688   0.110E+03
DAV:   2     0.190979164309E+03   -0.24477E+04   -0.23321E+04   688   0.261E+02
DAV:   3    -0.483627073121E+03   -0.67461E+03   -0.66926E+03   688   0.148E+02
DAV:   4    -0.518635234349E+03   -0.35008E+02   -0.34031E+02   688   0.465E+01
DAV:   5    -0.520193922987E+03   -0.15587E+01   -0.15372E+01   688   0.887E+00
SDA:   6    -0.430384937806E+03    0.89809E+02   -0.15372E+01   688   0.373E+03 0.000E+00
CGA:   7    -0.455936061902E+03   -0.25551E+02   -0.45575E+02   688   0.694E+02 0.639E+02
CGA:   8    -0.468451243477E+03   -0.12515E+02   -0.98034E+01   688   0.565E+02-0.321E+02
CGA:   9    -0.471758108600E+03   -0.33069E+01   -0.23415E+01   688   0.475E+02 0.125E+02
CGA:  10    -0.468552412776E+03    0.32057E+01   -0.31931E+01   688   0.298E+02-0.272E+02
CGA:  11    -0.472573736576E+03   -0.40213E+01   -0.22074E+01   688   0.416E+02-0.326E+02
CGA:  12    -0.475683375216E+03   -0.31096E+01   -0.24531E+01   688   0.243E+03-0.292E+03
CGA:  13    -0.473514646704E+03    0.21687E+01   -0.19169E+02   688   0.353E+02-0.226E+02
CGA:  14    -0.480794281832E+03   -0.72796E+01   -0.16722E+01   688   0.658E+02 0.148E+03
CGA:  15    -0.476205299078E+03    0.45890E+01   -0.33848E+01   688   0.271E+03-0.120E+03
CGA:  16    -0.474659896366E+03    0.15454E+01   -0.19753E+02   688   0.301E+02-0.200E+02
CGA:  17    -0.479415458820E+03   -0.47556E+01   -0.11945E+01   688   0.102E+03 0.153E+03
CGA:  18    -0.472881487359E+03    0.65340E+01   -0.54131E+01   688   0.205E+03-0.114E+03
CGA:  19    -0.475206190380E+03   -0.23247E+01   -0.14097E+02   688   0.273E+02-0.242E+02
CGA:  20    -0.477252474391E+03   -0.20463E+01   -0.87699E+00   688   0.390E+02 0.444E+02
CGA:  21    -0.481674325465E+03   -0.44219E+01   -0.14080E+01   688   0.603E+02-0.145E+03
CGA:  22    -0.480082240235E+03    0.15921E+01   -0.27940E+01   688   0.951E+02-0.565E+02
CGA:  23    -0.477090485946E+03    0.29918E+01   -0.40309E+01   688   0.259E+03-0.174E+03
CGA:  24    -0.476666094649E+03    0.42439E+00   -0.14688E+02   688   0.256E+02-0.208E+02
CGA:  25    -0.479306748793E+03   -0.26407E+01   -0.60189E+00   688   0.885E+02 0.109E+03
CGA:  26    -0.479108430907E+03    0.19832E+00   -0.33124E+01   688   0.202E+03-0.194E+03
CGA:  27    -0.477700800284E+03    0.14076E+01   -0.10025E+02   688   0.470E+02-0.380E+02
CGA:  28    -0.481958313967E+03   -0.42575E+01   -0.10356E+01   688   0.443E+02 0.864E+02
CGA:  29    -0.482684931552E+03   -0.72662E+00   -0.10471E+01   688   0.103E+02-0.227E+02
CGA:  30    -0.482823418616E+03   -0.13849E+00   -0.23869E+00   688   0.263E+01-0.384E+01
CGA:  31    -0.482919300672E+03   -0.95882E-01   -0.97919E-01   688   0.169E+01-0.179E-01
CGA:  32    -0.483077595862E+03   -0.15830E+00   -0.15677E+00   688   0.178E+01 0.358E+00
CGA:  33    -0.483166468062E+03   -0.88872E-01   -0.10856E+00   688   0.802E+00-0.207E+00
CGA:  34    -0.483294602028E+03   -0.12813E+00   -0.10703E+00   688   0.462E+00 0.242E+00
CGA:  35    -0.483409727129E+03   -0.11513E+00   -0.10015E+00   688   0.154E+01 0.179E+00
CGA:  36    -0.483622066249E+03   -0.21234E+00   -0.24834E+00   688   0.156E+01-0.130E+01
CGA:  37    -0.483706135179E+03   -0.84069E-01   -0.10014E+00   688   0.169E+00 0.151E-01
CGA:  38    -0.483763528835E+03   -0.57394E-01   -0.45702E-01   688   0.967E-01 0.592E-01
CGA:  39    -0.483812591051E+03   -0.49062E-01   -0.40177E-01   688   0.854E-01 0.455E-01
CGA:  40    -0.483837059954E+03   -0.24469E-01   -0.27510E-01   688   0.157E+00-0.295E-01
CGA:  41    -0.483850586952E+03   -0.13527E-01   -0.13538E-01   688   0.204E+00-0.644E-03
CGA:  42    -0.483864396964E+03   -0.13810E-01   -0.15695E-01   688   0.338E-01 0.144E-03
CGA:  43    -0.483868958149E+03   -0.45612E-02   -0.44969E-02   688   0.274E-01 0.255E-02
CGA:  44    -0.483880111216E+03   -0.11153E-01   -0.11132E-01   688   0.275E-01 0.127E-03
CGA:  45    -0.483883596278E+03   -0.34851E-02   -0.34652E-02   688   0.124E-01-0.147E-02
CGA:  46    -0.483886830939E+03   -0.32347E-02   -0.32829E-02   688   0.175E-01-0.340E-03
CGA:  47    -0.483889076956E+03   -0.22460E-02   -0.22491E-02   688   0.856E-02 0.215E-03
CGA:  48    -0.483890985838E+03   -0.19089E-02   -0.18999E-02   688   0.711E-02 0.989E-04
CGA:  49    -0.483891880582E+03   -0.89474E-03   -0.88491E-03   688   0.358E-02-0.168E-03
CGA:  50    -0.483892805626E+03   -0.92504E-03   -0.92784E-03   688   0.466E-02-0.221E-04
   1 F= -.48732765E+03 E0= -.48731792E+03  d E =-.487328E+03  mag=     0.0000
       N       E                     dE             d eps       ncg     rms          ort
SDA:   1    -0.482254795146E+03    0.16371E+01    0.00000E+00   688   0.382E+01 0.000E+00
CGA:   2    -0.483444026435E+03   -0.11892E+01   -0.11953E+01   688   0.167E+01-0.371E-01
CGA:   3    -0.483736441395E+03   -0.29241E+00   -0.28790E+00   688   0.563E+00 0.137E+00
CGA:   4    -0.483832653170E+03   -0.96212E-01   -0.96912E-01   688   0.204E+00-0.834E-01
CGA:   5    -0.483861131649E+03   -0.28478E-01   -0.28406E-01   688   0.406E-01 0.475E-02
CGA:   6    -0.483871147033E+03   -0.10015E-01   -0.10044E-01   688   0.128E-01-0.281E-03
CGA:   7    -0.483873935258E+03   -0.27882E-02   -0.27742E-02   688   0.981E-02 0.186E-03
CGA:   8    -0.483875629438E+03   -0.16942E-02   -0.16968E-02   688   0.427E-02-0.181E-03
CGA:   9    -0.483876899760E+03   -0.12703E-02   -0.12676E-02   688   0.225E-02 0.189E-04
CGA:  10    -0.483877368704E+03   -0.46894E-03   -0.47057E-03   688   0.185E-02-0.288E-04
CGA:  11    -0.483877696030E+03   -0.32733E-03   -0.32723E-03   688   0.531E-03 0.827E-05
CGA:  12    -0.483877851051E+03   -0.15502E-03   -0.15545E-03   688   0.338E-03-0.343E-05
CGA:  13    -0.483877902553E+03   -0.51502E-04   -0.51539E-04   688   0.176E-03 0.329E-06
   2 F= -.48731472E+03 E0= -.48730366E+03  d E =0.129287E-01  mag=     0.0000
       N       E                     dE             d eps       ncg     rms          ort
SDA:   1    -0.483451403502E+03    0.42645E+00    0.00000E+00   688   0.112E+01 0.000E+00
CGA:   2    -0.483802085266E+03   -0.35068E+00   -0.34993E+00   688   0.463E+00 0.525E-02
CGA:   3    -0.483884378124E+03   -0.82293E-01   -0.81752E-01   688   0.272E+00-0.183E-01
CGA:   4    -0.483914311889E+03   -0.29934E-01   -0.31586E-01   688   0.498E-01-0.670E-03
CGA:   5    -0.483924338704E+03   -0.10027E-01   -0.10027E-01   688   0.109E-01-0.328E-04
CGA:   6    -0.483927146210E+03   -0.28075E-02   -0.28078E-02   688   0.334E-02-0.426E-05
CGA:   7    -0.483928073299E+03   -0.92709E-03   -0.92616E-03   688   0.213E-02 0.801E-05
CGA:   8    -0.483928415919E+03   -0.34262E-03   -0.34161E-03   688   0.139E-02-0.937E-05
CGA:   9    -0.483928739333E+03   -0.32341E-03   -0.32310E-03   688   0.485E-03 0.588E-05
CGA:  10    -0.483928903656E+03   -0.16432E-03   -0.16450E-03   688   0.200E-03-0.123E-05
CGA:  11    -0.483928950917E+03   -0.47261E-04   -0.47212E-04   688   0.151E-03 0.119E-05
   3 F= -.48736472E+03 E0= -.48735429E+03  d E =-.370719E-01  mag=     0.0000
       N       E                     dE             d eps       ncg     rms          ort
SDA:   1    -0.483100265158E+03    0.82864E+00    0.00000E+00   688   0.197E+01 0.000E+00
CGA:   2    -0.483711665656E+03   -0.61140E+00   -0.61459E+00   688   0.122E+01-0.249E-01
CGA:   3    -0.483854057371E+03   -0.14239E+00   -0.16289E+00   688   0.432E+00 0.109E-01
CGA:   4    -0.483926010022E+03   -0.71953E-01   -0.69830E-01   688   0.770E-01-0.112E-01
CGA:   5    -0.483942150638E+03   -0.16141E-01   -0.16119E-01   688   0.252E-01 0.802E-03
CGA:   6    -0.483946079777E+03   -0.39291E-02   -0.38664E-02   688   0.120E-01-0.234E-03
CGA:   7    -0.483948363393E+03   -0.22836E-02   -0.22846E-02   688   0.407E-02 0.744E-04
CGA:   8    -0.483949485950E+03   -0.11226E-02   -0.11259E-02   688   0.300E-02-0.331E-04
CGA:   9    -0.483949969124E+03   -0.48317E-03   -0.48517E-03   688   0.160E-02 0.155E-04
CGA:  10    -0.483950373247E+03   -0.40412E-03   -0.40460E-03   688   0.642E-03-0.665E-05
CGA:  11    -0.483950508560E+03   -0.13531E-03   -0.13526E-03   688   0.467E-03 0.360E-05
CGA:  12    -0.483950587226E+03   -0.78666E-04   -0.78576E-04   688   0.136E-03-0.624E-06
   4 F= -.48738757E+03 E0= -.48737661E+03  d E =-.228517E-01  mag=     0.0000
       N       E                     dE             d eps       ncg     rms          ort
SDA:   1    -0.483895831769E+03    0.54677E-01    0.00000E+00   688   0.135E+00 0.000E+00
CGA:   2    -0.483938704894E+03   -0.42873E-01   -0.42845E-01   688   0.630E-01 0.212E-03
CGA:   3    -0.483948272486E+03   -0.95676E-02   -0.93495E-02   688   0.307E-01-0.268E-03
CGA:   4    -0.483952438422E+03   -0.41659E-02   -0.42197E-02   688   0.497E-02 0.111E-04
CGA:   5    -0.483953590732E+03   -0.11523E-02   -0.11524E-02   688   0.131E-02 0.507E-06
CGA:   6    -0.483953872067E+03   -0.28134E-03   -0.28125E-03   688   0.675E-03 0.615E-05
CGA:   7    -0.483953971255E+03   -0.99188E-04   -0.98875E-04   688   0.317E-03-0.106E-05
   5 F= -.48739065E+03 E0= -.48737979E+03  d E =-.259257E-01  mag=     0.0000
       N       E                     dE             d eps       ncg     rms          ort
SDA:   1    -0.483301896118E+03    0.65198E+00    0.00000E+00   688   0.160E+01 0.000E+00
CGA:   2    -0.483786462409E+03   -0.48457E+00   -0.49049E+00   688   0.134E+01-0.496E-01
CGA:   3    -0.483901787901E+03   -0.11533E+00   -0.14933E+00   688   0.393E+00-0.805E-01
CGA:   4    -0.483967404651E+03   -0.65617E-01   -0.65100E-01   688   0.656E-01-0.609E-02
CGA:   5    -0.483981011108E+03   -0.13606E-01   -0.13595E-01   688   0.249E-01 0.828E-03
CGA:   6    -0.483984492394E+03   -0.34813E-02   -0.33982E-02   688   0.881E-02 0.189E-04
CGA:   7    -0.483986572395E+03   -0.20800E-02   -0.20768E-02   688   0.311E-02 0.596E-04
CGA:   8    -0.483987336781E+03   -0.76439E-03   -0.76571E-03   688   0.253E-02-0.207E-04
CGA:   9    -0.483987753007E+03   -0.41623E-03   -0.41781E-03   688   0.104E-02 0.127E-04
CGA:  10    -0.483988048568E+03   -0.29556E-03   -0.29582E-03   688   0.468E-03-0.290E-05
CGA:  11    -0.483988140215E+03   -0.91647E-04   -0.91699E-04   688   0.314E-03 0.313E-05
   6 F= -.48742585E+03 E0= -.48741550E+03  d E =-.352065E-01  mag=     0.0000
       N       E                     dE             d eps       ncg     rms          ort
SDA:   1    -0.483627495025E+03    0.36055E+00    0.00000E+00   688   0.859E+00 0.000E+00
CGA:   2    -0.483893384337E+03   -0.26589E+00   -0.26786E+00   688   0.590E+00-0.158E-01
CGA:   3    -0.483953602677E+03   -0.60218E-01   -0.71110E-01   688   0.191E+00-0.183E-01
CGA:   4    -0.483985673847E+03   -0.32071E-01   -0.31830E-01   688   0.309E-01-0.217E-02
CGA:   5    -0.483992614167E+03   -0.69403E-02   -0.69316E-02   688   0.103E-01 0.228E-03
CGA:   6    -0.483994153336E+03   -0.15392E-02   -0.15188E-02   688   0.473E-02-0.320E-04
CGA:   7    -0.483995214921E+03   -0.10616E-02   -0.10606E-02   688   0.154E-02 0.275E-04
CGA:   8    -0.483995672444E+03   -0.45752E-03   -0.45819E-03   688   0.123E-02-0.578E-05
CGA:   9    -0.483995873622E+03   -0.20118E-03   -0.20201E-03   688   0.600E-03 0.512E-05
CGA:  10    -0.483996033233E+03   -0.15961E-03   -0.15971E-03   688   0.218E-03-0.156E-05
CGA:  11    -0.483996084810E+03   -0.51577E-04   -0.51518E-04   688   0.157E-03 0.163E-05
   7 F= -.48743454E+03 E0= -.48742465E+03  d E =-.438978E-01  mag=     0.0000
       N       E                     dE             d eps       ncg     rms          ort
SDA:   1    -0.483536583602E+03    0.45945E+00    0.00000E+00   688   0.116E+01 0.000E+00
CGA:   2    -0.483877166181E+03   -0.34058E+00   -0.34463E+00   688   0.930E+00-0.371E-01
CGA:   3    -0.483963504741E+03   -0.86339E-01   -0.10798E+00   688   0.266E+00-0.423E-01
CGA:   4    -0.484009668760E+03   -0.46164E-01   -0.45992E-01   688   0.455E-01-0.228E-02
CGA:   5    -0.484020081093E+03   -0.10412E-01   -0.10400E-01   688   0.136E-01 0.317E-03
CGA:   6    -0.484022370708E+03   -0.22896E-02   -0.22705E-02   688   0.701E-02-0.112E-03
CGA:   7    -0.484023799183E+03   -0.14285E-02   -0.14285E-02   688   0.217E-02 0.598E-04
CGA:   8    -0.484024518274E+03   -0.71909E-03   -0.71967E-03   688   0.127E-02-0.426E-05
CGA:   9    -0.484024778199E+03   -0.25993E-03   -0.26011E-03   688   0.879E-03 0.125E-04
CGA:  10    -0.484024968357E+03   -0.19016E-03   -0.19016E-03   688   0.263E-03-0.165E-05
CGA:  11    -0.484025049875E+03   -0.81518E-04   -0.81327E-04   688   0.149E-03 0.176E-05
   8 F= -.48746491E+03 E0= -.48745613E+03  d E =-.303649E-01  mag=     0.0000
       N       E                     dE             d eps       ncg     rms          ort
SDA:   1    -0.481405752537E+03    0.26192E+01    0.00000E+00   688   0.628E+01 0.000E+00
CGA:   2    -0.483193286167E+03   -0.17875E+01   -0.18381E+01   688   0.723E+01-0.511E+00
CGA:   3    -0.483652918657E+03   -0.45963E+00   -0.72935E+00   688   0.169E+01-0.637E+00
CGA:   4    -0.483950649815E+03   -0.29773E+00   -0.29740E+00   688   0.294E+00-0.624E-02
CGA:   5    -0.484022002477E+03   -0.71353E-01   -0.71361E-01   688   0.712E-01-0.151E-03
CGA:   6    -0.484038704301E+03   -0.16702E-01   -0.16661E-01   688   0.332E-01 0.116E-02
CGA:   7    -0.484045131348E+03   -0.64270E-02   -0.63941E-02   688   0.145E-01-0.478E-03
CGA:   8    -0.484048925270E+03   -0.37939E-02   -0.37856E-02   688   0.529E-02 0.111E-03
CGA:   9    -0.484050826353E+03   -0.19011E-02   -0.19013E-02   688   0.209E-02-0.132E-05
CGA:  10    -0.484051579031E+03   -0.75268E-03   -0.75202E-03   688   0.860E-03 0.447E-05
CGA:  11    -0.484051864982E+03   -0.28595E-03   -0.28599E-03   688   0.440E-03-0.389E-06
CGA:  12    -0.484051982772E+03   -0.11779E-03   -0.11759E-03   688   0.290E-03 0.420E-05
CGA:  13    -0.484052055433E+03   -0.72661E-04   -0.72670E-04   688   0.148E-03-0.463E-06
   9 F= -.48749508E+03 E0= -.48748924E+03  d E =-.605351E-01  mag=     0.0000
       N       E                     dE             d eps       ncg     rms          ort
SDA:   1    -0.483492004697E+03    0.55998E+00    0.00000E+00   688   0.139E+01 0.000E+00
CGA:   2    -0.483902756518E+03   -0.41075E+00   -0.41498E+00   688   0.983E+00-0.545E-01
CGA:   3    -0.484018380634E+03   -0.11562E+00   -0.14071E+00   688   0.228E+00-0.117E-01
CGA:   4    -0.484063221707E+03   -0.44841E-01   -0.44720E-01   688   0.414E-01-0.750E-03
CGA:   5    -0.484073788890E+03   -0.10567E-01   -0.10567E-01   688   0.947E-02 0.151E-04
CGA:   6    -0.484076662697E+03   -0.28738E-02   -0.28733E-02   688   0.347E-02 0.628E-05
CGA:   7    -0.484077733820E+03   -0.10711E-02   -0.10719E-02   688   0.197E-02-0.909E-05
CGA:   8    -0.484078213958E+03   -0.48014E-03   -0.48030E-03   688   0.100E-02 0.238E-04
CGA:   9    -0.484078494222E+03   -0.28026E-03   -0.28032E-03   688   0.340E-03-0.149E-05
CGA:  10    -0.484078614561E+03   -0.12034E-03   -0.12029E-03   688   0.126E-03 0.313E-06
CGA:  11    -0.484078664804E+03   -0.50243E-04   -0.50182E-04   688   0.793E-04 0.436E-06
  10 F= -.48752240E+03 E0= -.48751791E+03  d E =-.273250E-01  mag=    -0.0000
       N       E                     dE             d eps       ncg     rms          ort
SDA:   1    -0.482468458949E+03    0.16102E+01    0.00000E+00   688   0.384E+01 0.000E+00
CGA:   2    -0.483601728712E+03   -0.11333E+01   -0.11460E+01   688   0.309E+01-0.239E+00
CGA:   3    -0.483920018099E+03   -0.31829E+00   -0.43246E+00   688   0.667E+00-0.763E-01
CGA:   4    -0.484051251039E+03   -0.13123E+00   -0.13106E+00   688   0.125E+00-0.535E-03
CGA:   5    -0.484082098525E+03   -0.30847E-01   -0.30844E-01   688   0.317E-01-0.148E-03
CGA:   6    -0.484090261688E+03   -0.81632E-02   -0.81630E-02   688   0.129E-01 0.270E-03
CGA:   7    -0.484093677511E+03   -0.34158E-02   -0.34164E-02   688   0.558E-02-0.531E-04
CGA:   8    -0.484095433695E+03   -0.17562E-02   -0.17545E-02   688   0.231E-02 0.213E-04
CGA:   9    -0.484096233812E+03   -0.80012E-03   -0.79989E-03   688   0.828E-03 0.208E-05
CGA:  10    -0.484096528922E+03   -0.29511E-03   -0.29517E-03   688   0.328E-03-0.571E-06
CGA:  11    -0.484096636428E+03   -0.10751E-03   -0.10733E-03   688   0.188E-03 0.242E-05
CGA:  12    -0.484096697410E+03   -0.60982E-04   -0.61017E-04   688   0.106E-03-0.553E-06
  11 F= -.48754159E+03 E0= -.48753904E+03  d E =-.465094E-01  mag=    -0.0000
       N       E                     dE             d eps       ncg     rms          ort
SDA:   1    -0.483840801648E+03    0.25583E+00    0.00000E+00   688   0.655E+00 0.000E+00
CGA:   2    -0.484045019415E+03   -0.20422E+00   -0.20464E+00   688   0.281E+00-0.907E-02
CGA:   3    -0.484098904749E+03   -0.53885E-01   -0.56398E-01   688   0.577E-01 0.463E-02
CGA:   4    -0.484112077002E+03   -0.13172E-01   -0.13153E-01   688   0.118E-01-0.824E-04
CGA:   5    -0.484115133771E+03   -0.30568E-02   -0.30573E-02   688   0.311E-02 0.139E-04
CGA:   6    -0.484116112625E+03   -0.97885E-03   -0.97891E-03   688   0.117E-02-0.117E-05
CGA:   7    -0.484116528038E+03   -0.41541E-03   -0.41520E-03   688   0.568E-03 0.272E-05
CGA:   8    -0.484116710253E+03   -0.18222E-03   -0.18226E-03   688   0.242E-03-0.116E-05
CGA:   9    -0.484116783369E+03   -0.73116E-04   -0.73105E-04   688   0.863E-04 0.666E-06
  12 F= -.48756201E+03 E0= -.48755996E+03  d E =-.204252E-01  mag=    -0.0001
       N       E                     dE             d eps       ncg     rms          ort
SDA:   1    -0.481660423043E+03    0.24563E+01    0.00000E+00   688   0.590E+01 0.000E+00
CGA:   2    -0.483448435823E+03   -0.17880E+01   -0.17976E+01   688   0.382E+01-0.352E+00
CGA:   3    -0.483935058650E+03   -0.48662E+00   -0.62055E+00   688   0.742E+00 0.360E-01
CGA:   4    -0.484097446101E+03   -0.16239E+00   -0.16233E+00   688   0.144E+00-0.111E-03
CGA:   5    -0.484133794082E+03   -0.36348E-01   -0.36344E-01   688   0.357E-01-0.441E-04
CGA:   6    -0.484144440368E+03   -0.10646E-01   -0.10645E-01   688   0.131E-01 0.442E-04
CGA:   7    -0.484148664688E+03   -0.42243E-02   -0.42247E-02   688   0.605E-02-0.484E-05
CGA:   8    -0.484150620385E+03   -0.19557E-02   -0.19547E-02   688   0.251E-02 0.156E-04
CGA:   9    -0.484151416534E+03   -0.79615E-03   -0.79611E-03   688   0.834E-03 0.115E-05
CGA:  10    -0.484151698874E+03   -0.28234E-03   -0.28232E-03   688   0.286E-03 0.386E-06
CGA:  11    -0.484151802566E+03   -0.10369E-03   -0.10364E-03   688   0.137E-03 0.687E-06
CGA:  12    -0.484151853357E+03   -0.50791E-04   -0.50856E-04   688   0.756E-04-0.777E-06
  13 F= -.48759809E+03 E0= -.48759712E+03  d E =-.565017E-01  mag=    -0.0002
       N       E                     dE             d eps       ncg     rms          ort
SDA:   1    -0.474148641790E+03    0.10003E+02    0.00000E+00   688   0.236E+02 0.000E+00
CGA:   2    -0.481010065626E+03   -0.68614E+01   -0.67688E+01   688   0.251E+02-0.285E+01
CGA:   3    -0.482749351553E+03   -0.17393E+01   -0.30493E+01   688   0.542E+01-0.199E+01
CGA:   4    -0.483733405502E+03   -0.98405E+00   -0.98912E+00   688   0.108E+01 0.446E-02
CGA:   5    -0.483990767516E+03   -0.25736E+00   -0.25730E+00   688   0.269E+00-0.173E-03
CGA:   6    -0.484063119236E+03   -0.72352E-01   -0.72352E-01   688   0.907E-01 0.299E-04
CGA:   7    -0.484089449862E+03   -0.26331E-01   -0.26330E-01   688   0.333E-01 0.213E-04
CGA:   8    -0.484100044797E+03   -0.10595E-01   -0.10595E-01   688   0.133E-01 0.125E-04
CGA:   9    -0.484104237513E+03   -0.41927E-02   -0.41924E-02   688   0.522E-02 0.814E-05
CGA:  10    -0.484105916591E+03   -0.16791E-02   -0.16789E-02   688   0.200E-02 0.449E-05
CGA:  11    -0.484106596923E+03   -0.68033E-03   -0.68023E-03   688   0.767E-03 0.195E-05
CGA:  12    -0.484106878229E+03   -0.28131E-03   -0.28134E-03   688   0.315E-03-0.547E-06
CGA:  13    -0.484106992933E+03   -0.11470E-03   -0.11471E-03   688   0.137E-03-0.682E-07
CGA:  14    -0.484107043485E+03   -0.50552E-04   -0.50549E-04   688   0.574E-04 0.413E-07
  14 F= -.48755523E+03 E0= -.48755512E+03  d E =-.136473E-01  mag=    -0.0000
       N       E                     dE             d eps       ncg     rms          ort
SDA:   1    -0.478439787370E+03    0.56672E+01    0.00000E+00   688   0.135E+02 0.000E+00
CGA:   2    -0.482841644896E+03   -0.44019E+01   -0.44001E+01   688   0.427E+01 0.506E-01
CGA:   3    -0.483871944209E+03   -0.10303E+01   -0.10296E+01   688   0.873E+00-0.853E-03
CGA:   4    -0.484079043609E+03   -0.20710E+00   -0.20706E+00   688   0.183E+00 0.147E-04
CGA:   5    -0.484125855946E+03   -0.46812E-01   -0.46814E-01   688   0.580E-01 0.296E-04
CGA:   6    -0.484142573568E+03   -0.16718E-01   -0.16717E-01   688   0.237E-01-0.220E-04
CGA:   7    -0.484150149747E+03   -0.75762E-02   -0.75762E-02   688   0.109E-01 0.648E-05
CGA:   8    -0.484153414700E+03   -0.32650E-02   -0.32650E-02   688   0.375E-02 0.167E-05
CGA:   9    -0.484154553043E+03   -0.11383E-02   -0.11383E-02   688   0.110E-02 0.317E-05
CGA:  10    -0.484154911662E+03   -0.35862E-03   -0.35862E-03   688   0.362E-03 0.111E-07
CGA:  11    -0.484155046638E+03   -0.13498E-03   -0.13499E-03   688   0.155E-03-0.239E-06
CGA:  12    -0.484155107982E+03   -0.61345E-04   -0.61281E-04   688   0.699E-04 0.710E-06
  15 F= -.48760183E+03 E0= -.48760125E+03  d E =-.602386E-01  mag=    -0.0004
       N       E                     dE             d eps       ncg     rms          ort
SDA:   1    -0.483497440032E+03    0.65761E+00    0.00000E+00   688   0.162E+01 0.000E+00
CGA:   2    -0.484010099203E+03   -0.51266E+00   -0.51279E+00   688   0.603E+00-0.174E-01
CGA:   3    -0.484144361269E+03   -0.13426E+00   -0.13668E+00   688   0.113E+00 0.576E-02
CGA:   4    -0.484171904288E+03   -0.27543E-01   -0.27542E-01   688   0.235E-01-0.147E-05
CGA:   5    -0.484178145537E+03   -0.62412E-02   -0.62419E-02   688   0.740E-02 0.851E-05
CGA:   6    -0.484180337869E+03   -0.21923E-02   -0.21923E-02   688   0.308E-02-0.153E-05
CGA:   7    -0.484181297137E+03   -0.95927E-03   -0.95923E-03   688   0.146E-02 0.492E-05
CGA:   8    -0.484181720729E+03   -0.42359E-03   -0.42358E-03   688   0.508E-03-0.923E-06
CGA:   9    -0.484181876034E+03   -0.15530E-03   -0.15530E-03   688   0.146E-03-0.241E-07
CGA:  10    -0.484181923990E+03   -0.47957E-04   -0.47929E-04   688   0.478E-04 0.109E-05
  16 F= -.48762922E+03 E0= -.48762880E+03  d E =-.273962E-01  mag=    -0.0003
       N       E                     dE             d eps       ncg     rms          ort
SDA:   1    -0.478078759270E+03    0.61031E+01    0.00000E+00   688   0.146E+02 0.000E+00
CGA:   2    -0.482494632828E+03   -0.44159E+01   -0.44013E+01   688   0.956E+01-0.119E+01
CGA:   3    -0.483708752827E+03   -0.12141E+01   -0.15815E+01   688   0.176E+01 0.145E+00
CGA:   4    -0.484101327620E+03   -0.39257E+00   -0.39294E+00   688   0.349E+00 0.823E-03
CGA:   5    -0.484189887848E+03   -0.88560E-01   -0.88554E-01   688   0.900E-01-0.132E-04
CGA:   6    -0.484217257579E+03   -0.27370E-01   -0.27369E-01   688   0.329E-01 0.419E-04
CGA:   7    -0.484228024893E+03   -0.10767E-01   -0.10767E-01   688   0.150E-01 0.172E-04
CGA:   8    -0.484232789630E+03   -0.47647E-02   -0.47645E-02   688   0.610E-02 0.564E-05
CGA:   9    -0.484234631686E+03   -0.18421E-02   -0.18420E-02   688   0.207E-02 0.657E-05
CGA:  10    -0.484235278949E+03   -0.64726E-03   -0.64727E-03   688   0.694E-03-0.455E-06
CGA:  11    -0.484235515502E+03   -0.23655E-03   -0.23651E-03   688   0.280E-03 0.872E-06
CGA:  12    -0.484235622745E+03   -0.10724E-03   -0.10725E-03   688   0.125E-03-0.123E-06
CGA:  13    -0.484235673797E+03   -0.51052E-04   -0.51151E-04   688   0.533E-04-0.943E-06
  17 F= -.48768472E+03 E0= -.48768458E+03  d E =-.828947E-01  mag=    -0.0001
       N       E                     dE             d eps       ncg     rms          ort
SDA:   1    -0.459606400615E+03    0.24629E+02    0.00000E+00   688   0.583E+02 0.000E+00
CGA:   2    -0.476127115477E+03   -0.16521E+02   -0.15287E+02   688   0.660E+02-0.632E+01
CGA:   3    -0.480649030493E+03   -0.45219E+01   -0.80787E+01   688   0.147E+02-0.560E+01
CGA:   4    -0.483215577221E+03   -0.25665E+01   -0.26182E+01   688   0.288E+01 0.228E-01
CGA:   5    -0.483903934431E+03   -0.68836E+00   -0.68832E+00   688   0.720E+00 0.426E-03
CGA:   6    -0.484099770338E+03   -0.19584E+00   -0.19583E+00   688   0.250E+00 0.648E-04
CGA:   7    -0.484171452616E+03   -0.71682E-01   -0.71685E-01   688   0.942E-01 0.209E-03
CGA:   8    -0.484200691717E+03   -0.29239E-01   -0.29239E-01   688   0.377E-01 0.338E-04
CGA:   9    -0.484212377356E+03   -0.11686E-01   -0.11685E-01   688   0.142E-01 0.146E-04
CGA:  10    -0.484216986970E+03   -0.46096E-02   -0.46092E-02   688   0.523E-02 0.119E-04
CGA:  11    -0.484218777612E+03   -0.17906E-02   -0.17905E-02   688   0.200E-02 0.437E-05
CGA:  12    -0.484219491493E+03   -0.71388E-03   -0.71389E-03   688   0.835E-03-0.315E-06
CGA:  13    -0.484219790206E+03   -0.29871E-03   -0.29875E-03   688   0.342E-03-0.607E-06
CGA:  14    -0.484219922018E+03   -0.13181E-03   -0.13186E-03   688   0.137E-03-0.545E-06
CGA:  15    -0.484219977499E+03   -0.55481E-04   -0.55525E-04   688   0.591E-04-0.457E-06
  18 F= -.48767250E+03 E0= -.48767250E+03  d E =-.706741E-01  mag=    -0.0000
       N       E                     dE             d eps       ncg     rms          ort
SDA:   1    -0.476806446609E+03    0.74135E+01    0.00000E+00   688   0.176E+02 0.000E+00
CGA:   2    -0.482498782609E+03   -0.56923E+01   -0.56917E+01   688   0.568E+01 0.449E-01
CGA:   3    -0.483871075713E+03   -0.13723E+01   -0.13722E+01   688   0.115E+01 0.129E-02
CGA:   4    -0.484146369639E+03   -0.27529E+00   -0.27526E+00   688   0.243E+00 0.881E-04
CGA:   5    -0.484209115541E+03   -0.62746E-01   -0.62745E-01   688   0.806E-01 0.272E-04
CGA:   6    -0.484231820747E+03   -0.22705E-01   -0.22706E-01   688   0.341E-01-0.238E-05
CGA:   7    -0.484242208742E+03   -0.10388E-01   -0.10388E-01   688   0.156E-01 0.362E-05
CGA:   8    -0.484246857516E+03   -0.46488E-02   -0.46488E-02   688   0.513E-02 0.265E-05
CGA:   9    -0.484248442089E+03   -0.15846E-02   -0.15846E-02   688   0.149E-02 0.321E-05
CGA:  10    -0.484248927015E+03   -0.48493E-03   -0.48491E-03   688   0.499E-03 0.752E-06
CGA:  11    -0.484249110572E+03   -0.18356E-03   -0.18364E-03   688   0.212E-03-0.134E-05
CGA:  12    -0.484249195257E+03   -0.84685E-04   -0.84608E-04   688   0.907E-04 0.846E-06
  19 F= -.48769982E+03 E0= -.48769978E+03  d E =-.979907E-01  mag=    -0.0000
       N       E                     dE             d eps       ncg     rms          ort
SDA:   1    -0.482342390501E+03    0.19067E+01    0.00000E+00   688   0.463E+01 0.000E+00
CGA:   2    -0.483804591258E+03   -0.14622E+01   -0.14620E+01   688   0.164E+01-0.469E-01
CGA:   3    -0.484188565342E+03   -0.38397E+00   -0.38679E+00   688   0.317E+00 0.846E-02
CGA:   4    -0.484265926281E+03   -0.77361E-01   -0.77369E-01   688   0.672E-01 0.474E-04
CGA:   5    -0.484283460854E+03   -0.17535E-01   -0.17535E-01   688   0.224E-01 0.109E-04
CGA:   6    -0.484289983008E+03   -0.65222E-02   -0.65223E-02   688   0.906E-02 0.284E-05
CGA:   7    -0.484292893946E+03   -0.29109E-02   -0.29108E-02   688   0.403E-02 0.724E-05
CGA:   8    -0.484294101592E+03   -0.12076E-02   -0.12076E-02   688   0.136E-02-0.194E-05
CGA:   9    -0.484294511709E+03   -0.41012E-03   -0.41013E-03   688   0.403E-03 0.129E-05
CGA:  10    -0.484294642215E+03   -0.13051E-03   -0.13050E-03   688   0.134E-03 0.471E-06
CGA:  11    -0.484294692724E+03   -0.50509E-04   -0.50557E-04   688   0.576E-04-0.722E-06
  20 F= -.48774673E+03 E0= -.48774671E+03  d E =-.469084E-01  mag=    -0.0000
       N       E                     dE             d eps       ncg     rms          ort
SDA:   1    -0.480347671754E+03    0.39470E+01    0.00000E+00   688   0.942E+01 0.000E+00
CGA:   2    -0.483315044664E+03   -0.29674E+01   -0.29672E+01   688   0.340E+01-0.150E+00
CGA:   3    -0.484099665550E+03   -0.78462E+00   -0.79436E+00   688   0.641E+00 0.315E-01
CGA:   4    -0.484257887651E+03   -0.15822E+00   -0.15824E+00   688   0.136E+00 0.125E-03
CGA:   5    -0.484293418050E+03   -0.35530E-01   -0.35531E-01   688   0.459E-01 0.212E-04
CGA:   6    -0.484306506083E+03   -0.13088E-01   -0.13089E-01   688   0.191E-01 0.118E-04
CGA:   7    -0.484312429411E+03   -0.59233E-02   -0.59233E-02   688   0.866E-02 0.121E-04
CGA:   8    -0.484315018690E+03   -0.25893E-02   -0.25893E-02   688   0.288E-02-0.179E-05
CGA:   9    -0.484315910253E+03   -0.89156E-03   -0.89155E-03   688   0.844E-03 0.196E-05
CGA:  10    -0.484316189195E+03   -0.27894E-03   -0.27891E-03   688   0.286E-03 0.110E-05
CGA:  11    -0.484316297104E+03   -0.10791E-03   -0.10800E-03   688   0.126E-03-0.135E-05
CGA:  12    -0.484316346858E+03   -0.49754E-04   -0.49744E-04   688   0.540E-04 0.107E-06
  21 F= -.48777033E+03 E0= -.48777033E+03  d E =-.705120E-01  mag=    -0.0000
       N       E                     dE             d eps       ncg     rms          ort
SDA:   1    -0.482901749713E+03    0.14145E+01    0.00000E+00   688   0.347E+01 0.000E+00
CGA:   2    -0.483996800157E+03   -0.10951E+01   -0.10950E+01   688   0.116E+01-0.204E-01
CGA:   3    -0.484278773151E+03   -0.28197E+00   -0.28258E+00   688   0.237E+00 0.197E-02
CGA:   4    -0.484335862230E+03   -0.57089E-01   -0.57098E-01   688   0.500E-01 0.340E-04
CGA:   5    -0.484348889862E+03   -0.13028E-01   -0.13028E-01   688   0.165E-01 0.281E-05
CGA:   6    -0.484353779065E+03   -0.48892E-02   -0.48893E-02   688   0.654E-02 0.221E-05
CGA:   7    -0.484355981040E+03   -0.22020E-02   -0.22018E-02   688   0.279E-02 0.503E-05
CGA:   8    -0.484356853725E+03   -0.87269E-03   -0.87269E-03   688   0.907E-03-0.828E-06
CGA:   9    -0.484357135259E+03   -0.28153E-03   -0.28153E-03   688   0.270E-03 0.928E-06
CGA:  10    -0.484357225390E+03   -0.90131E-04   -0.90124E-04   688   0.927E-04 0.305E-06
  22 F= -.48781223E+03 E0= -.48781223E+03  d E =-.419033E-01  mag=     0.0000
       N       E                     dE             d eps       ncg     rms          ort
SDA:   1    -0.478270008545E+03    0.60871E+01    0.00000E+00   688   0.146E+02 0.000E+00
CGA:   2    -0.482845203841E+03   -0.45752E+01   -0.45749E+01   688   0.521E+01-0.286E+00
CGA:   3    -0.484053299411E+03   -0.12081E+01   -0.12221E+01   688   0.998E+00 0.498E-01
CGA:   4    -0.484297912056E+03   -0.24461E+00   -0.24468E+00   688   0.214E+00 0.313E-03
CGA:   5    -0.484353241309E+03   -0.55329E-01   -0.55329E-01   688   0.721E-01 0.170E-04
CGA:   6    -0.484374020370E+03   -0.20779E-01   -0.20780E-01   688   0.294E-01 0.319E-04
CGA:   7    -0.484383405834E+03   -0.93855E-02   -0.93852E-02   688   0.132E-01 0.181E-04
CGA:   8    -0.484387333757E+03   -0.39279E-02   -0.39280E-02   688   0.447E-02 0.111E-05
CGA:   9    -0.484388680524E+03   -0.13468E-02   -0.13468E-02   688   0.134E-02 0.274E-05
CGA:  10    -0.484389113446E+03   -0.43292E-03   -0.43289E-03   688   0.446E-03 0.147E-05
CGA:  11    -0.484389281004E+03   -0.16756E-03   -0.16761E-03   688   0.191E-03-0.742E-06
CGA:  12    -0.484389357268E+03   -0.76264E-04   -0.76275E-04   688   0.822E-04-0.118E-06
  23 F= -.48784632E+03 E0= -.48784632E+03  d E =-.759870E-01  mag=     0.0000
       N       E                     dE             d eps       ncg     rms          ort
SDA:   1    -0.482253995647E+03    0.21353E+01    0.00000E+00   688   0.521E+01 0.000E+00
CGA:   2    -0.483897812136E+03   -0.16438E+01   -0.16437E+01   688   0.176E+01-0.404E-01
CGA:   3    -0.484325609677E+03   -0.42780E+00   -0.42877E+00   688   0.353E+00 0.344E-02
CGA:   4    -0.484411348326E+03   -0.85739E-01   -0.85762E-01   688   0.738E-01 0.971E-04
CGA:   5    -0.484431089257E+03   -0.19741E-01   -0.19741E-01   688   0.247E-01 0.761E-05
CGA:   6    -0.484438484297E+03   -0.73950E-02   -0.73952E-02   688   0.101E-01 0.731E-05
CGA:   7    -0.484441786641E+03   -0.33023E-02   -0.33022E-02   688   0.441E-02 0.861E-05
CGA:   8    -0.484443104236E+03   -0.13176E-02   -0.13176E-02   688   0.144E-02-0.250E-05
CGA:   9    -0.484443539376E+03   -0.43514E-03   -0.43515E-03   688   0.429E-03 0.158E-05
CGA:  10    -0.484443680092E+03   -0.14072E-03   -0.14071E-03   688   0.148E-03 0.239E-06
CGA:  11    -0.484443736315E+03   -0.56223E-04   -0.56275E-04   688   0.637E-04-0.720E-06
  24 F= -.48790181E+03 E0= -.48790181E+03  d E =-.554923E-01  mag=    -0.0000
       N       E                     dE             d eps       ncg     rms          ort
SDA:   1    -0.464860878471E+03    0.19583E+02    0.00000E+00   688   0.470E+02 0.000E+00
CGA:   2    -0.479263265166E+03   -0.14402E+02   -0.14302E+02   688   0.208E+02-0.346E+01
CGA:   3    -0.483369023586E+03   -0.41058E+01   -0.43535E+01   688   0.340E+01 0.635E+00
CGA:   4    -0.484249209003E+03   -0.88019E+00   -0.88162E+00   688   0.704E+00 0.733E-02
CGA:   5    -0.484437411248E+03   -0.18820E+00   -0.18818E+00   688   0.260E+00-0.106E-03
CGA:   6    -0.484506469291E+03   -0.69058E-01   -0.69090E-01   688   0.113E+00 0.266E-03
CGA:   7    -0.484539931856E+03   -0.33463E-01   -0.33463E-01   688   0.477E-01 0.275E-04
CGA:   8    -0.484554765480E+03   -0.14834E-01   -0.14833E-01   688   0.154E-01 0.158E-04
CGA:   9    -0.484559620970E+03   -0.48555E-02   -0.48554E-02   688   0.470E-02 0.429E-05
CGA:  10    -0.484561100176E+03   -0.14792E-02   -0.14792E-02   688   0.160E-02 0.555E-05
CGA:  11    -0.484561671967E+03   -0.57179E-03   -0.57199E-03   688   0.661E-03-0.402E-05
CGA:  12    -0.484561935436E+03   -0.26347E-03   -0.26362E-03   688   0.283E-03-0.168E-05
CGA:  13    -0.484562046910E+03   -0.11147E-03   -0.11149E-03   688   0.103E-03-0.256E-06
CGA:  14    -0.484562086552E+03   -0.39642E-04   -0.39705E-04   688   0.350E-04-0.929E-06
  25 F= -.48802243E+03 E0= -.48802243E+03  d E =-.176113E+00  mag=     0.0000
       N       E                     dE             d eps       ncg     rms          ort
SDA:   1    -0.405997794240E+03    0.78564E+02    0.00000E+00   688   0.189E+03 0.000E+00
CGA:   2    -0.459406386062E+03   -0.53409E+02   -0.49513E+02   688   0.131E+03-0.297E+02
CGA:   3    -0.477438063507E+03   -0.18032E+02   -0.21020E+02   688   0.230E+02-0.559E+00
CGA:   4    -0.482725959884E+03   -0.52879E+01   -0.53330E+01   688   0.444E+01 0.126E+00
CGA:   5    -0.483922906205E+03   -0.11969E+01   -0.11968E+01   688   0.126E+01 0.248E-03
CGA:   6    -0.484317291802E+03   -0.39439E+00   -0.39436E+00   688   0.475E+00 0.215E-02
CGA:   7    -0.484470082010E+03   -0.15279E+00   -0.15279E+00   688   0.213E+00 0.385E-04
CGA:   8    -0.484533105048E+03   -0.63023E-01   -0.63028E-01   688   0.828E-01 0.171E-03
CGA:   9    -0.484558270810E+03   -0.25166E-01   -0.25166E-01   688   0.257E-01 0.426E-04
CGA:  10    -0.484566973710E+03   -0.87029E-02   -0.87030E-02   688   0.800E-02-0.206E-05
CGA:  11    -0.484569839485E+03   -0.28658E-02   -0.28662E-02   688   0.321E-02-0.866E-05
CGA:  12    -0.484571015152E+03   -0.11757E-02   -0.11758E-02   688   0.135E-02-0.157E-05
CGA:  13    -0.484571563869E+03   -0.54872E-03   -0.54928E-03   688   0.519E-03-0.603E-05
CGA:  14    -0.484571775890E+03   -0.21202E-03   -0.21224E-03   688   0.200E-03-0.237E-05
CGA:  15    -0.484571852017E+03   -0.76127E-04   -0.76092E-04   688   0.734E-04 0.593E-06
  26 F= -.48803123E+03 E0= -.48803123E+03  d E =-.184914E+00  mag=     0.0000
       N       E                     dE             d eps       ncg     rms          ort
SDA:   1    -0.466052131828E+03    0.18520E+02    0.00000E+00   688   0.438E+02 0.000E+00
CGA:   2    -0.480130459804E+03   -0.14078E+02   -0.14079E+02   688   0.143E+02 0.262E-01
CGA:   3    -0.483616003129E+03   -0.34855E+01   -0.34944E+01   688   0.295E+01 0.192E-01
CGA:   4    -0.484325901083E+03   -0.70990E+00   -0.70990E+00   688   0.671E+00 0.800E-03
CGA:   5    -0.484493001629E+03   -0.16710E+00   -0.16703E+00   688   0.236E+00-0.515E-04
CGA:   6    -0.484557454220E+03   -0.64453E-01   -0.64472E-01   688   0.102E+00 0.145E-03
CGA:   7    -0.484588029677E+03   -0.30575E-01   -0.30573E-01   688   0.438E-01-0.294E-04
CGA:   8    -0.484601657389E+03   -0.13628E-01   -0.13628E-01   688   0.138E-01 0.153E-04
CGA:   9    -0.484605944998E+03   -0.42876E-02   -0.42876E-02   688   0.401E-02 0.561E-05
CGA:  10    -0.484607224201E+03   -0.12792E-02   -0.12792E-02   688   0.133E-02 0.347E-05
CGA:  11    -0.484607700331E+03   -0.47613E-03   -0.47623E-03   688   0.545E-03-0.245E-05
CGA:  12    -0.484607917955E+03   -0.21762E-03   -0.21760E-03   688   0.230E-03 0.356E-06
CGA:  13    -0.484608009454E+03   -0.91499E-04   -0.91579E-04   688   0.829E-04-0.105E-05
  27 F= -.48806829E+03 E0= -.48806829E+03  d E =-.221976E+00  mag=     0.0000
       N       E                     dE             d eps       ncg     rms          ort
SDA:   1    -0.480788047063E+03    0.38199E+01    0.00000E+00   688   0.923E+01 0.000E+00
CGA:   2    -0.483744492517E+03   -0.29564E+01   -0.29558E+01   688   0.299E+01-0.361E-01
CGA:   3    -0.484478881123E+03   -0.73439E+00   -0.73532E+00   688   0.620E+00 0.302E-02
CGA:   4    -0.484627265080E+03   -0.14838E+00   -0.14842E+00   688   0.132E+00 0.143E-03
CGA:   5    -0.484662017774E+03   -0.34753E-01   -0.34754E-01   688   0.442E-01 0.181E-04
CGA:   6    -0.484674981216E+03   -0.12963E-01   -0.12964E-01   688   0.187E-01 0.870E-05
CGA:   7    -0.484680752225E+03   -0.57710E-02   -0.57711E-02   688   0.840E-02 0.121E-04
CGA:   8    -0.484683187686E+03   -0.24355E-02   -0.24355E-02   688   0.274E-02-0.165E-05
CGA:   9    -0.484684004845E+03   -0.81716E-03   -0.81717E-03   688   0.781E-03 0.637E-06
CGA:  10    -0.484684258649E+03   -0.25380E-03   -0.25379E-03   688   0.252E-03 0.151E-05
CGA:  11    -0.484684352544E+03   -0.93895E-04   -0.93958E-04   688   0.106E-03-0.110E-05
  28 F= -.48814461E+03 E0= -.48814461E+03  d E =-.763159E-01  mag=     0.0000
       N       E                     dE             d eps       ncg     rms          ort
SDA:   1    -0.449832606906E+03    0.34852E+02    0.00000E+00   688   0.833E+02 0.000E+00
CGA:   2    -0.476068246391E+03   -0.26236E+02   -0.26191E+02   688   0.304E+02-0.321E+01
CGA:   3    -0.482901679318E+03   -0.68334E+01   -0.69708E+01   688   0.568E+01 0.427E+00
CGA:   4    -0.484290426534E+03   -0.13887E+01   -0.13912E+01   688   0.129E+01 0.101E-01
CGA:   5    -0.484607495608E+03   -0.31707E+00   -0.31687E+00   688   0.484E+00-0.274E-03
CGA:   6    -0.484732870056E+03   -0.12537E+00   -0.12550E+00   688   0.196E+00 0.804E-03
CGA:   7    -0.484793252744E+03   -0.60383E-01   -0.60383E-01   688   0.809E-01 0.787E-04
CGA:   8    -0.484819007678E+03   -0.25755E-01   -0.25754E-01   688   0.266E-01 0.304E-04
CGA:   9    -0.484827164555E+03   -0.81569E-02   -0.81569E-02   688   0.809E-02 0.257E-05
CGA:  10    -0.484829690421E+03   -0.25259E-02   -0.25258E-02   688   0.260E-02 0.760E-05
CGA:  11    -0.484830628495E+03   -0.93807E-03   -0.93828E-03   688   0.104E-02-0.380E-05
CGA:  12    -0.484831045248E+03   -0.41675E-03   -0.41708E-03   688   0.446E-03-0.360E-05
CGA:  13    -0.484831219535E+03   -0.17429E-03   -0.17432E-03   688   0.162E-03-0.402E-06
CGA:  14    -0.484831281823E+03   -0.62287E-04   -0.62369E-04   688   0.535E-04-0.122E-05
  29 F= -.48829393E+03 E0= -.48829393E+03  d E =-.225640E+00  mag=    -0.0000
       N       E                     dE             d eps       ncg     rms          ort
SDA:   1    -0.345606096931E+03    0.13923E+03    0.00000E+00   688   0.336E+03 0.000E+00
CGA:   2    -0.444737253521E+03   -0.99131E+02   -0.95431E+02   688   0.191E+03-0.498E+02
CGA:   3    -0.474026056130E+03   -0.29289E+02   -0.33403E+02   688   0.317E+02 0.301E+01
CGA:   4    -0.481815716668E+03   -0.77897E+01   -0.78463E+01   688   0.646E+01 0.224E+00
CGA:   5    -0.483563086169E+03   -0.17474E+01   -0.17468E+01   688   0.223E+01 0.269E-05
CGA:   6    -0.484155229429E+03   -0.59214E+00   -0.59307E+00   688   0.978E+00 0.726E-02
CGA:   7    -0.484434804002E+03   -0.27957E+00   -0.27954E+00   688   0.377E+00-0.310E-03
CGA:   8    -0.484559915631E+03   -0.12511E+00   -0.12511E+00   688   0.132E+00-0.191E-04
CGA:   9    -0.484602357284E+03   -0.42442E-01   -0.42441E-01   688   0.453E-01 0.245E-04
CGA:  10    -0.484616247494E+03   -0.13890E-01   -0.13890E-01   688   0.148E-01-0.860E-05
CGA:  11    -0.484621258483E+03   -0.50110E-02   -0.50115E-02   688   0.549E-02-0.169E-04
CGA:  12    -0.484623356551E+03   -0.20981E-02   -0.20989E-02   688   0.236E-02-0.114E-04
CGA:  13    -0.484624288542E+03   -0.93199E-03   -0.93235E-03   688   0.969E-03-0.432E-05
CGA:  14    -0.484624668173E+03   -0.37963E-03   -0.38008E-03   688   0.359E-03-0.601E-05
CGA:  15    -0.484624808349E+03   -0.14018E-03   -0.14020E-03   688   0.132E-03-0.311E-06
CGA:  16    -0.484624860604E+03   -0.52255E-04   -0.52186E-04   688   0.496E-04 0.963E-06
  30 F= -.48809996E+03 E0= -.48809996E+03  d E =-.316659E-01  mag=    -0.0000
       N       E                     dE             d eps       ncg     rms          ort
SDA:   1    -0.396612624279E+03    0.88012E+02    0.00000E+00   688   0.210E+03 0.000E+00
CGA:   2    -0.462685215843E+03   -0.66073E+02   -0.65968E+02   688   0.734E+02-0.207E+01
CGA:   3    -0.479799975310E+03   -0.17115E+02   -0.17363E+02   688   0.146E+02 0.458E+00
CGA:   4    -0.483317125858E+03   -0.35172E+01   -0.35248E+01   688   0.387E+01 0.289E-01
CGA:   5    -0.484207720899E+03   -0.89060E+00   -0.88731E+00   688   0.134E+01-0.898E-04
CGA:   6    -0.484571816108E+03   -0.36410E+00   -0.36447E+00   688   0.538E+00 0.301E-02
CGA:   7    -0.484742354239E+03   -0.17054E+00   -0.17054E+00   688   0.226E+00 0.328E-04
CGA:   8    -0.484815556584E+03   -0.73202E-01   -0.73204E-01   688   0.757E-01-0.940E-04
CGA:   9    -0.484838931478E+03   -0.23375E-01   -0.23375E-01   688   0.227E-01 0.254E-04
CGA:  10    -0.484846116729E+03   -0.71853E-02   -0.71852E-02   688   0.720E-02 0.524E-05
CGA:  11    -0.484848692271E+03   -0.25755E-02   -0.25758E-02   688   0.278E-02-0.591E-05
CGA:  12    -0.484849823648E+03   -0.11314E-02   -0.11318E-02   688   0.119E-02-0.433E-05
CGA:  13    -0.484850308210E+03   -0.48456E-03   -0.48490E-03   688   0.450E-03-0.398E-05
CGA:  14    -0.484850484029E+03   -0.17582E-03   -0.17599E-03   688   0.149E-03-0.270E-05
CGA:  15    -0.484850543977E+03   -0.59948E-04   -0.59941E-04   688   0.508E-04 0.110E-06
  31 F= -.48831545E+03 E0= -.48831545E+03  d E =-.247160E+00  mag=     0.0000
       N       E                     dE             d eps       ncg     rms          ort
SDA:   1    -0.472502659596E+03    0.12348E+02    0.00000E+00   688   0.296E+02 0.000E+00
CGA:   2    -0.482035246758E+03   -0.95326E+01   -0.95300E+01   688   0.940E+01-0.578E-01
CGA:   3    -0.484336198776E+03   -0.23010E+01   -0.23050E+01   688   0.200E+01 0.127E-01
CGA:   4    -0.484807414900E+03   -0.47122E+00   -0.47133E+00   688   0.445E+00 0.869E-03
CGA:   5    -0.484917465613E+03   -0.11005E+00   -0.11004E+00   688   0.155E+00 0.901E-04
CGA:   6    -0.484959311286E+03   -0.41846E-01   -0.41863E-01   688   0.652E-01 0.832E-04
CGA:   7    -0.484978990709E+03   -0.19679E-01   -0.19680E-01   688   0.279E-01 0.204E-04
CGA:   8    -0.484987603222E+03   -0.86125E-02   -0.86126E-02   688   0.909E-02 0.409E-05
CGA:   9    -0.484990398557E+03   -0.27953E-02   -0.27953E-02   688   0.262E-02-0.672E-06
CGA:  10    -0.484991234521E+03   -0.83596E-03   -0.83597E-03   688   0.850E-03 0.337E-05
CGA:  11    -0.484991537289E+03   -0.30277E-03   -0.30287E-03   688   0.344E-03-0.280E-05
CGA:  12    -0.484991673130E+03   -0.13584E-03   -0.13591E-03   688   0.145E-03-0.939E-06
CGA:  13    -0.484991730421E+03   -0.57291E-04   -0.57301E-04   688   0.518E-04-0.139E-06
  32 F= -.48846093E+03 E0= -.48846093E+03  d E =-.145477E+00  mag=     0.0000
       N       E                     dE             d eps       ncg     rms          ort
SDA:   1    -0.470794113006E+03    0.14198E+02    0.00000E+00   688   0.337E+02 0.000E+00
CGA:   2    -0.481673580746E+03   -0.10879E+02   -0.10879E+02   688   0.107E+02-0.408E-01
CGA:   3    -0.484288952947E+03   -0.26154E+01   -0.26195E+01   688   0.227E+01 0.157E-01
CGA:   4    -0.484824026754E+03   -0.53507E+00   -0.53516E+00   688   0.507E+00 0.105E-02
CGA:   5    -0.484949078386E+03   -0.12505E+00   -0.12504E+00   688   0.176E+00 0.103E-03
CGA:   6    -0.484996431748E+03   -0.47353E-01   -0.47372E-01   688   0.746E-01 0.111E-03
CGA:   7    -0.485018764468E+03   -0.22333E-01   -0.22333E-01   688   0.321E-01 0.147E-04
CGA:   8    -0.485028616531E+03   -0.98521E-02   -0.98521E-02   688   0.106E-01 0.613E-05
CGA:   9    -0.485031857110E+03   -0.32406E-02   -0.32406E-02   688   0.308E-02-0.169E-05
CGA:  10    -0.485032833434E+03   -0.97632E-03   -0.97631E-03   688   0.101E-02 0.403E-05
CGA:  11    -0.485033191196E+03   -0.35776E-03   -0.35788E-03   688   0.409E-03-0.319E-05
CGA:  12    -0.485033353429E+03   -0.16223E-03   -0.16234E-03   688   0.174E-03-0.127E-05
CGA:  13    -0.485033422204E+03   -0.68775E-04   -0.68777E-04   688   0.633E-04-0.259E-07
  33 F= -.48850744E+03 E0= -.48850744E+03  d E =-.191989E+00  mag=    -0.0000
       N       E                     dE             d eps       ncg     rms          ort
SDA:   1    -0.474096511732E+03    0.10937E+02    0.00000E+00   688   0.261E+02 0.000E+00
CGA:   2    -0.482544315124E+03   -0.84478E+01   -0.84477E+01   688   0.829E+01-0.695E-02
CGA:   3    -0.484584691289E+03   -0.20404E+01   -0.20419E+01   688   0.174E+01 0.868E-02
CGA:   4    -0.484998281201E+03   -0.41359E+00   -0.41361E+00   688   0.385E+00 0.615E-03
CGA:   5    -0.485094856825E+03   -0.96576E-01   -0.96571E-01   688   0.135E+00 0.718E-04
CGA:   6    -0.485131334648E+03   -0.36478E-01   -0.36489E-01   688   0.585E-01 0.690E-04
CGA:   7    -0.485148665699E+03   -0.17331E-01   -0.17331E-01   688   0.251E-01 0.955E-05
CGA:   8    -0.485156367126E+03   -0.77014E-02   -0.77015E-02   688   0.821E-02 0.377E-05
CGA:   9    -0.485158892021E+03   -0.25249E-02   -0.25249E-02   688   0.242E-02-0.307E-05
CGA:  10    -0.485159655109E+03   -0.76309E-03   -0.76308E-03   688   0.810E-03 0.419E-05
CGA:  11    -0.485159940101E+03   -0.28499E-03   -0.28508E-03   688   0.328E-03-0.232E-05
CGA:  12    -0.485160070409E+03   -0.13031E-03   -0.13041E-03   688   0.140E-03-0.117E-05
CGA:  13    -0.485160125255E+03   -0.54846E-04   -0.54841E-04   688   0.508E-04 0.664E-07
  34 F= -.48863855E+03 E0= -.48863855E+03  d E =-.131108E+00  mag=    -0.0000
       N       E                     dE             d eps       ncg     rms          ort
SDA:   1    -0.470821877135E+03    0.14338E+02    0.00000E+00   688   0.339E+02 0.000E+00
CGA:   2    -0.481769207279E+03   -0.10947E+02   -0.10947E+02   688   0.109E+02 0.980E-03
CGA:   3    -0.484443434545E+03   -0.26742E+01   -0.26764E+01   688   0.227E+01 0.138E-01
CGA:   4    -0.484981972261E+03   -0.53854E+00   -0.53856E+00   688   0.511E+00 0.975E-03
CGA:   5    -0.485108053332E+03   -0.12608E+00   -0.12606E+00   688   0.180E+00 0.101E-03
CGA:   6    -0.485156100005E+03   -0.48047E-01   -0.48066E-01   688   0.773E-01 0.128E-03
CGA:   7    -0.485179216637E+03   -0.23117E-01   -0.23116E-01   688   0.329E-01 0.475E-05
CGA:   8    -0.485189437060E+03   -0.10220E-01   -0.10220E-01   688   0.108E-01 0.608E-05
CGA:   9    -0.485192778257E+03   -0.33412E-02   -0.33412E-02   688   0.325E-02-0.417E-05
CGA:  10    -0.485193799178E+03   -0.10209E-02   -0.10209E-02   688   0.109E-02 0.488E-05
CGA:  11    -0.485194182107E+03   -0.38293E-03   -0.38303E-03   688   0.439E-03-0.253E-05
CGA:  12    -0.485194357222E+03   -0.17512E-03   -0.17527E-03   688   0.189E-03-0.179E-05
CGA:  13    -0.485194431308E+03   -0.74085E-04   -0.74085E-04   688   0.691E-04 0.138E-07
  35 F= -.48867817E+03 E0= -.48867817E+03  d E =-.170728E+00  mag=     0.0000
       N       E                     dE             d eps       ncg     rms          ort
SDA:   1    -0.484352701366E+03    0.84166E+00    0.00000E+00   688   0.200E+01 0.000E+00
CGA:   2    -0.484992573125E+03   -0.63987E+00   -0.63987E+00   688   0.657E+00-0.595E-03
CGA:   3    -0.485155254911E+03   -0.16268E+00   -0.16275E+00   688   0.132E+00 0.172E-03
CGA:   4    -0.485187149395E+03   -0.31894E-01   -0.31897E-01   688   0.287E-01 0.150E-04
CGA:   5    -0.485194688845E+03   -0.75395E-02   -0.75398E-02   688   0.924E-02 0.973E-05
CGA:   6    -0.485197483836E+03   -0.27950E-02   -0.27950E-02   688   0.394E-02 0.208E-05
CGA:   7    -0.485198708129E+03   -0.12243E-02   -0.12243E-02   688   0.180E-02 0.243E-05
CGA:   8    -0.485199222340E+03   -0.51421E-03   -0.51426E-03   688   0.599E-03 0.169E-05
CGA:   9    -0.485199400779E+03   -0.17844E-03   -0.17846E-03   688   0.170E-03 0.151E-05
CGA:  10    -0.485199456756E+03   -0.55977E-04   -0.55978E-04   688   0.544E-04-0.648E-07
  36 F= -.48868189E+03 E0= -.48868189E+03  d E =-.174450E+00  mag=    -0.0000
       N       E                     dE             d eps       ncg     rms          ort
SDA:   1    -0.484975179017E+03    0.22422E+00    0.00000E+00   688   0.740E+00 0.000E+00
CGA:   2    -0.485229450828E+03   -0.25427E+00   -0.25425E+00   688   0.270E+00 0.469E-03
CGA:   3    -0.485291803745E+03   -0.62353E-01   -0.62330E-01   688   0.555E-01-0.242E-04
CGA:   4    -0.485303679780E+03   -0.11876E-01   -0.11877E-01   688   0.133E-01-0.660E-05
CGA:   5    -0.485306793834E+03   -0.31141E-02   -0.31139E-02   688   0.375E-02-0.337E-05
CGA:   6    -0.485307873505E+03   -0.10797E-02   -0.10797E-02   688   0.151E-02 0.234E-05
CGA:   7    -0.485308381395E+03   -0.50789E-03   -0.50785E-03   688   0.685E-03 0.113E-05
CGA:   8    -0.485308608326E+03   -0.22693E-03   -0.22693E-03   688   0.259E-03 0.988E-07
CGA:   9    -0.485308689852E+03   -0.81526E-04   -0.81527E-04   688   0.785E-04-0.120E-06
  37 F= -.48879082E+03 E0= -.48879082E+03  d E =-.108932E+00  mag=    -0.0000
       N       E                     dE             d eps       ncg     rms          ort
SDA:   1    -0.484022781366E+03    0.12858E+01    0.00000E+00   688   0.305E+01 0.000E+00
CGA:   2    -0.485067936672E+03   -0.10452E+01   -0.10449E+01   688   0.111E+01 0.443E-02
CGA:   3    -0.485324949162E+03   -0.25701E+00   -0.25684E+00   688   0.232E+00-0.283E-03
CGA:   4    -0.485373905947E+03   -0.48957E-01   -0.48972E-01   688   0.563E-01-0.207E-06
CGA:   5    -0.485386909483E+03   -0.13004E-01   -0.13004E-01   688   0.159E-01-0.220E-05
CGA:   6    -0.485391460808E+03   -0.45513E-02   -0.45513E-02   688   0.635E-02 0.320E-05
CGA:   7    -0.485393604820E+03   -0.21440E-02   -0.21438E-02   688   0.287E-02 0.441E-05
CGA:   8    -0.485394568066E+03   -0.96325E-03   -0.96325E-03   688   0.109E-02-0.155E-06
CGA:   9    -0.485394913519E+03   -0.34545E-03   -0.34545E-03   688   0.328E-03 0.198E-06
CGA:  10    -0.485395021985E+03   -0.10847E-03   -0.10846E-03   688   0.107E-03 0.204E-06
CGA:  11    -0.485395061199E+03   -0.39214E-04   -0.39197E-04   688   0.421E-04 0.263E-06
  38 F= -.48887641E+03 E0= -.48887641E+03  d E =-.194516E+00  mag=     0.0000
       N       E                     dE             d eps       ncg     rms          ort
SDA:   1    -0.485317428137E+03    0.77594E-01    0.00000E+00   688   0.304E+00 0.000E+00
CGA:   2    -0.485423671073E+03   -0.10624E+00   -0.10624E+00   688   0.113E+00-0.362E-04
CGA:   3    -0.485449253633E+03   -0.25583E-01   -0.25586E-01   688   0.227E-01-0.342E-05
CGA:   4    -0.485454136476E+03   -0.48828E-02   -0.48827E-02   688   0.547E-02 0.303E-05
CGA:   5    -0.485455425371E+03   -0.12889E-02   -0.12891E-02   688   0.158E-02 0.326E-05
CGA:   6    -0.485455876509E+03   -0.45114E-03   -0.45117E-03   688   0.610E-03 0.198E-05
CGA:   7    -0.485456082926E+03   -0.20642E-03   -0.20638E-03   688   0.267E-03 0.934E-06
CGA:   8    -0.485456170845E+03   -0.87919E-04   -0.87942E-04   688   0.986E-04-0.819E-06
  39 F= -.48893746E+03 E0= -.48893746E+03  d E =-.610519E-01  mag=     0.0000
       N       E                     dE             d eps       ncg     rms          ort
SDA:   1    -0.484314106310E+03    0.11420E+01    0.00000E+00   688   0.274E+01 0.000E+00
CGA:   2    -0.485271413755E+03   -0.95731E+00   -0.95736E+00   688   0.102E+01-0.840E-03
CGA:   3    -0.485501507447E+03   -0.23009E+00   -0.23022E+00   688   0.202E+00 0.213E-03
CGA:   4    -0.485545509004E+03   -0.44002E-01   -0.43993E-01   688   0.478E-01 0.469E-05
CGA:   5    -0.485556951754E+03   -0.11443E-01   -0.11444E-01   688   0.142E-01 0.162E-04
CGA:   6    -0.485561001433E+03   -0.40497E-02   -0.40498E-02   688   0.569E-02 0.637E-05
CGA:   7    -0.485562858345E+03   -0.18569E-02   -0.18568E-02   688   0.252E-02 0.462E-05
CGA:   8    -0.485563655246E+03   -0.79690E-03   -0.79695E-03   688   0.941E-03-0.230E-05
CGA:   9    -0.485563939280E+03   -0.28403E-03   -0.28403E-03   688   0.283E-03 0.259E-06
CGA:  10    -0.485564030600E+03   -0.91321E-04   -0.91314E-04   688   0.912E-04 0.258E-06
  40 F= -.48904504E+03 E0= -.48904504E+03  d E =-.168634E+00  mag=     0.0000
       N       E                     dE             d eps       ncg     rms          ort
SDA:   1    -0.485297482857E+03    0.26646E+00    0.00000E+00   688   0.612E+00 0.000E+00
CGA:   2    -0.485511902542E+03   -0.21442E+00   -0.21443E+00   688   0.226E+00-0.103E-03
CGA:   3    -0.485563073501E+03   -0.51171E-01   -0.51181E-01   688   0.450E-01 0.659E-05
CGA:   4    -0.485572842776E+03   -0.97693E-02   -0.97687E-02   688   0.107E-01 0.441E-05
CGA:   5    -0.485575411584E+03   -0.25688E-02   -0.25691E-02   688   0.305E-02 0.459E-05
CGA:   6    -0.485576311225E+03   -0.89964E-03   -0.89964E-03   688   0.121E-02 0.318E-05
CGA:   7    -0.485576723411E+03   -0.41219E-03   -0.41215E-03   688   0.529E-03 0.827E-06
CGA:   8    -0.485576896856E+03   -0.17345E-03   -0.17348E-03   688   0.195E-03-0.968E-06
CGA:   9    -0.485576956460E+03   -0.59603E-04   -0.59604E-04   688   0.606E-04-0.135E-06
  41 F= -.48905778E+03 E0= -.48905778E+03  d E =-.181374E+00  mag=     0.0000
       N       E                     dE             d eps       ncg     rms          ort
SDA:   1    -0.485416659436E+03    0.16024E+00    0.00000E+00   688   0.508E+00 0.000E+00
CGA:   2    -0.485595120462E+03   -0.17846E+00   -0.17846E+00   688   0.172E+00-0.270E-04
CGA:   3    -0.485635437071E+03   -0.40317E-01   -0.40317E-01   688   0.340E-01 0.112E-04
CGA:   4    -0.485643374608E+03   -0.79375E-02   -0.79375E-02   688   0.758E-02-0.114E-05
CGA:   5    -0.485645281826E+03   -0.19072E-02   -0.19073E-02   688   0.259E-02 0.216E-05
CGA:   6    -0.485646001956E+03   -0.72013E-03   -0.72013E-03   688   0.115E-02-0.487E-06
CGA:   7    -0.485646343915E+03   -0.34196E-03   -0.34195E-03   688   0.522E-03 0.191E-05
CGA:   8    -0.485646502373E+03   -0.15846E-03   -0.15846E-03   688   0.182E-03 0.112E-06
CGA:   9    -0.485646558817E+03   -0.56443E-04   -0.56450E-04   688   0.545E-04-0.392E-06
  42 F= -.48912775E+03 E0= -.48912775E+03  d E =-.699690E-01  mag=     0.0000
       N       E                     dE             d eps       ncg     rms          ort
SDA:   1    -0.483704664744E+03    0.19418E+01    0.00000E+00   688   0.457E+01 0.000E+00
CGA:   2    -0.485311846745E+03   -0.16072E+01   -0.16072E+01   688   0.155E+01-0.977E-04
CGA:   3    -0.485673751309E+03   -0.36190E+00   -0.36193E+00   688   0.309E+00 0.307E-03
CGA:   4    -0.485745340744E+03   -0.71589E-01   -0.71593E-01   688   0.705E-01 0.223E-04
CGA:   5    -0.485762649934E+03   -0.17309E-01   -0.17309E-01   688   0.244E-01 0.117E-04
CGA:   6    -0.485769320575E+03   -0.66706E-02   -0.66708E-02   688   0.104E-01 0.404E-06
CGA:   7    -0.485772543339E+03   -0.32228E-02   -0.32226E-02   688   0.454E-02 0.971E-05
CGA:   8    -0.485773981336E+03   -0.14380E-02   -0.14380E-02   688   0.158E-02 0.431E-06
CGA:   9    -0.485774470459E+03   -0.48912E-03   -0.48914E-03   688   0.479E-03-0.802E-06
CGA:  10    -0.485774626174E+03   -0.15572E-03   -0.15566E-03   688   0.163E-03 0.157E-05
CGA:  11    -0.485774687637E+03   -0.61463E-04   -0.61541E-04   688   0.692E-04-0.939E-06
  43 F= -.48925685E+03 E0= -.48925685E+03  d E =-.199066E+00  mag=     0.0000
       N       E                     dE             d eps       ncg     rms          ort
SDA:   1    -0.477382109076E+03    0.83925E+01    0.00000E+00   688   0.183E+02 0.000E+00
CGA:   2    -0.483808871990E+03   -0.64268E+01   -0.64271E+01   688   0.623E+01-0.288E-02
CGA:   3    -0.485252280889E+03   -0.14434E+01   -0.14441E+01   688   0.127E+01 0.362E-02
CGA:   4    -0.485539931643E+03   -0.28765E+00   -0.28772E+00   688   0.304E+00 0.301E-03
CGA:   5    -0.485610780481E+03   -0.70849E-01   -0.70818E-01   688   0.106E+00-0.483E-04
CGA:   6    -0.485638886752E+03   -0.28106E-01   -0.28111E-01   688   0.434E-01 0.541E-04
CGA:   7    -0.485652575713E+03   -0.13689E-01   -0.13689E-01   688   0.186E-01 0.162E-04
CGA:   8    -0.485658582758E+03   -0.60070E-02   -0.60068E-02   688   0.659E-02 0.799E-05
CGA:   9    -0.485660608565E+03   -0.20258E-02   -0.20258E-02   688   0.206E-02-0.312E-05
CGA:  10    -0.485661262489E+03   -0.65392E-03   -0.65386E-03   688   0.687E-03 0.323E-05
CGA:  11    -0.485661518132E+03   -0.25564E-03   -0.25579E-03   688   0.286E-03-0.206E-05
CGA:  12    -0.485661631705E+03   -0.11357E-03   -0.11371E-03   688   0.121E-03-0.144E-05
CGA:  13    -0.485661676431E+03   -0.44725E-04   -0.44751E-04   688   0.440E-04-0.382E-06
  44 F= -.48914515E+03 E0= -.48914515E+03  d E =-.873729E-01  mag=     0.0000
       N       E                     dE             d eps       ncg     rms          ort
SDA:   1    -0.481430196144E+03    0.42314E+01    0.00000E+00   688   0.968E+01 0.000E+00
CGA:   2    -0.484801711720E+03   -0.33715E+01   -0.33713E+01   688   0.331E+01 0.210E-02
CGA:   3    -0.485578340384E+03   -0.77663E+00   -0.77698E+00   688   0.657E+00 0.454E-03
CGA:   4    -0.485730573558E+03   -0.15223E+00   -0.15224E+00   688   0.151E+00 0.589E-05
CGA:   5    -0.485767760001E+03   -0.37186E-01   -0.37182E-01   688   0.513E-01 0.938E-05
CGA:   6    -0.485781866604E+03   -0.14107E-01   -0.14107E-01   688   0.217E-01 0.338E-05
CGA:   7    -0.485788600178E+03   -0.67336E-02   -0.67335E-02   688   0.944E-02 0.872E-05
CGA:   8    -0.485791577468E+03   -0.29773E-02   -0.29772E-02   688   0.326E-02 0.296E-05
CGA:   9    -0.485792588457E+03   -0.10110E-02   -0.10110E-02   688   0.996E-03 0.141E-05
CGA:  10    -0.485792911019E+03   -0.32256E-03   -0.32255E-03   688   0.338E-03 0.703E-06
CGA:  11    -0.485793037239E+03   -0.12622E-03   -0.12632E-03   688   0.140E-03-0.144E-05
CGA:  12    -0.485793092829E+03   -0.55590E-04   -0.55566E-04   688   0.567E-04 0.273E-06
  45 F= -.48927570E+03 E0= -.48927570E+03  d E =-.217917E+00  mag=     0.0000
       N       E                     dE             d eps       ncg     rms          ort
SDA:   1    -0.485151355108E+03    0.64168E+00    0.00000E+00   688   0.162E+01 0.000E+00
CGA:   2    -0.485716575635E+03   -0.56522E+00   -0.56522E+00   688   0.531E+00 0.540E-04
CGA:   3    -0.485841076185E+03   -0.12450E+00   -0.12453E+00   688   0.105E+00 0.816E-04
CGA:   4    -0.485865882421E+03   -0.24806E-01   -0.24805E-01   688   0.231E-01 0.174E-05
CGA:   5    -0.485871785482E+03   -0.59031E-02   -0.59032E-02   688   0.774E-02 0.465E-05
CGA:   6    -0.485873958171E+03   -0.21727E-02   -0.21726E-02   688   0.340E-02-0.345E-05
CGA:   7    -0.485874980080E+03   -0.10219E-02   -0.10219E-02   688   0.149E-02 0.631E-05
CGA:   8    -0.485875442775E+03   -0.46269E-03   -0.46270E-03   688   0.500E-03-0.913E-06
CGA:   9    -0.485875597565E+03   -0.15479E-03   -0.15479E-03   688   0.147E-03-0.784E-06
CGA:  10    -0.485875644448E+03   -0.46883E-04   -0.46870E-04   688   0.500E-04 0.888E-06
  46 F= -.48935908E+03 E0= -.48935908E+03  d E =-.833852E-01  mag=     0.0000
       N       E                     dE             d eps       ncg     rms          ort
SDA:   1    -0.484102479943E+03    0.17731E+01    0.00000E+00   688   0.409E+01 0.000E+00
CGA:   2    -0.485525124709E+03   -0.14226E+01   -0.14226E+01   688   0.134E+01 0.253E-03
CGA:   3    -0.485838263367E+03   -0.31314E+00   -0.31325E+00   688   0.265E+00 0.387E-03
CGA:   4    -0.485900665254E+03   -0.62402E-01   -0.62398E-01   688   0.584E-01 0.454E-05
CGA:   5    -0.485915482894E+03   -0.14818E-01   -0.14818E-01   688   0.196E-01 0.916E-05
CGA:   6    -0.485920960165E+03   -0.54773E-02   -0.54773E-02   688   0.860E-02-0.278E-05
CGA:   7    -0.485923563075E+03   -0.26029E-02   -0.26029E-02   688   0.382E-02 0.106E-04
CGA:   8    -0.485924748709E+03   -0.11856E-02   -0.11856E-02   688   0.130E-02-0.991E-06
CGA:   9    -0.485925150860E+03   -0.40215E-03   -0.40216E-03   688   0.387E-03-0.958E-06
CGA:  10    -0.485925275198E+03   -0.12434E-03   -0.12431E-03   688   0.133E-03 0.132E-05
CGA:  11    -0.485925324768E+03   -0.49570E-04   -0.49655E-04   688   0.574E-04-0.124E-05
  47 F= -.48941001E+03 E0= -.48941001E+03  d E =-.134314E+00  mag=     0.0000
       N       E                     dE             d eps       ncg     rms          ort
SDA:   1    -0.485248116106E+03    0.67716E+00    0.00000E+00   688   0.174E+01 0.000E+00
CGA:   2    -0.485842411576E+03   -0.59430E+00   -0.59428E+00   688   0.545E+00 0.235E-03
CGA:   3    -0.485971217215E+03   -0.12881E+00   -0.12881E+00   688   0.110E+00 0.519E-04
CGA:   4    -0.485996847927E+03   -0.25631E-01   -0.25630E-01   688   0.238E-01 0.534E-05
CGA:   5    -0.486002762125E+03   -0.59142E-02   -0.59143E-02   688   0.765E-02 0.457E-05
CGA:   6    -0.486004837725E+03   -0.20756E-02   -0.20756E-02   688   0.337E-02-0.328E-05
CGA:   7    -0.486005831927E+03   -0.99420E-03   -0.99423E-03   688   0.149E-02 0.607E-05
CGA:   8    -0.486006305426E+03   -0.47350E-03   -0.47350E-03   688   0.501E-03-0.309E-06
CGA:   9    -0.486006463537E+03   -0.15811E-03   -0.15812E-03   688   0.147E-03-0.702E-06
CGA:  10    -0.486006509841E+03   -0.46304E-04   -0.46291E-04   688   0.493E-04 0.105E-05
  48 F= -.48949208E+03 E0= -.48949208E+03  d E =-.820635E-01  mag=     0.0000
       N       E                     dE             d eps       ncg     rms          ort
SDA:   1    -0.479287758666E+03    0.67187E+01    0.00000E+00   688   0.156E+02 0.000E+00
CGA:   2    -0.484630509846E+03   -0.53428E+01   -0.53425E+01   688   0.493E+01 0.391E-02
CGA:   3    -0.485789618467E+03   -0.11591E+01   -0.11598E+01   688   0.101E+01 0.310E-02
CGA:   4    -0.486021851992E+03   -0.23223E+00   -0.23224E+00   688   0.232E+00 0.167E-03
CGA:   5    -0.486076177086E+03   -0.54325E-01   -0.54311E-01   688   0.772E-01 0.368E-05
CGA:   6    -0.486096271929E+03   -0.20095E-01   -0.20099E-01   688   0.317E-01 0.306E-04
CGA:   7    -0.486106041082E+03   -0.97692E-02   -0.97690E-02   688   0.137E-01 0.184E-04
CGA:   8    -0.486110489113E+03   -0.44480E-02   -0.44478E-02   688   0.473E-02 0.648E-05
CGA:   9    -0.486111953087E+03   -0.14640E-02   -0.14640E-02   688   0.143E-02-0.213E-05
CGA:  10    -0.486112394367E+03   -0.44128E-03   -0.44124E-03   688   0.468E-03 0.363E-05
CGA:  11    -0.486112561003E+03   -0.16664E-03   -0.16673E-03   688   0.185E-03-0.167E-05
CGA:  12    -0.486112635402E+03   -0.74399E-04   -0.74464E-04   688   0.779E-04-0.635E-06
  49 F= -.48960065E+03 E0= -.48960065E+03  d E =-.190637E+00  mag=    -0.0000
       N       E                     dE             d eps       ncg     rms          ort
SDA:   1    -0.484970318781E+03    0.11422E+01    0.00000E+00   688   0.281E+01 0.000E+00
CGA:   2    -0.485933382112E+03   -0.96306E+00   -0.96301E+00   688   0.906E+00 0.997E-03
CGA:   3    -0.486144364524E+03   -0.21098E+00   -0.21098E+00   688   0.178E+00 0.921E-04
CGA:   4    -0.486185281876E+03   -0.40917E-01   -0.40917E-01   688   0.401E-01 0.304E-05
CGA:   5    -0.486195024428E+03   -0.97426E-02   -0.97425E-02   688   0.126E-01 0.424E-05
CGA:   6    -0.486198478870E+03   -0.34544E-02   -0.34543E-02   688   0.511E-02-0.665E-05
CGA:   7    -0.486200078122E+03   -0.15993E-02   -0.15992E-02   688   0.225E-02 0.740E-05
CGA:   8    -0.486200792836E+03   -0.71471E-03   -0.71471E-03   688   0.784E-03 0.141E-06
CGA:   9    -0.486201036868E+03   -0.24403E-03   -0.24403E-03   688   0.225E-03 0.509E-07
CGA:  10    -0.486201110534E+03   -0.73666E-04   -0.73642E-04   688   0.726E-04 0.956E-06
  50 F= -.48969012E+03 E0= -.48969012E+03  d E =-.894685E-01  mag=    -0.0000
       N       E                     dE             d eps       ncg     rms          ort
SDA:   1    -0.480968901981E+03    0.52321E+01    0.00000E+00   688   0.121E+02 0.000E+00
CGA:   2    -0.485114957901E+03   -0.41461E+01   -0.41456E+01   688   0.392E+01 0.766E-02
CGA:   3    -0.486024947476E+03   -0.90999E+00   -0.91024E+00   688   0.779E+00 0.146E-02
CGA:   4    -0.486201820838E+03   -0.17687E+00   -0.17689E+00   688   0.184E+00 0.904E-04
CGA:   5    -0.486244419601E+03   -0.42599E-01   -0.42592E-01   688   0.595E-01 0.798E-05
CGA:   6    -0.486260064760E+03   -0.15645E-01   -0.15646E-01   688   0.235E-01 0.465E-06
CGA:   7    -0.486267432734E+03   -0.73680E-02   -0.73678E-02   688   0.101E-01 0.136E-04
CGA:   8    -0.486270710605E+03   -0.32779E-02   -0.32777E-02   688   0.361E-02 0.701E-05
CGA:   9    -0.486271824257E+03   -0.11137E-02   -0.11137E-02   688   0.108E-02-0.118E-05
CGA:  10    -0.486272165668E+03   -0.34141E-03   -0.34136E-03   688   0.346E-03 0.269E-05
CGA:  11    -0.486272291425E+03   -0.12576E-03   -0.12575E-03   688   0.139E-03 0.818E-07
CGA:  12    -0.486272347247E+03   -0.55822E-04   -0.55822E-04   688   0.597E-04 0.282E-08
  51 F= -.48976326E+03 E0= -.48976326E+03  d E =-.162614E+00  mag=    -0.0000
       N       E                     dE             d eps       ncg     rms          ort
SDA:   1    -0.485202468574E+03    0.10698E+01    0.00000E+00   688   0.259E+01 0.000E+00
CGA:   2    -0.486086647782E+03   -0.88418E+00   -0.88417E+00   688   0.860E+00 0.206E-03
CGA:   3    -0.486283725661E+03   -0.19708E+00   -0.19714E+00   688   0.169E+00 0.121E-03
CGA:   4    -0.486322373144E+03   -0.38647E-01   -0.38644E-01   688   0.389E-01 0.903E-05
CGA:   5    -0.486331637094E+03   -0.92639E-02   -0.92645E-02   688   0.119E-01 0.995E-05
CGA:   6    -0.486334926687E+03   -0.32896E-02   -0.32895E-02   688   0.465E-02-0.431E-05
CGA:   7    -0.486336410095E+03   -0.14834E-02   -0.14833E-02   688   0.207E-02 0.637E-05
CGA:   8    -0.486337065265E+03   -0.65517E-03   -0.65518E-03   688   0.748E-03-0.836E-06
CGA:   9    -0.486337294550E+03   -0.22929E-03   -0.22928E-03   688   0.215E-03 0.540E-06
CGA:  10    -0.486337365296E+03   -0.70746E-04   -0.70737E-04   688   0.692E-04 0.346E-06
  52 F= -.48982922E+03 E0= -.48982922E+03  d E =-.659604E-01  mag=    -0.0000
       N       E                     dE             d eps       ncg     rms          ort
SDA:   1    -0.484835388227E+03    0.15019E+01    0.00000E+00   688   0.347E+01 0.000E+00
CGA:   2    -0.486022218262E+03   -0.11868E+01   -0.11868E+01   688   0.115E+01 0.248E-03
CGA:   3    -0.486286506157E+03   -0.26429E+00   -0.26438E+00   688   0.227E+00 0.223E-03
CGA:   4    -0.486338365856E+03   -0.51860E-01   -0.51854E-01   688   0.522E-01 0.842E-05
CGA:   5    -0.486350830662E+03   -0.12465E-01   -0.12465E-01   688   0.158E-01 0.119E-04
CGA:   6    -0.486355241279E+03   -0.44106E-02   -0.44106E-02   688   0.631E-02-0.410E-05
CGA:   7    -0.486357219932E+03   -0.19787E-02   -0.19785E-02   688   0.289E-02 0.711E-05
CGA:   8    -0.486358105027E+03   -0.88510E-03   -0.88510E-03   688   0.108E-02-0.419E-06
CGA:   9    -0.486358428066E+03   -0.32304E-03   -0.32304E-03   688   0.312E-03 0.267E-06
CGA:  10    -0.486358528926E+03   -0.10086E-03   -0.10084E-03   688   0.100E-03 0.744E-06
CGA:  11    -0.486358565722E+03   -0.36796E-04   -0.36844E-04   688   0.415E-04-0.707E-06
  53 F= -.48985148E+03 E0= -.48985148E+03  d E =-.882172E-01  mag=    -0.0000
       N       E                     dE             d eps       ncg     rms          ort
SDA:   1    -0.485722112966E+03    0.63642E+00    0.00000E+00   688   0.156E+01 0.000E+00
CGA:   2    -0.486259017757E+03   -0.53690E+00   -0.53687E+00   688   0.499E+00 0.471E-03
CGA:   3    -0.486375987083E+03   -0.11697E+00   -0.11698E+00   688   0.969E-01 0.412E-04
CGA:   4    -0.486398962999E+03   -0.22976E-01   -0.22975E-01   688   0.211E-01-0.144E-05
CGA:   5    -0.486404193045E+03   -0.52300E-02   -0.52302E-02   688   0.681E-02 0.465E-05
CGA:   6    -0.486406030726E+03   -0.18377E-02   -0.18376E-02   688   0.298E-02-0.328E-05
CGA:   7    -0.486406906290E+03   -0.87556E-03   -0.87558E-03   688   0.133E-02 0.511E-05
CGA:   8    -0.486407332069E+03   -0.42578E-03   -0.42578E-03   688   0.452E-03 0.842E-07
CGA:   9    -0.486407475132E+03   -0.14306E-03   -0.14307E-03   688   0.136E-03-0.590E-06
CGA:  10    -0.486407517891E+03   -0.42759E-04   -0.42742E-04   688   0.456E-04 0.120E-05
  54 F= -.48990089E+03 E0= -.48990089E+03  d E =-.494111E-01  mag=    -0.0000
       N       E                     dE             d eps       ncg     rms          ort
SDA:   1    -0.482858304942E+03    0.35492E+01    0.00000E+00   688   0.820E+01 0.000E+00
CGA:   2    -0.485672862731E+03   -0.28146E+01   -0.28142E+01   688   0.262E+01 0.445E-02
CGA:   3    -0.486285745771E+03   -0.61288E+00   -0.61314E+00   688   0.513E+00 0.907E-03
CGA:   4    -0.486406512495E+03   -0.12077E+00   -0.12076E+00   688   0.117E+00 0.204E-05
CGA:   5    -0.486434209353E+03   -0.27697E-01   -0.27693E-01   688   0.386E-01 0.878E-05
CGA:   6    -0.486444321986E+03   -0.10113E-01   -0.10114E-01   688   0.161E-01 0.228E-05
CGA:   7    -0.486449218858E+03   -0.48969E-02   -0.48968E-02   688   0.704E-02 0.128E-04
CGA:   8    -0.486451515893E+03   -0.22970E-02   -0.22969E-02   688   0.244E-02 0.297E-05
CGA:   9    -0.486452275441E+03   -0.75955E-03   -0.75957E-03   688   0.752E-03-0.136E-05
CGA:  10    -0.486452507953E+03   -0.23251E-03   -0.23247E-03   688   0.248E-03 0.302E-05
CGA:  11    -0.486452596841E+03   -0.88888E-04   -0.88934E-04   688   0.100E-03-0.770E-06
  55 F= -.48994693E+03 E0= -.48994693E+03  d E =-.954527E-01  mag=    -0.0000
       N       E                     dE             d eps       ncg     rms          ort
SDA:   1    -0.486147336771E+03    0.30517E+00    0.00000E+00   688   0.772E+00 0.000E+00
CGA:   2    -0.486408854324E+03   -0.26152E+00   -0.26150E+00   688   0.256E+00 0.261E-03
CGA:   3    -0.486468268727E+03   -0.59414E-01   -0.59405E-01   688   0.534E-01-0.825E-05
CGA:   4    -0.486479975117E+03   -0.11706E-01   -0.11706E-01   688   0.123E-01-0.112E-04
CGA:   5    -0.486482843505E+03   -0.28684E-02   -0.28684E-02   688   0.367E-02 0.337E-06
CGA:   6    -0.486483843150E+03   -0.99964E-03   -0.99963E-03   688   0.150E-02-0.949E-06
CGA:   7    -0.486484304857E+03   -0.46171E-03   -0.46167E-03   688   0.697E-03 0.273E-05
CGA:   8    -0.486484524293E+03   -0.21944E-03   -0.21946E-03   688   0.259E-03-0.135E-05
CGA:   9    -0.486484604784E+03   -0.80491E-04   -0.80490E-04   688   0.772E-04 0.608E-07
  56 F= -.48997832E+03 E0= -.48997832E+03  d E =-.313879E-01  mag=    -0.0000
       N       E                     dE             d eps       ncg     rms          ort
SDA:   1    -0.486118543164E+03    0.36598E+00    0.00000E+00   688   0.865E+00 0.000E+00
CGA:   2    -0.486411521918E+03   -0.29298E+00   -0.29295E+00   688   0.287E+00 0.334E-03
CGA:   3    -0.486478059329E+03   -0.66537E-01   -0.66527E-01   688   0.600E-01-0.140E-04
CGA:   4    -0.486491150773E+03   -0.13091E-01   -0.13091E-01   688   0.141E-01-0.131E-04
CGA:   5    -0.486494369849E+03   -0.32191E-02   -0.32191E-02   688   0.425E-02 0.133E-05
CGA:   6    -0.486495536003E+03   -0.11662E-02   -0.11661E-02   688   0.169E-02-0.157E-05
CGA:   7    -0.486496072704E+03   -0.53670E-03   -0.53661E-03   688   0.776E-03 0.321E-05
CGA:   8    -0.486496321276E+03   -0.24857E-03   -0.24862E-03   688   0.290E-03-0.165E-05
CGA:   9    -0.486496411302E+03   -0.90025E-04   -0.90022E-04   688   0.863E-04 0.192E-06
  57 F= -.48998944E+03 E0= -.48998944E+03  d E =-.425069E-01  mag=    -0.0000
       N       E                     dE             d eps       ncg     rms          ort
SDA:   1    -0.486273618244E+03    0.22270E+00    0.00000E+00   688   0.568E+00 0.000E+00
CGA:   2    -0.486462498855E+03   -0.18888E+00   -0.18888E+00   688   0.192E+00-0.454E-04
CGA:   3    -0.486506956021E+03   -0.44457E-01   -0.44462E-01   688   0.404E-01 0.101E-04
CGA:   4    -0.486515764042E+03   -0.88080E-02   -0.88071E-02   688   0.940E-02-0.272E-05
CGA:   5    -0.486517903590E+03   -0.21395E-02   -0.21399E-02   688   0.271E-02 0.666E-05
CGA:   6    -0.486518649933E+03   -0.74634E-03   -0.74634E-03   688   0.108E-02-0.261E-06
CGA:   7    -0.486518987566E+03   -0.33763E-03   -0.33756E-03   688   0.501E-03 0.294E-05
CGA:   8    -0.486519147197E+03   -0.15963E-03   -0.15970E-03   688   0.192E-03-0.218E-05
CGA:   9    -0.486519206532E+03   -0.59335E-04   -0.59337E-04   688   0.584E-04-0.127E-06
  58 F= -.49001180E+03 E0= -.49001180E+03  d E =-.223662E-01  mag=     0.0000
       N       E                     dE             d eps       ncg     rms          ort
SDA:   1    -0.486301407610E+03    0.21774E+00    0.00000E+00   688   0.521E+00 0.000E+00
CGA:   2    -0.486474924111E+03   -0.17352E+00   -0.17352E+00   688   0.176E+00-0.380E-04
CGA:   3    -0.486515636413E+03   -0.40712E-01   -0.40715E-01   688   0.368E-01 0.796E-05
CGA:   4    -0.486523676148E+03   -0.80397E-02   -0.80390E-02   688   0.861E-02-0.295E-05
CGA:   5    -0.486525616671E+03   -0.19405E-02   -0.19409E-02   688   0.253E-02 0.641E-05
CGA:   6    -0.486526302302E+03   -0.68563E-03   -0.68563E-03   688   0.100E-02-0.214E-06
CGA:   7    -0.486526614364E+03   -0.31206E-03   -0.31199E-03   688   0.463E-03 0.252E-05
CGA:   8    -0.486526761108E+03   -0.14674E-03   -0.14680E-03   688   0.181E-03-0.176E-05
CGA:   9    -0.486526816040E+03   -0.54932E-04   -0.54940E-04   688   0.557E-04-0.403E-06
  59 F= -.49001898E+03 E0= -.49001898E+03  d E =-.295439E-01  mag=     0.0000
       N       E                     dE             d eps       ncg     rms          ort
SDA:   1    -0.486451744228E+03    0.75017E-01    0.00000E+00   688   0.203E+00 0.000E+00
CGA:   2    -0.486519480550E+03   -0.67736E-01   -0.67736E-01   688   0.672E-01-0.281E-05
CGA:   3    -0.486535493760E+03   -0.16013E-01   -0.16013E-01   688   0.130E-01 0.173E-06
CGA:   4    -0.486538540225E+03   -0.30465E-02   -0.30462E-02   688   0.300E-02-0.436E-05
CGA:   5    -0.486539229503E+03   -0.68928E-03   -0.68946E-03   688   0.101E-02 0.366E-05
CGA:   6    -0.486539491518E+03   -0.26201E-03   -0.26198E-03   688   0.429E-03-0.151E-05
CGA:   7    -0.486539623361E+03   -0.13184E-03   -0.13180E-03   688   0.187E-03 0.147E-05
CGA:   8    -0.486539685295E+03   -0.61934E-04   -0.61951E-04   688   0.705E-04-0.361E-06
  60 F= -.49003195E+03 E0= -.49003195E+03  d E =-.129645E-01  mag=     0.0000
       N       E                     dE             d eps       ncg     rms          ort
SDA:   1    -0.485764392196E+03    0.77523E+00    0.00000E+00   688   0.182E+01 0.000E+00
CGA:   2    -0.486373974419E+03   -0.60958E+00   -0.60955E+00   688   0.604E+00 0.340E-03
CGA:   3    -0.486517964531E+03   -0.14399E+00   -0.14399E+00   688   0.117E+00-0.102E-04
CGA:   4    -0.486545497774E+03   -0.27533E-01   -0.27532E-01   688   0.263E-01-0.144E-04
CGA:   5    -0.486551822506E+03   -0.63247E-02   -0.63250E-02   688   0.870E-02 0.103E-04
CGA:   6    -0.486554115815E+03   -0.22933E-02   -0.22933E-02   688   0.387E-02-0.327E-05
CGA:   7    -0.486555256792E+03   -0.11410E-02   -0.11409E-02   688   0.172E-02 0.553E-05
CGA:   8    -0.486555810709E+03   -0.55392E-03   -0.55397E-03   688   0.620E-03-0.135E-05
CGA:   9    -0.486555999317E+03   -0.18861E-03   -0.18865E-03   688   0.200E-03-0.184E-05
CGA:  10    -0.486556059787E+03   -0.60469E-04   -0.60434E-04   688   0.648E-04 0.190E-05
  61 F= -.49004857E+03 E0= -.49004857E+03  d E =-.295843E-01  mag=     0.0000
       N       E                     dE             d eps       ncg     rms          ort
SDA:   1    -0.486359998365E+03    0.19600E+00    0.00000E+00   688   0.489E+00 0.000E+00
CGA:   2    -0.486520298493E+03   -0.16030E+00   -0.16030E+00   688   0.166E+00-0.862E-05
CGA:   3    -0.486559409177E+03   -0.39111E-01   -0.39110E-01   688   0.336E-01-0.404E-05
CGA:   4    -0.486567048147E+03   -0.76390E-02   -0.76386E-02   688   0.767E-02-0.721E-05
CGA:   5    -0.486568868004E+03   -0.18199E-02   -0.18198E-02   688   0.230E-02-0.485E-06
CGA:   6    -0.486569531026E+03   -0.66302E-03   -0.66303E-03   688   0.892E-03-0.887E-06
CGA:   7    -0.486569829291E+03   -0.29827E-03   -0.29823E-03   688   0.395E-03 0.734E-06
CGA:   8    -0.486569958054E+03   -0.12876E-03   -0.12880E-03   688   0.142E-03-0.944E-06
CGA:   9    -0.486570001740E+03   -0.43686E-04   -0.43692E-04   688   0.432E-04-0.307E-06
  62 F= -.49006262E+03 E0= -.49006262E+03  d E =-.140522E-01  mag=     0.0000
       N       E                     dE             d eps       ncg     rms          ort
SDA:   1    -0.486270844985E+03    0.29911E+00    0.00000E+00   688   0.710E+00 0.000E+00
CGA:   2    -0.486503425782E+03   -0.23258E+00   -0.23258E+00   688   0.241E+00 0.101E-05
CGA:   3    -0.486560305730E+03   -0.56880E-01   -0.56879E-01   688   0.488E-01-0.299E-05
CGA:   4    -0.486571430540E+03   -0.11125E-01   -0.11124E-01   688   0.113E-01-0.943E-05
CGA:   5    -0.486574060609E+03   -0.26301E-02   -0.26301E-02   688   0.352E-02 0.101E-05
CGA:   6    -0.486575036862E+03   -0.97625E-03   -0.97624E-03   688   0.140E-02-0.237E-05
CGA:   7    -0.486575477416E+03   -0.44055E-03   -0.44050E-03   688   0.648E-03 0.183E-05
CGA:   8    -0.486575676244E+03   -0.19883E-03   -0.19886E-03   688   0.245E-03-0.144E-05
CGA:   9    -0.486575749515E+03   -0.73271E-04   -0.73278E-04   688   0.730E-04-0.453E-06
  63 F= -.49006849E+03 E0= -.49006849E+03  d E =-.199212E-01  mag=    -0.0000
       N       E                     dE             d eps       ncg     rms          ort
SDA:   1    -0.486499142758E+03    0.76533E-01    0.00000E+00   688   0.201E+00 0.000E+00
CGA:   2    -0.486565060537E+03   -0.65918E-01   -0.65918E-01   688   0.666E-01-0.723E-05
CGA:   3    -0.486580796022E+03   -0.15735E-01   -0.15735E-01   688   0.136E-01-0.593E-05
CGA:   4    -0.486583941325E+03   -0.31453E-02   -0.31452E-02   688   0.303E-02-0.133E-06
CGA:   5    -0.486584665518E+03   -0.72419E-03   -0.72428E-03   688   0.963E-03 0.179E-05
CGA:   6    -0.486584935374E+03   -0.26986E-03   -0.26985E-03   688   0.395E-03-0.848E-06
CGA:   7    -0.486585059276E+03   -0.12390E-03   -0.12388E-03   688   0.184E-03 0.761E-06
CGA:   8    -0.486585116084E+03   -0.56808E-04   -0.56834E-04   688   0.681E-04-0.107E-05
  64 F= -.49007805E+03 E0= -.49007805E+03  d E =-.956269E-02  mag=    -0.0000
       N       E                     dE             d eps       ncg     rms          ort
SDA:   1    -0.485825152079E+03    0.75991E+00    0.00000E+00   688   0.181E+01 0.000E+00
CGA:   2    -0.486418305413E+03   -0.59315E+00   -0.59316E+00   688   0.599E+00-0.145E-03
CGA:   3    -0.486559790855E+03   -0.14149E+00   -0.14150E+00   688   0.122E+00 0.581E-04
CGA:   4    -0.486588141980E+03   -0.28351E-01   -0.28349E-01   688   0.266E-01-0.347E-05
CGA:   5    -0.486594711623E+03   -0.65696E-02   -0.65699E-02   688   0.831E-02 0.624E-05
CGA:   6    -0.486597078500E+03   -0.23669E-02   -0.23669E-02   688   0.338E-02-0.948E-06
CGA:   7    -0.486598143934E+03   -0.10654E-02   -0.10654E-02   688   0.157E-02 0.207E-05
CGA:   8    -0.486598615330E+03   -0.47140E-03   -0.47144E-03   688   0.576E-03-0.258E-05
CGA:   9    -0.486598785435E+03   -0.17011E-03   -0.17011E-03   688   0.170E-03-0.402E-06
CGA:  10    -0.486598840088E+03   -0.54652E-04   -0.54629E-04   688   0.545E-04 0.628E-06
  65 F= -.49009235E+03 E0= -.49009235E+03  d E =-.238629E-01  mag=    -0.0000
       N       E                     dE             d eps       ncg     rms          ort
SDA:   1    -0.486525289046E+03    0.73496E-01    0.00000E+00   688   0.196E+00 0.000E+00
CGA:   2    -0.486590478278E+03   -0.65189E-01   -0.65188E-01   688   0.625E-01 0.159E-04
CGA:   3    -0.486605466279E+03   -0.14988E-01   -0.14988E-01   688   0.127E-01-0.576E-05
[...]
CGA:   9    -0.486686265126E+03   -0.12525E-03   -0.12525E-03   688   0.122E-03 0.300E-06
CGA:  10    -0.486686304621E+03   -0.39495E-04   -0.39475E-04   688   0.394E-04 0.590E-06
  74 F= -.49018426E+03 E0= -.49018426E+03  d E =-.161851E-01  mag=    -0.0000
       N       E                     dE             d eps       ncg     rms          ort
SDA:   1    -0.486523195024E+03    0.16307E+00    0.00000E+00   688   0.385E+00 0.000E+00
CGA:   2    -0.486654816367E+03   -0.13162E+00   -0.13162E+00   688   0.130E+00 0.170E-04
CGA:   3    -0.486684556149E+03   -0.29740E-01   -0.29740E-01   688   0.253E-01 0.632E-06
CGA:   4    -0.486690565108E+03   -0.60090E-02   -0.60090E-02   688   0.541E-02 0.284E-05
CGA:   5    -0.486691943791E+03   -0.13787E-02   -0.13787E-02   688   0.168E-02 0.115E-06
CGA:   6    -0.486692441130E+03   -0.49734E-03   -0.49733E-03   688   0.682E-03 0.124E-05
CGA:   7    -0.486692667543E+03   -0.22641E-03   -0.22642E-03   688   0.307E-03-0.118E-06
CGA:   8    -0.486692762027E+03   -0.94484E-04   -0.94491E-04   688   0.110E-03-0.436E-06
  75 F= -.49019081E+03 E0= -.49019081E+03  d E =-.654318E-02  mag=    -0.0000
       N       E                     dE             d eps       ncg     rms          ort
SDA:   1    -0.486679401565E+03    0.13266E-01    0.00000E+00   688   0.312E-01 0.000E+00
CGA:   2    -0.486690026662E+03   -0.10625E-01   -0.10625E-01   688   0.107E-01-0.150E-05
CGA:   3    -0.486692438189E+03   -0.24115E-02   -0.24115E-02   688   0.222E-02-0.924E-06
CGA:   4    -0.486692930511E+03   -0.49232E-03   -0.49238E-03   688   0.565E-03 0.818E-06
CGA:   5    -0.486693046997E+03   -0.11649E-03   -0.11648E-03   688   0.206E-03-0.874E-07
CGA:   6    -0.486693100679E+03   -0.53682E-04   -0.53686E-04   688   0.747E-04 0.171E-06
  76 F= -.49019117E+03 E0= -.49019117E+03  d E =-.690490E-02  mag=    -0.0000
       N       E                     dE             d eps       ncg     rms          ort
SDA:   1    -0.486574083664E+03    0.11896E+00    0.00000E+00   688   0.290E+00 0.000E+00
CGA:   2    -0.486672969805E+03   -0.98886E-01   -0.98883E-01   688   0.896E-01 0.271E-04
CGA:   3    -0.486693970144E+03   -0.21000E-01   -0.20999E-01   688   0.180E-01-0.483E-05
CGA:   4    -0.486698181689E+03   -0.42115E-02   -0.42115E-02   688   0.389E-02-0.406E-06
CGA:   5    -0.486699147034E+03   -0.96535E-03   -0.96538E-03   688   0.125E-02 0.983E-06
CGA:   6    -0.486699483542E+03   -0.33651E-03   -0.33651E-03   688   0.553E-03-0.215E-06
CGA:   7    -0.486699647418E+03   -0.16388E-03   -0.16387E-03   688   0.253E-03 0.464E-06
CGA:   8    -0.486699725246E+03   -0.77828E-04   -0.77850E-04   688   0.879E-04-0.872E-06
  77 F= -.49019762E+03 E0= -.49019762E+03  d E =-.645051E-02  mag=    -0.0000
       N       E                     dE             d eps       ncg     rms          ort
SDA:   1    -0.486161091934E+03    0.53856E+00    0.00000E+00   688   0.126E+01 0.000E+00
CGA:   2    -0.486589874174E+03   -0.42878E+00   -0.42875E+00   688   0.388E+00 0.351E-03
CGA:   3    -0.486680614602E+03   -0.90740E-01   -0.90732E-01   688   0.795E-01-0.359E-04
CGA:   4    -0.486698880847E+03   -0.18266E-01   -0.18266E-01   688   0.164E-01-0.297E-06
CGA:   5    -0.486703060256E+03   -0.41794E-02   -0.41795E-02   688   0.492E-02 0.411E-05
CGA:   6    -0.486704477195E+03   -0.14169E-02   -0.14169E-02   688   0.212E-02-0.132E-05
CGA:   7    -0.486705126360E+03   -0.64916E-03   -0.64911E-03   688   0.100E-02 0.220E-05
CGA:   8    -0.486705425028E+03   -0.29867E-03   -0.29871E-03   688   0.354E-03-0.239E-05
CGA:   9    -0.486705531316E+03   -0.10629E-03   -0.10629E-03   688   0.102E-03 0.232E-08
CGA:  10    -0.486705563802E+03   -0.32486E-04   -0.32461E-04   688   0.339E-04 0.768E-06
  78 F= -.49020307E+03 E0= -.49020307E+03  d E =-.119041E-01  mag=    -0.0000
       N       E                     dE             d eps       ncg     rms          ort
SDA:   1    -0.486470153428E+03    0.23538E+00    0.00000E+00   688   0.563E+00 0.000E+00
CGA:   2    -0.486657872292E+03   -0.18772E+00   -0.18771E+00   688   0.180E+00 0.955E-04
CGA:   3    -0.486700077020E+03   -0.42205E-01   -0.42201E-01   688   0.378E-01-0.455E-05
CGA:   4    -0.486708486814E+03   -0.84098E-02   -0.84097E-02   688   0.835E-02-0.318E-05
CGA:   5    -0.486710478666E+03   -0.19919E-02   -0.19918E-02   688   0.239E-02-0.842E-06
CGA:   6    -0.486711163567E+03   -0.68490E-03   -0.68490E-03   688   0.926E-03-0.155E-05
CGA:   7    -0.486711471537E+03   -0.30797E-03   -0.30793E-03   688   0.409E-03 0.737E-06
CGA:   8    -0.486711604982E+03   -0.13345E-03   -0.13349E-03   688   0.148E-03-0.110E-05
CGA:   9    -0.486711650427E+03   -0.45444E-04   -0.45440E-04   688   0.434E-04 0.212E-06
  79 F= -.49020894E+03 E0= -.49020894E+03  d E =-.586737E-02  mag=    -0.0000
       N       E                     dE             d eps       ncg     rms          ort
SDA:   1    -0.486698077366E+03    0.13528E-01    0.00000E+00   688   0.324E-01 0.000E+00
CGA:   2    -0.486708855869E+03   -0.10779E-01   -0.10779E-01   688   0.104E-01-0.651E-05
CGA:   3    -0.486711284506E+03   -0.24286E-02   -0.24287E-02   688   0.219E-02 0.188E-05
CGA:   4    -0.486711766416E+03   -0.48191E-03   -0.48184E-03   688   0.517E-03-0.975E-06
CGA:   5    -0.486711880732E+03   -0.11432E-03   -0.11428E-03   688   0.157E-03-0.564E-06
CGA:   6    -0.486711923724E+03   -0.42992E-04   -0.42990E-04   688   0.627E-04-0.257E-06
  80 F= -.49020916E+03 E0= -.49020916E+03  d E =-.608617E-02  mag=    -0.0000
       N       E                     dE             d eps       ncg     rms          ort
SDA:   1    -0.486467932345E+03    0.24395E+00    0.00000E+00   688   0.582E+00 0.000E+00
CGA:   2    -0.486660652370E+03   -0.19272E+00   -0.19272E+00   688   0.188E+00-0.330E-04
CGA:   3    -0.486704073516E+03   -0.43421E-01   -0.43423E-01   688   0.397E-01 0.792E-05
CGA:   4    -0.486712981086E+03   -0.89076E-02   -0.89076E-02   688   0.894E-02 0.547E-05
CGA:   5    -0.486715044722E+03   -0.20636E-02   -0.20638E-02   688   0.276E-02 0.321E-05
CGA:   6    -0.486715776350E+03   -0.73163E-03   -0.73160E-03   688   0.110E-02-0.192E-05
CGA:   7    -0.486716111691E+03   -0.33534E-03   -0.33533E-03   688   0.523E-03 0.264E-06
CGA:   8    -0.486716272222E+03   -0.16053E-03   -0.16055E-03   688   0.196E-03-0.525E-06
CGA:   9    -0.486716332758E+03   -0.60536E-04   -0.60552E-04   688   0.587E-04-0.561E-06
  81 F= -.49021349E+03 E0= -.49021349E+03  d E =-.432989E-02  mag=    -0.0000
       N       E                     dE             d eps       ncg     rms          ort
SDA:   1    -0.486715863217E+03    0.40900E-03    0.00000E+00   688   0.118E-02 0.000E+00
CGA:   2    -0.486716246477E+03   -0.38326E-03   -0.38327E-03   688   0.430E-03-0.280E-06
CGA:   3    -0.486716336035E+03   -0.89559E-04   -0.89610E-04   688   0.120E-03 0.669E-06
  82 F= -.49021350E+03 E0= -.49021350E+03  d E =-.433696E-02  mag=    -0.0000
       N       E                     dE             d eps       ncg     rms          ort
SDA:   1    -0.486617903996E+03    0.98342E-01    0.00000E+00   688   0.242E+00 0.000E+00
CGA:   2    -0.486698571660E+03   -0.80668E-01   -0.80670E-01   688   0.739E-01-0.241E-04
CGA:   3    -0.486715713157E+03   -0.17141E-01   -0.17142E-01   688   0.153E-01-0.241E-05
CGA:   4    -0.486719223574E+03   -0.35104E-02   -0.35106E-02   688   0.332E-02 0.438E-05
CGA:   5    -0.486720003350E+03   -0.77978E-03   -0.77975E-03   688   0.104E-02-0.779E-06
CGA:   6    -0.486720265306E+03   -0.26196E-03   -0.26194E-03   688   0.420E-03-0.793E-06
CGA:   7    -0.486720389334E+03   -0.12403E-03   -0.12405E-03   688   0.195E-03-0.999E-06
CGA:   8    -0.486720452038E+03   -0.62704E-04   -0.62714E-04   688   0.712E-04-0.215E-06
  83 F= -.49021755E+03 E0= -.49021755E+03  d E =-.405002E-02  mag=    -0.0000
       N       E                     dE             d eps       ncg     rms          ort
SDA:   1    -0.486512370667E+03    0.20802E+00    0.00000E+00   688   0.495E+00 0.000E+00
CGA:   2    -0.486677270819E+03   -0.16490E+00   -0.16491E+00   688   0.154E+00-0.763E-04
CGA:   3    -0.486713012226E+03   -0.35741E-01   -0.35743E-01   688   0.317E-01 0.394E-05
CGA:   4    -0.486720320331E+03   -0.73081E-02   -0.73083E-02   688   0.661E-02 0.464E-05
CGA:   5    -0.486721959273E+03   -0.16389E-02   -0.16390E-02   688   0.200E-02 0.113E-05
CGA:   6    -0.486722505962E+03   -0.54669E-03   -0.54669E-03   688   0.841E-03-0.319E-05
CGA:   7    -0.486722758284E+03   -0.25232E-03   -0.25232E-03   688   0.407E-03-0.781E-07
CGA:   8    -0.486722883983E+03   -0.12570E-03   -0.12572E-03   688   0.146E-03-0.505E-06
CGA:   9    -0.486722930712E+03   -0.46729E-04   -0.46745E-04   688   0.431E-04-0.387E-06
  84 F= -.49021992E+03 E0= -.49021992E+03  d E =-.642620E-02  mag=    -0.0000
       N       E                     dE             d eps       ncg     rms          ort
SDA:   1    -0.486580545612E+03    0.14234E+00    0.00000E+00   688   0.348E+00 0.000E+00
CGA:   2    -0.486695042151E+03   -0.11450E+00   -0.11450E+00   688   0.106E+00-0.263E-04
CGA:   3    -0.486719813983E+03   -0.24772E-01   -0.24772E-01   688   0.228E-01 0.279E-05
CGA:   4    -0.486724883886E+03   -0.50699E-02   -0.50700E-02   688   0.491E-02 0.516E-06
CGA:   5    -0.486726030283E+03   -0.11464E-02   -0.11463E-02   688   0.142E-02-0.103E-05
CGA:   6    -0.486726414543E+03   -0.38426E-03   -0.38425E-03   688   0.544E-03-0.201E-05
CGA:   7    -0.486726589107E+03   -0.17456E-03   -0.17458E-03   688   0.257E-03-0.432E-06
CGA:   8    -0.486726671518E+03   -0.82412E-04   -0.82420E-04   688   0.986E-04-0.192E-06
  85 F= -.49022365E+03 E0= -.49022365E+03  d E =-.372712E-02  mag=    -0.0000
       N       E                     dE             d eps       ncg     rms          ort
SDA:   1    -0.486692576199E+03    0.34013E-01    0.00000E+00   688   0.824E-01 0.000E+00
CGA:   2    -0.486719657014E+03   -0.27081E-01   -0.27081E-01   688   0.253E-01-0.365E-05
CGA:   3    -0.486725519713E+03   -0.58627E-02   -0.58627E-02   688   0.549E-02-0.187E-06
CGA:   4    -0.486726738248E+03   -0.12185E-02   -0.12186E-02   688   0.114E-02 0.598E-06
CGA:   5    -0.486727012930E+03   -0.27468E-03   -0.27463E-03   688   0.357E-03-0.135E-05
CGA:   6    -0.486727104211E+03   -0.91281E-04   -0.91272E-04   688   0.151E-03-0.415E-06
  86 F= -.49022407E+03 E0= -.49022407E+03  d E =-.415213E-02  mag=    -0.0000
       N       E                     dE             d eps       ncg     rms          ort
SDA:   1    -0.486669311799E+03    0.57701E-01    0.00000E+00   688   0.145E+00 0.000E+00
CGA:   2    -0.486716712085E+03   -0.47400E-01   -0.47401E-01   688   0.438E-01-0.696E-05
CGA:   3    -0.486726852380E+03   -0.10140E-01   -0.10140E-01   688   0.953E-02-0.268E-05
CGA:   4    -0.486728963549E+03   -0.21112E-02   -0.21114E-02   688   0.233E-02 0.397E-05
CGA:   5    -0.486729453300E+03   -0.48975E-03   -0.48973E-03   688   0.752E-03-0.330E-06
CGA:   6    -0.486729640440E+03   -0.18714E-03   -0.18713E-03   688   0.277E-03-0.500E-06
CGA:   7    -0.486729730961E+03   -0.90521E-04   -0.90544E-04   688   0.130E-03-0.407E-06
  87 F= -.49022673E+03 E0= -.49022673E+03  d E =-.265939E-02  mag=    -0.0000
       N       E                     dE             d eps       ncg     rms          ort
SDA:   1    -0.486504555465E+03    0.22508E+00    0.00000E+00   688   0.545E+00 0.000E+00
CGA:   2    -0.486683029309E+03   -0.17847E+00   -0.17848E+00   688   0.163E+00-0.765E-04
CGA:   3    -0.486720981268E+03   -0.37952E-01   -0.37954E-01   688   0.354E-01 0.807E-05
CGA:   4    -0.486728810938E+03   -0.78297E-02   -0.78300E-02   688   0.759E-02 0.779E-05
CGA:   5    -0.486730587932E+03   -0.17770E-02   -0.17770E-02   688   0.222E-02-0.434E-06
CGA:   6    -0.486731177569E+03   -0.58964E-03   -0.58963E-03   688   0.862E-03-0.603E-06
CGA:   7    -0.486731450013E+03   -0.27244E-03   -0.27249E-03   688   0.417E-03-0.961E-06
CGA:   8    -0.486731584499E+03   -0.13449E-03   -0.13450E-03   688   0.161E-03-0.234E-06
CGA:   9    -0.486731635179E+03   -0.50680E-04   -0.50682E-04   688   0.478E-04-0.456E-07
  88 F= -.49022870E+03 E0= -.49022870E+03  d E =-.462289E-02  mag=     0.0000
       N       E                     dE             d eps       ncg     rms          ort
SDA:   1    -0.486678576085E+03    0.53008E-01    0.00000E+00   688   0.134E+00 0.000E+00
CGA:   2    -0.486722467273E+03   -0.43891E-01   -0.43892E-01   688   0.389E-01-0.103E-04
CGA:   3    -0.486731571316E+03   -0.91040E-02   -0.91041E-02   688   0.836E-02-0.682E-06
CGA:   4    -0.486733467539E+03   -0.18962E-02   -0.18963E-02   688   0.168E-02 0.177E-05
CGA:   5    -0.486733869710E+03   -0.40217E-03   -0.40212E-03   688   0.500E-03-0.140E-05
CGA:   6    -0.486734001714E+03   -0.13200E-03   -0.13200E-03   688   0.197E-03-0.197E-06
CGA:   7    -0.486734064839E+03   -0.63126E-04   -0.63144E-04   688   0.949E-04-0.406E-06
  89 F= -.49023108E+03 E0= -.49023108E+03  d E =-.238307E-02  mag=     0.0000
       N       E                     dE             d eps       ncg     rms          ort
SDA:   1    -0.486270978851E+03    0.46302E+00    0.00000E+00   688   0.112E+01 0.000E+00
CGA:   2    -0.486639423675E+03   -0.36844E+00   -0.36846E+00   688   0.327E+00-0.158E-03
CGA:   3    -0.486715892673E+03   -0.76469E-01   -0.76473E-01   688   0.709E-01 0.272E-04
CGA:   4    -0.486731837543E+03   -0.15945E-01   -0.15945E-01   688   0.144E-01 0.547E-05
CGA:   5    -0.486735366333E+03   -0.35288E-02   -0.35287E-02   688   0.402E-02-0.176E-05
CGA:   6    -0.486736497182E+03   -0.11308E-02   -0.11309E-02   688   0.156E-02-0.177E-05
CGA:   7    -0.486737013783E+03   -0.51660E-03   -0.51659E-03   688   0.761E-03 0.120E-06
CGA:   8    -0.486737255057E+03   -0.24127E-03   -0.24130E-03   688   0.300E-03-0.744E-06
CGA:   9    -0.486737345372E+03   -0.90315E-04   -0.90313E-04   688   0.886E-04 0.111E-06
  90 F= -.49023421E+03 E0= -.49023421E+03  d E =-.551641E-02  mag=     0.0000
       N       E                     dE             d eps       ncg     rms          ort
SDA:   1    -0.486633510891E+03    0.10374E+00    0.00000E+00   688   0.257E+00 0.000E+00
CGA:   2    -0.486717617067E+03   -0.84106E-01   -0.84108E-01   688   0.767E-01-0.258E-04
CGA:   3    -0.486735482358E+03   -0.17865E-01   -0.17865E-01   688   0.164E-01-0.101E-05
CGA:   4    -0.486739198786E+03   -0.37164E-02   -0.37165E-02   688   0.336E-02 0.153E-05
CGA:   5    -0.486739997336E+03   -0.79855E-03   -0.79849E-03   688   0.999E-03-0.146E-05
CGA:   6    -0.486740267479E+03   -0.27014E-03   -0.27013E-03   688   0.383E-03-0.102E-05
CGA:   7    -0.486740392532E+03   -0.12505E-03   -0.12506E-03   688   0.187E-03-0.101E-06
CGA:   8    -0.486740452299E+03   -0.59767E-04   -0.59785E-04   688   0.751E-04-0.437E-06
  91 F= -.49023714E+03 E0= -.49023714E+03  d E =-.292214E-02  mag=     0.0000
       N       E                     dE             d eps       ncg     rms          ort
SDA:   1    -0.486687336518E+03    0.53056E-01    0.00000E+00   688   0.129E+00 0.000E+00
CGA:   2    -0.486729686544E+03   -0.42350E-01   -0.42351E-01   688   0.388E-01-0.127E-04
CGA:   3    -0.486738685450E+03   -0.89989E-02   -0.89989E-02   688   0.838E-02-0.148E-05
CGA:   4    -0.486740577851E+03   -0.18924E-02   -0.18925E-02   688   0.166E-02 0.126E-05
CGA:   5    -0.486740987778E+03   -0.40993E-03   -0.40988E-03   688   0.505E-03-0.140E-05
CGA:   6    -0.486741120708E+03   -0.13293E-03   -0.13292E-03   688   0.213E-03-0.476E-06
CGA:   7    -0.486741183899E+03   -0.63191E-04   -0.63195E-04   688   0.104E-03-0.251E-06
  92 F= -.49023773E+03 E0= -.49023773E+03  d E =-.352041E-02  mag=     0.0000
       N       E                     dE             d eps       ncg     rms          ort
SDA:   1    -0.486644768927E+03    0.96352E-01    0.00000E+00   688   0.240E+00 0.000E+00
CGA:   2    -0.486723201186E+03   -0.78432E-01   -0.78433E-01   688   0.703E-01-0.182E-04
CGA:   3    -0.486739666605E+03   -0.16465E-01   -0.16465E-01   688   0.154E-01-0.531E-05
CGA:   4    -0.486743078463E+03   -0.34119E-02   -0.34120E-02   688   0.318E-02 0.374E-05
CGA:   5    -0.486743848087E+03   -0.76962E-03   -0.76958E-03   688   0.914E-03-0.115E-05
CGA:   6    -0.486744098933E+03   -0.25085E-03   -0.25084E-03   688   0.365E-03-0.692E-06
CGA:   7    -0.486744214362E+03   -0.11543E-03   -0.11545E-03   688   0.184E-03-0.427E-06
CGA:   8    -0.486744271996E+03   -0.57634E-04   -0.57654E-04   688   0.708E-04-0.558E-06
  93 F= -.49024066E+03 E0= -.49024066E+03  d E =-.292853E-02  mag=     0.0000
       N       E                     dE             d eps       ncg     rms          ort
SDA:   1    -0.486475119871E+03    0.26909E+00    0.00000E+00   688   0.655E+00 0.000E+00
CGA:   2    -0.486688938528E+03   -0.21382E+00   -0.21382E+00   688   0.192E+00-0.697E-04
CGA:   3    -0.486733837425E+03   -0.44899E-01   -0.44900E-01   688   0.417E-01-0.255E-05
CGA:   4    -0.486743260456E+03   -0.94230E-02   -0.94232E-02   688   0.803E-02 0.627E-05
CGA:   5    -0.486745280779E+03   -0.20203E-02   -0.20203E-02   688   0.221E-02-0.154E-05
CGA:   6    -0.486745921191E+03   -0.64041E-03   -0.64042E-03   688   0.845E-03-0.963E-06
CGA:   7    -0.486746212168E+03   -0.29098E-03   -0.29102E-03   688   0.410E-03-0.708E-06
CGA:   8    -0.486746343643E+03   -0.13148E-03   -0.13151E-03   688   0.163E-03-0.772E-06
CGA:   9    -0.486746392185E+03   -0.48542E-04   -0.48545E-04   688   0.485E-04-0.195E-06
  94 F= -.49024251E+03 E0= -.49024251E+03  d E =-.477644E-02  mag=     0.0000
       N       E                     dE             d eps       ncg     rms          ort
SDA:   1    -0.486675034001E+03    0.71310E-01    0.00000E+00   688   0.178E+00 0.000E+00
CGA:   2    -0.486733127842E+03   -0.58094E-01   -0.58094E-01   688   0.517E-01-0.108E-04
CGA:   3    -0.486745301195E+03   -0.12173E-01   -0.12173E-01   688   0.113E-01-0.133E-05
CGA:   4    -0.486747794669E+03   -0.24935E-02   -0.24935E-02   688   0.228E-02 0.333E-06
CGA:   5    -0.486748335827E+03   -0.54116E-03   -0.54108E-03   688   0.647E-03-0.174E-05
CGA:   6    -0.486748511231E+03   -0.17540E-03   -0.17540E-03   688   0.250E-03-0.539E-06
CGA:   7    -0.486748592034E+03   -0.80803E-04   -0.80812E-04   688   0.125E-03-0.212E-06
  95 F= -.49024470E+03 E0= -.49024470E+03  d E =-.218773E-02  mag=     0.0000
       N       E                     dE             d eps       ncg     rms          ort
SDA:   1    -0.486632578624E+03    0.11593E+00    0.00000E+00   688   0.283E+00 0.000E+00
CGA:   2    -0.486724986620E+03   -0.92408E-01   -0.92408E-01   688   0.823E-01-0.129E-04
CGA:   3    -0.486744337943E+03   -0.19351E-01   -0.19351E-01   688   0.184E-01-0.139E-05
CGA:   4    -0.486748287736E+03   -0.39498E-02   -0.39498E-02   688   0.396E-02 0.733E-06
CGA:   5    -0.486749205592E+03   -0.91786E-03   -0.91776E-03   688   0.117E-02-0.209E-05
CGA:   6    -0.486749508310E+03   -0.30272E-03   -0.30270E-03   688   0.460E-03-0.888E-06
CGA:   7    -0.486749651701E+03   -0.14339E-03   -0.14340E-03   688   0.222E-03-0.218E-06
CGA:   8    -0.486749725082E+03   -0.73381E-04   -0.73416E-04   688   0.851E-04-0.658E-06
  96 F= -.49024581E+03 E0= -.49024581E+03  d E =-.330318E-02  mag=     0.0000
       N       E                     dE             d eps       ncg     rms          ort
SDA:   1    -0.486687035207E+03    0.62616E-01    0.00000E+00   688   0.156E+00 0.000E+00
CGA:   2    -0.486737839996E+03   -0.50805E-01   -0.50805E-01   688   0.467E-01-0.856E-05
CGA:   3    -0.486748742987E+03   -0.10903E-01   -0.10903E-01   688   0.103E-01-0.233E-05
CGA:   4    -0.486751034919E+03   -0.22919E-02   -0.22920E-02   688   0.199E-02 0.222E-05
CGA:   5    -0.486751531197E+03   -0.49628E-03   -0.49624E-03   688   0.595E-03-0.119E-05
CGA:   6    -0.486751691390E+03   -0.16019E-03   -0.16019E-03   688   0.245E-03-0.240E-06
CGA:   7    -0.486751766702E+03   -0.75312E-04   -0.75313E-04   688   0.123E-03-0.434E-07
  97 F= -.49024782E+03 E0= -.49024782E+03  d E =-.200350E-02  mag=     0.0000
