 vasp.5.4.4.18Apr17-6-g9f103f2a35 (build Jan 14 2022 15:04:31) complex          
  
 executed on             LinuxIFC date 2023.04.05  11:31:20
 running on   48 total cores
 distrk:  each k-point on   48 cores,    1 groups
 distr:  one band on NCORES_PER_BAND=  12 cores,    4 groups


--------------------------------------------------------------------------------------------------------


 INCAR:
 POTCAR:    PAW_PBE C 08Apr2002                   
 POTCAR:    PAW_PBE N 08Apr2002                   
 POTCAR:    PAW_PBE Ge_d 03Jul2007                
 POTCAR:    PAW_PBE C 08Apr2002                   
   SHA256 =  253f7b50bb8d59471dbedb8285d89021f4a42ed1a2c5d38a03a736e69125dd95 C/
   COPYR  = (c) Copyright 08Apr2002 Georg Kresse                                
   COPYR  = This file is part of the software VASP. Any use, copying, and all ot
   COPYR  = If you do not have a valid VASP license, you may not use, copy or di
   VRHFIN =C: s2p2                                                              
   LEXCH  = PE                                                                  
   EATOM  =   147.1560 eV,   10.8157 Ry                                         
                                                                                
   TITEL  = PAW_PBE C 08Apr2002                                                 
   LULTRA =        F    use ultrasoft PP ?                                      
   IUNSCR =        1    unscreen: 0-lin 1-nonlin 2-no                           
   RPACOR =    1.200    partial core radius                                     
   POMASS =   12.011; ZVAL   =    4.000    mass and valenz                      
   RCORE  =    1.500    outmost cutoff radius                                   
   RWIGS  =    1.630; RWIGS  =    0.863    wigner-seitz radius (au A)           
   ENMAX  =  400.000; ENMIN  =  300.000 eV                                      
   ICORE  =        2    local potential                                         
   LCOR   =        T    correct aug charges                                     
   LPAW   =        T    paw PP                                                  
   EAUG   =  644.873                                                            
   DEXC   =    0.000                                                            
   RMAX   =    1.529    core radius for proj-oper                               
   RAUG   =    1.300    factor for augmentation sphere                          
   RDEP   =    1.501    radius for radial grids                                 
   RDEPT  =    1.300    core radius for aug-charge                              
                                                                                
   Atomic configuration                                                         
    4 entries                                                                   
     n  l   j            E        occ.                                          
     1  0  0.50      -273.3789   2.0000                                         
     2  0  0.50       -13.7508   2.0000                                         
     2  1  0.50        -5.2854   2.0000                                         
     3  2  1.50        -5.4423   0.0000                                         
   Description                                                                  
     l       E           TYP  RCUT    TYP  RCUT                                 
     0    -13.7508458     23  1.200                                             
     0     -8.2022199     23  1.200                                             
     1     -5.2854383     23  1.500                                             
     1     34.0145650     23  1.500                                             
     2     -5.4423304      7  1.500                                             
  local pseudopotential read in
  partial core-charges read in
  partial kinetic energy density read in
  atomic valenz-charges read in
  non local Contribution for L=           0  read in
    real space projection operators read in
  non local Contribution for L=           0  read in
    real space projection operators read in
  non local Contribution for L=           1  read in
    real space projection operators read in
  non local Contribution for L=           1  read in
    real space projection operators read in
    PAW grid and wavefunctions read in
 
   number of l-projection  operators is LMAX  =           4
   number of lm-projection operators is LMMAX =           8
 
 POTCAR:    PAW_PBE N 08Apr2002                   
   SHA256 =  e053789ff3a61a86a1b75d8a110fcc91f86041011e7b0817c7c99e4e8a6349d7 N/
   COPYR  = (c) Copyright 08Apr2002 Georg Kresse                                
   COPYR  = This file is part of the software VASP. Any use, copying, and all ot
   COPYR  = If you do not have a valid VASP license, you may not use, copy or di
   VRHFIN =N: s2p3                                                              
   LEXCH  = PE                                                                  
   EATOM  =   264.5486 eV,   19.4438 Ry                                         
                                                                                
   TITEL  = PAW_PBE N 08Apr2002                                                 
   LULTRA =        F    use ultrasoft PP ?                                      
   IUNSCR =        1    unscreen: 0-lin 1-nonlin 2-no                           
   RPACOR =    1.200    partial core radius                                     
   POMASS =   14.001; ZVAL   =    5.000    mass and valenz                      
   RCORE  =    1.500    outmost cutoff radius                                   
   RWIGS  =    1.400; RWIGS  =    0.741    wigner-seitz radius (au A)           
   ENMAX  =  400.000; ENMIN  =  300.000 eV                                      
   ICORE  =        2    local potential                                         
   LCOR   =        T    correct aug charges                                     
   LPAW   =        T    paw PP                                                  
   EAUG   =  627.112                                                            
   DEXC   =    0.000                                                            
   RMAX   =    1.529    core radius for proj-oper                               
   RAUG   =    1.300    factor for augmentation sphere                          
   RDEP   =    1.514    radius for radial grids                                 
   RDEPT  =    1.338    core radius for aug-charge                              
                                                                                
   Atomic configuration                                                         
    4 entries                                                                   
     n  l   j            E        occ.                                          
     1  0  0.50      -384.7179   2.0000                                         
     2  0  0.50       -18.5828   2.0000                                         
     2  1  0.50        -7.0898   3.0000                                         
     3  2  1.50        -6.8029   0.0000                                         
   Description                                                                  
     l       E           TYP  RCUT    TYP  RCUT                                 
     0    -18.5828119     23  1.200                                             
     0    -13.5018863     23  1.200                                             
     1     -7.0897853     23  1.500                                             
     1      9.5240782     23  1.500                                             
     2     -6.8029130      7  1.500                                             
  local pseudopotential read in
  partial core-charges read in
  partial kinetic energy density read in
  atomic valenz-charges read in
  non local Contribution for L=           0  read in
    real space projection operators read in
  non local Contribution for L=           0  read in
    real space projection operators read in
  non local Contribution for L=           1  read in
    real space projection operators read in
  non local Contribution for L=           1  read in
    real space projection operators read in
    PAW grid and wavefunctions read in
 
   number of l-projection  operators is LMAX  =           4
   number of lm-projection operators is LMMAX =           8
 
 POTCAR:    PAW_PBE Ge_d 03Jul2007                
   SHA256 =  944b26c40d2d7c4f4eb1ff3a2e8dbfdd7129146276cd341854bfd5c0e57780ed Ge
   COPYR  = (c) Copyright 03Jul2007 Georg Kresse                                
   COPYR  = This file is part of the software VASP. Any use, copying, and all ot
   COPYR  = If you do not have a valid VASP license, you may not use, copy or di
   VRHFIN =Ge: 3d4s4p                                                           
   LEXCH  = PE                                                                  
   EATOM  =  2596.2402 eV,  190.8183 Ry                                         
                                                                                
   TITEL  = PAW_PBE Ge_d 03Jul2007                                              
   LULTRA =        F    use ultrasoft PP ?                                      
   IUNSCR =        1    unscreen: 0-lin 1-nonlin 2-no                           
   RPACOR =    2.000    partial core radius                                     
   POMASS =   72.610; ZVAL   =   14.000    mass and valenz                      
   RCORE  =    2.300    outmost cutoff radius                                   
   RWIGS  =    2.300; RWIGS  =    1.217    wigner-seitz radius (au A)           
   ENMAX  =  310.294; ENMIN  =  232.720 eV                                      
   ICORE  =        3    local potential                                         
   LCOR   =        T    correct aug charges                                     
   LPAW   =        T    paw PP                                                  
   EAUG   =  531.356                                                            
   DEXC   =    0.000                                                            
   RMAX   =    2.342    core radius for proj-oper                               
   RAUG   =    1.300    factor for augmentation sphere                          
   RDEP   =    2.318    radius for radial grids                                 
   RDEPT  =    1.783    core radius for aug-charge                              
                                                                                
   Atomic configuration                                                         
    9 entries                                                                   
     n  l   j            E        occ.                                          
     1  0  0.50    -10959.8463   2.0000                                         
     2  0  0.50     -1371.6056   2.0000                                         
     2  1  1.50     -1198.4791   6.0000                                         
     3  0  0.50      -168.4733   2.0000                                         
     3  1  1.50      -115.6019   6.0000                                         
     3  2  2.50       -29.3106  10.0000                                         
     4  0  0.50       -11.7309   2.0000                                         
     4  1  0.50        -3.8952   2.0000                                         
     4  3  2.50        -4.0817   0.0000                                         
   Description                                                                  
     l       E           TYP  RCUT    TYP  RCUT                                 
     2    -29.3105938     23  2.200                                             
     2    -13.6058260     23  2.200                                             
     0    -11.7309493     23  2.300                                             
     0     -7.4578696     23  2.300                                             
     1     -3.8952261     23  2.300                                             
     1      6.1178114     23  2.300                                             
     3     -1.3605826     23  2.300                                             
  local pseudopotential read in
  partial core-charges read in
  partial kinetic energy density read in
  atomic valenz-charges read in
  non local Contribution for L=           2  read in
    real space projection operators read in
  non local Contribution for L=           2  read in
    real space projection operators read in
  non local Contribution for L=           0  read in
    real space projection operators read in
  non local Contribution for L=           0  read in
    real space projection operators read in
  non local Contribution for L=           1  read in
    real space projection operators read in
  non local Contribution for L=           1  read in
    real space projection operators read in
    PAW grid and wavefunctions read in
 
   number of l-projection  operators is LMAX  =           6
   number of lm-projection operators is LMMAX =          18
 

 ----------------------------------------------------------------------------- 
|                                                                             |
|  ADVICE TO THIS USER RUNNING 'VASP/VAMP'   (HEAR YOUR MASTER'S VOICE ...):  |
|                                                                             |
|      You have a (more or less) 'large supercell' and for larger cells       |
|      it might be more efficient to use real space projection opertators     |
|      So try LREAL= Auto  in the INCAR   file.                               |
|      Mind:          For very  accurate calculation you might also keep the  |
|      reciprocal projection scheme          (i.e. LREAL=.FALSE.)             |
|                                                                             |
 ----------------------------------------------------------------------------- 

  PAW_PBE C 08Apr2002                   :
 energy of atom  1       EATOM= -147.1560
 kinetic energy error for atom=    0.0132 (will be added to EATOM!!)
  PAW_PBE N 08Apr2002                   :
 energy of atom  2       EATOM= -264.5486
 kinetic energy error for atom=    0.0298 (will be added to EATOM!!)
  PAW_PBE Ge_d 03Jul2007                :
 energy of atom  3       EATOM=-2596.2402
 kinetic energy error for atom=    0.0090 (will be added to EATOM!!)
 
 
 POSCAR: POSCAR-c3n4                             
  positions in cartesian coordinates
  No initial velocities read in
 exchange correlation table for  LEXCH =        8
   RHO(1)=    0.500       N(1)  =     2000
   RHO(2)=  100.500       N(2)  =     4000

 VTST: version 3.2, (02/03/18)

 CHAIN: initializing optimizer
 
 OPT: Using VASP Dynamics algorithm
 CHAIN: Read ICHAIN            0
 
 POSCAR: POSCAR-c3n4                             
  positions in cartesian coordinates
  No initial velocities read in
 


--------------------------------------------------------------------------------------------------------


 ion  position               nearest neighbor table
   1  0.106  0.214  0.426-  26 1.50  46 1.50  25 1.58
   2  0.288  0.399  0.433-  29 1.48  35 1.55  25 1.60
   3  0.104  0.392  0.427-  44 1.48  39 1.55  25 1.60
   4  0.447  0.064  0.506-  30 1.48  27 1.50  48 1.58
   5  0.453  0.401  0.413-  28 1.49  29 1.50  56 1.60
   6  0.112  0.053  0.449-  26 1.48  31 1.49  32 1.57
   7  0.096  0.712  0.484-  54 1.49  34 1.52  33 1.57
   8  0.284  0.890  0.501-  27 1.50  37 1.51  33 1.59
   9  0.109  0.895  0.498-  31 1.48  52 1.51  33 1.60
  10  0.448  0.548  0.502-  38 1.48  56 1.52  35 1.52
  11  0.445  0.885  0.489-  37 1.50  36 1.50  48 1.55
  12  0.087  0.542  0.481-  34 1.48  40 1.51  39 1.52
  13  0.616  0.223  0.473-  42 1.51  30 1.51  41 1.57
  14  0.780  0.390  0.400-  45 1.51  51 1.53  41 1.57
  15  0.610  0.394  0.435-  28 1.50  55 1.50  41 1.63
  16  0.940  0.052  0.461-  46 1.48  43 1.49  32 1.56
  17  0.941  0.387  0.394-  45 1.48  44 1.50  40 1.59
  18  0.623  0.066  0.512-  42 1.49  47 1.50  48 1.58
  19  0.613  0.711  0.531-  50 1.49  38 1.53  49 1.58
  20  0.790  0.897  0.523-  43 1.49  53 1.50  49 1.62
  21  0.609  0.892  0.521-  47 1.50  36 1.51  49 1.61
  22  0.938  0.563  0.421-  51 1.47  54 1.51  40 1.59
  23  0.954  0.902  0.535-  52 1.50  53 1.50  32 1.57
  24  0.621  0.555  0.490-  55 1.47  50 1.49  56 1.58
  25  0.167  0.335  0.425-   1 1.58   3 1.60   2 1.60
  26  0.165  0.161  0.421-   6 1.48   1 1.50
  27  0.336  0.002  0.522-   8 1.50   4 1.50
  28  0.512  0.352  0.392-   5 1.49  15 1.50
  29  0.345  0.361  0.390-   2 1.48   5 1.50
  30  0.506  0.177  0.493-   4 1.48  13 1.51
  31  0.159  0.988  0.447-   9 1.48   6 1.49
  32  0.002  0.002  0.483-  16 1.56  23 1.57   6 1.57
  33  0.165  0.831  0.500-   7 1.57   8 1.59   9 1.60
  34  0.134  0.645  0.518-  12 1.48   7 1.52
  35  0.334  0.491  0.492-  10 1.52   2 1.55  57 2.31
  36  0.503  0.831  0.490-  11 1.50  21 1.51
  37  0.333  0.829  0.479-  11 1.50   8 1.51
  38  0.499  0.648  0.545-  10 1.48  19 1.53
  39  0.142  0.484  0.485-  12 1.52   3 1.55  57 2.33
  40  0.988  0.496  0.436-  12 1.51  22 1.59  17 1.59
  41  0.667  0.330  0.429-  13 1.57  14 1.57  15 1.63
  42  0.680  0.178  0.495-  18 1.49  13 1.51
  43  0.827  0.986  0.468-  20 1.49  16 1.49
  44  0.011  0.348  0.379-   3 1.48  17 1.50
  45  0.830  0.330  0.380-  17 1.48  14 1.51
  46  0.993  0.161  0.435-  16 1.48   1 1.50
  47  0.669  0.005  0.539-  21 1.50  18 1.50
  48  0.505  0.004  0.498-  11 1.55  18 1.58   4 1.58
  49  0.668  0.832  0.534-  19 1.58  21 1.61  20 1.62
  50  0.675  0.666  0.512-  19 1.49  24 1.49
  51  0.832  0.507  0.396-  22 1.47  14 1.53
  52  0.016  0.853  0.549-  23 1.50   9 1.51
  53  0.849  0.860  0.566-  20 1.50  23 1.50
  54  0.004  0.677  0.435-   7 1.49  22 1.51
  55  0.668  0.491  0.484-  24 1.47  15 1.50
  56  0.506  0.502  0.467-  10 1.52  24 1.58   5 1.60
  57  0.287  0.593  0.558-  35 2.31  39 2.33
 

IMPORTANT INFORMATION: All symmetrisations will be switched off!
NOSYMM: (Re-)initialisation of all symmetry stuff for point group C_1.

 
 
 KPOINTS: K-Points                                

Automatic generation of k-mesh.
Space group operators:
 irot       det(A)        alpha          n_x          n_y          n_z        tau_x        tau_y        tau_z
    1     1.000000     0.000000     1.000000     0.000000     0.000000     0.000000     0.000000     0.000000
 
 Subroutine IBZKPT returns following result:
 ===========================================
 
 Found      5 irreducible k-points:
 
 Following reciprocal coordinates:
            Coordinates               Weight
  0.000000  0.000000  0.000000      1.000000
  0.333333  0.000000  0.000000      2.000000
 -0.000000  0.333333  0.000000      2.000000
  0.333333  0.333333  0.000000      2.000000
 -0.333333  0.333333  0.000000      2.000000
 
 Following cartesian coordinates:
            Coordinates               Weight
  0.000000  0.000000  0.000000      1.000000
  0.024277  0.014368  0.000000      2.000000
  0.000396  0.028736  0.000000      2.000000
  0.024673  0.043104  0.000000      2.000000
 -0.023881  0.014368  0.000000      2.000000
 
 TETIRR: Found     24 inequivalent tetrahedra from       54


--------------------------------------------------------------------------------------------------------




 Dimension of arrays:
   k-points           NKPTS =      5   k-points in BZ     NKDIM =      5   number of bands    NBANDS=    168
   number of dos      NEDOS =   4000   number of ions     NIONS =     57
   non local maximal  LDIM  =      6   non local SUM 2l+1 LMDIM =     18
   total plane-waves  NPLWV = 576000
   max r-space proj   IRMAX =      1   max aug-charges    IRDMAX=   5923
   dimension x,y,z NGX =    80 NGY =   80 NGZ =   90
   dimension x,y,z NGXF=   160 NGYF=  160 NGZF=  180
   support grid    NGXF=   160 NGYF=  160 NGZF=  180
   ions per type =              24  32   1
   NGX,Y,Z   is equivalent  to a cutoff of   8.58,  8.74,  8.91 a.u.
   NGXF,Y,Z  is equivalent  to a cutoff of  17.15, 17.48, 17.81 a.u.

 SYSTEM =  unknown system                          
 POSCAR =  POSCAR-c3n4                             

 Startparameter for this run:
   NWRITE =      2    write-flag & timer
   PREC   = normal    normal or accurate (medium, high low for compatibility)
   ISTART =      0    job   : 0-new  1-cont  2-samecut
   ICHARG =      2    charge: 1-file 2-atom 10-const
   ISPIN  =      2    spin polarized calculation?
   LNONCOLLINEAR =      F non collinear calculations
   LSORBIT =      F    spin-orbit coupling
   INIWAV =      1    electr: 0-lowe 1-rand  2-diag
   LASPH  =      F    aspherical Exc in radial PAW
   METAGGA=      F    non-selfconsistent MetaGGA calc.

 Electronic Relaxation 1
   ENCUT  =  440.0 eV  32.34 Ry    5.69 a.u.  26.52 26.03 28.73*2*pi/ulx,y,z
   ENINI  =  440.0     initial cutoff
   ENAUG  =  644.9 eV  augmentation charge cutoff
   NELM   =    100;   NELMIN=  2; NELMDL= -5     # of ELM steps 
   EDIFF  = 0.1E-03   stopping-criterion for ELM
   LREAL  =      F    real-space projection
   NLSPLINE    = F    spline interpolate recip. space projectors
   LCOMPAT=      F    compatible to vasp.4.4
   GGA_COMPAT  = T    GGA compatible to vasp.4.4-vasp.4.6
   LMAXPAW     = -100 max onsite density
   LMAXMIX     =    2 max onsite mixed and CHGCAR
   VOSKOWN=      0    Vosko Wilk Nusair interpolation
   ROPT   =    0.00000   0.00000   0.00000
 Ionic relaxation
   EDIFFG = -.1E-01   stopping-criterion for IOM
   NSW    =      0    number of steps for IOM
   NBLOCK =      1;   KBLOCK =      1    inner block; outer block 
   IBRION =     -1    ionic relax: 0-MD 1-quasi-New 2-CG
   NFREE  =      0    steps in history (QN), initial steepest desc. (CG)
   ISIF   =      2    stress and relaxation
   IWAVPR =     10    prediction:  0-non 1-charg 2-wave 3-comb
   ISYM   =      0    0-nonsym 1-usesym 2-fastsym
   LCORR  =      T    Harris-Foulkes like correction to forces

   POTIM  = 0.5000    time-step for ionic-motion
   TEIN   =    0.0    initial temperature
   TEBEG  =    0.0;   TEEND  =   0.0 temperature during run
   SMASS  =  -3.00    Nose mass-parameter (am)
   estimated Nose-frequenzy (Omega)   =  0.10E-29 period in steps =****** mass=  -0.549E-26a.u.
   SCALEE = 1.0000    scale energy and forces
   NPACO  =    256;   APACO  = 16.0  distance and # of slots for P.C.
   PSTRESS=    0.0 pullay stress

  Mass of Ions in am
   POMASS =  12.01 14.00 72.61
  Ionic Valenz
   ZVAL   =   4.00  5.00 14.00
  Atomic Wigner-Seitz radii
   RWIGS  =  -1.00 -1.00 -1.00
  virtual crystal weights 
   VCA    =   1.00  1.00  1.00
   NELECT =     270.0000    total number of electrons
   NUPDOWN=      -1.0000    fix difference up-down

 DOS related values:
   EMIN   = -14.00;   EMAX   =  6.00  energy-range for DOS
   EFERMI =   0.00
   ISMEAR =    -5;   SIGMA  =   0.20  broadening in eV -4-tet -1-fermi 0-gaus

 Electronic relaxation 2 (details)
   IALGO  =     38    algorithm
   LDIAG  =      T    sub-space diagonalisation (order eigenvalues)
   LSUBROT=      F    optimize rotation matrix (better conditioning)
   TURBO    =      0    0=normal 1=particle mesh
   IRESTART =      0    0=no restart 2=restart with 2 vectors
   NREBOOT  =      0    no. of reboots
   NMIN     =      0    reboot dimension
   EREF     =   0.00    reference energy to select bands
   IMIX   =      4    mixing-type and parameters
     AMIX     =   0.25;   BMIX     =  0.00
     AMIX_MAG =   1.00;   BMIX_MAG =  0.00
     AMIN     =   0.10
     WC   =   100.;   INIMIX=   1;  MIXPRE=   1;  MAXMIX= -45

 Intra band minimization:
   WEIMIN = 0.0000     energy-eigenvalue tresh-hold
   EBREAK =  0.15E-06  absolut break condition
   DEPER  =   0.30     relativ break condition  

   TIME   =   0.40     timestep for ELM

  volume/ion in A,a.u.               =      59.37       400.65
  Fermi-wavevector in a.u.,A,eV,Ry     =   0.704773  1.331828  6.758085  0.496705
  Thomas-Fermi vector in A             =   1.790105
 
 Write flags
   LWAVE        =      F    write WAVECAR
   LDOWNSAMPLE  =      F    k-point downsampling of WAVECAR
   LCHARG       =      F    write CHGCAR
   LVTOT        =      F    write LOCPOT, total local potential
   LVHAR        =      F    write LOCPOT, Hartree potential only
   LELF         =      F    write electronic localiz. function (ELF)
   LORBIT       =     11    0 simple, 1 ext, 2 COOP (PROOUT), +10 PAW based schemes


 Dipole corrections
   LMONO  =      F    monopole corrections only (constant potential shift)
   LDIPOL =      F    correct potential (dipole corrections)
   IDIPOL =      0    1-x, 2-y, 3-z, 4-all directions 
   EPSILON=  1.0000000 bulk dielectric constant

 Exchange correlation treatment:
   GGA     =    --    GGA type
   LEXCH   =     8    internal setting for exchange type
   VOSKOWN=      0    Vosko Wilk Nusair interpolation
   LHFCALC =     F    Hartree Fock is set to
   LHFONE  =     F    Hartree Fock one center treatment
   AEXX    =    0.0000 exact exchange contribution

 Linear response parameters
   LEPSILON=     F    determine dielectric tensor
   LRPA    =     F    only Hartree local field effects (RPA)
   LNABLA  =     F    use nabla operator in PAW spheres
   LVEL    =     F    velocity operator in full k-point grid
   LINTERFAST=   F  fast interpolation
   KINTER  =     0    interpolate to denser k-point grid
   CSHIFT  =0.1000    complex shift for real part using Kramers Kronig
   OMEGAMAX=  -1.0    maximum frequency
   DEG_THRESHOLD= 0.2000000E-02 threshold for treating states as degnerate
   RTIME   =   -0.100 relaxation time in fs
  (WPLASMAI=    0.000 imaginary part of plasma frequency in eV, 0.658/RTIME)
   DFIELD  = 0.0000000 0.0000000 0.0000000 field for delta impulse in time
 
 Orbital magnetization related:
   ORBITALMAG=     F  switch on orbital magnetization
   LCHIMAG   =     F  perturbation theory with respect to B field
   DQ        =  0.001000  dq finite difference perturbation B field
   LLRAUG    =     F  two centre corrections for induced B field



--------------------------------------------------------------------------------------------------------


 Static calculation
 charge density and potential will be updated during run
 spin polarized calculation
 Variant of blocked Davidson
 Davidson routine will perform the subspace rotation
 perform sub-space diagonalisation
    after iterative eigenvector-optimisation
 modified Broyden-mixing scheme, WC =      100.0
 initial mixing is a Kerker type mixing with AMIX =  0.2500 and BMIX =      0.0001
 Hartree-type preconditioning will be used
 using additional bands           33
 reciprocal scheme for non local part
 use partial core corrections
 calculate Harris-corrections to forces 
   (improved forces if not selfconsistent)
 use gradient corrections 
 use of overlap-Matrix (Vanderbilt PP)
 Fermi weights with tetrahedron method with Bloechl corrections


--------------------------------------------------------------------------------------------------------


  energy-cutoff  :      440.00
  volume of cell :     3384.08
      direct lattice vectors                 reciprocal lattice vectors
    15.504635143 -0.213629331  0.000000000     0.065027115  0.038485816  0.000000000
    -7.752317571 13.098613913  0.000000000     0.001060547  0.076971633  0.000000000
     0.000000000  0.000000000 16.800000000     0.000000000  0.000000000  0.059523810

  length of vectors
    15.506106810 15.220779027 16.800000000     0.075562450  0.076978939  0.059523810


 
 k-points in units of 2pi/SCALE and weight: K-Points                                
   0.00000000  0.00000000  0.00000000       0.111
   0.02427679  0.01436804  0.00000000       0.222
   0.00039594  0.02873608  0.00000000       0.222
   0.02467273  0.04310411  0.00000000       0.222
  -0.02388085  0.01436804  0.00000000       0.222
 
 k-points in reciprocal lattice and weights: K-Points                                
   0.00000000  0.00000000  0.00000000       0.111
   0.33333333  0.00000000  0.00000000       0.222
  -0.00000000  0.33333333  0.00000000       0.222
   0.33333333  0.33333333  0.00000000       0.222
  -0.33333333  0.33333333  0.00000000       0.222
 
 position of ions in fractional coordinates (direct lattice) 
   0.10567936  0.21351909  0.42646415
   0.28750403  0.39866334  0.43315811
   0.10379301  0.39177313  0.42728737
   0.44732828  0.06383887  0.50569377
   0.45258916  0.40124889  0.41252546
   0.11203481  0.05273921  0.44868132
   0.09638015  0.71191070  0.48390127
   0.28433946  0.89006364  0.50120122
   0.10941441  0.89537413  0.49812536
   0.44792521  0.54827090  0.50190381
   0.44544784  0.88520183  0.48897001
   0.08690842  0.54210436  0.48067119
   0.61614813  0.22292684  0.47270451
   0.78023735  0.38968276  0.39988272
   0.61037743  0.39432339  0.43546161
   0.93951642  0.05229783  0.46070020
   0.94071854  0.38652888  0.39388003
   0.62278394  0.06558106  0.51203168
   0.61322902  0.71118454  0.53124878
   0.78984871  0.89727295  0.52288011
   0.60944297  0.89248269  0.52132702
   0.93832005  0.56283419  0.42050954
   0.95436023  0.90171878  0.53466451
   0.62130548  0.55465507  0.48986027
   0.16668926  0.33545237  0.42502835
   0.16473950  0.16097029  0.42095206
   0.33626584  0.00180669  0.52215766
   0.51175722  0.35246859  0.39238613
   0.34471728  0.36074551  0.38975287
   0.50565751  0.17673507  0.49315170
   0.15873210  0.98821904  0.44665654
   0.00214731  0.00186372  0.48284181
   0.16462634  0.83083069  0.50025956
   0.13400723  0.64526801  0.51778798
   0.33371346  0.49116238  0.49155062
   0.50288345  0.83078126  0.48972341
   0.33307237  0.82932770  0.47937372
   0.49902190  0.64803204  0.54483375
   0.14173676  0.48364631  0.48511610
   0.98839512  0.49595573  0.43598798
   0.66736443  0.33015381  0.42931770
   0.67970142  0.17802103  0.49523771
   0.82720183  0.98622484  0.46784919
   0.01097216  0.34809993  0.37880244
   0.83047981  0.33016544  0.37952861
   0.99296173  0.16101876  0.43513088
   0.66886761  0.00524437  0.53948092
   0.50484899  0.00388347  0.49830916
   0.66830364  0.83227641  0.53419919
   0.67536455  0.66551462  0.51246466
   0.83211404  0.50666912  0.39574663
   0.01584380  0.85299492  0.54867721
   0.84924332  0.85956436  0.56604968
   0.00424175  0.67726383  0.43455477
   0.66753141  0.49127771  0.48382075
   0.50565566  0.50179634  0.46716125
   0.28676550  0.59288202  0.55779478
 
 position of ions in cartesian coordinates  (Angst):
  -0.01674782  2.77422785  7.16459775
   1.36708023  5.16051786  7.27705630
  -1.42787705  5.10951175  7.17842783
   6.44076260  0.74063823  8.49565527
   3.90662088  5.15911801  6.93042773
   1.32820776  0.66687667  7.53784620
  -4.02461880  9.30445379  8.12954136
  -2.49147645 11.59785671  8.42018054
  -5.24479418 11.70478593  8.36850602
   2.69454688  7.08589889  8.43198397
   0.04414057 11.49975630  8.21469609
  -2.85508190  7.08224958  8.07527594
   7.82495229  2.78840531  7.94143572
   9.07635088  4.93762248  6.71802968
   6.40675913  5.03469537  7.31575509
  14.16142998  0.48432078  7.73976339
  11.58900314  4.86202753  6.61718454
   9.14763256  0.72597601  8.60213218
   3.99456386  9.18452804  8.92497946
   5.29037118 11.58429714  8.78438577
   2.53038162 11.56009123  8.75829397
  10.18504062  7.17189511  7.06456028
   7.80659675 11.60738685  8.98236383
   5.33325258  7.13248358  8.22965248
  -0.01607714  4.35835139  7.14047625
   1.30633309  2.07329444  7.07199459
   5.19967307 -0.04817114  8.77224863
   5.20216060  4.50752359  6.59208706
   2.54810186  4.65162445  6.54784827
   6.46992875  2.20696123  8.28494852
  -5.19990462 12.91038985  7.50382992
   0.01884513  0.02395341  8.11174246
  -3.88839192 10.84756138  8.40436066
  -2.92458932  8.42348863  8.69883801
   1.36645876  6.36225535  8.25805040
   1.35654429 10.77465225  8.22735337
  -1.26504615 10.79188931  8.05347854
   2.71340233  8.38171579  9.15320703
  -1.55180304  6.30481710  8.14995051
  11.47989942  6.28518247  7.32459801
   7.78778482  4.18198871  7.21253739
   9.15844702  2.18662456  8.31999352
   5.17993447 12.74146382  7.85986635
  -2.52846187  4.55728255  6.36388099
  10.31673907  4.14729478  6.37608066
  14.14724071  1.89699681  7.31019871
  10.32989233 -0.07419581  9.06327939
   7.79739353 -0.05698248  8.37159388
   3.90973315 10.75889807  8.97454646
   5.31200020  8.57304140  8.60940626
   8.97376460  6.45889925  6.64854338
  -6.36703523 11.16966645  9.21777717
   6.50359192 11.07767846  9.50963461
  -5.18459756  8.87031130  7.30052014
   6.54129006  6.29245278  8.12818855
   3.94992190  6.46481369  7.84830895
  -0.15001528  7.70467122  9.37095236
 


--------------------------------------------------------------------------------------------------------


 k-point  1 :   0.0000 0.0000 0.0000  plane waves:   70941
 k-point  2 :   0.3333 0.0000 0.0000  plane waves:   70894
 k-point  3 :  -0.0000 0.3333 0.0000  plane waves:   70932
 k-point  4 :   0.3333 0.3333 0.0000  plane waves:   70893
 k-point  5 :  -0.3333 0.3333 0.0000  plane waves:   70941

 maximum and minimum number of plane-waves per node :      5930     5886

 maximum number of plane-waves:     70941
 maximum index in each direction: 
   IXMAX=   26   IYMAX=   26   IZMAX=   28
   IXMIN=  -26   IYMIN=  -26   IZMIN=  -28


 parallel 3D FFT for wavefunctions:
    minimum data exchange during FFTs selected (reduces bandwidth)
 parallel 3D FFT for charge:
    minimum data exchange during FFTs selected (reduces bandwidth)


 total amount of memory used by VASP MPI-rank0   108045. kBytes
=======================================================================

   base      :      30000. kBytes
   nonl-proj :      18186. kBytes
   fftplans  :       5294. kBytes
   grid      :      14279. kBytes
   one-center:        155. kBytes
   wavefun   :      40131. kBytes
 
     INWAV:  cpu time    0.0000: real time    0.0002
 Broyden mixing: mesh for mixing (old mesh)
   NGX = 53   NGY = 53   NGZ = 57
  (NGX  =160   NGY  =160   NGZ  =180)
  gives a total of 160113 points

 initial charge density was supplied:
 charge density of overlapping atoms calculated
 number of electron     270.0000000 magnetization       1.0000000
 keeping initial charge density in first step


--------------------------------------------------------------------------------------------------------


 Maximum index for augmentation-charges          338 (set IRDMAX)


--------------------------------------------------------------------------------------------------------


 First call to EWALD:  gamma=   0.118
 Maximum number of real-space cells 3x 3x 3
 Maximum number of reciprocal cells 3x 3x 3

    FEWALD:  cpu time    0.0043: real time    0.0044


--------------------------------------- Iteration      1(   1)  ---------------------------------------


    POTLOK:  cpu time    0.2080: real time    0.2350
    SETDIJ:  cpu time    0.0086: real time    0.0093
     EDDAV:  cpu time   10.1197: real time   10.2229
 BZINTS: Fermi energy:  7.401537;270.000000 electrons
         Band energy:***********;  BLOECHL correction: -0.010588
       DOS:  cpu time    0.0710: real time    0.0712
    --------------------------------------------
      LOOP:  cpu time   10.4074: real time   10.5384

 eigenvalue-minimisations  :  3872
 total energy-change (2. order) : 0.2350178E+04  (-0.9091250E+04)
 number of electron     270.0000000 magnetization       1.0000000
 augmentation part      270.0000000 magnetization       1.0000000

 Free energy of the ion-electron system (eV)
  ---------------------------------------------------
  alpha Z        PSCENC =       102.69108000
  Ewald energy   TEWEN  =     24449.40586942
  -Hartree energ DENC   =    -36161.66852838
  -exchange      EXHF   =         0.00000000
  -V(xc)+E(xc)   XCENC  =       988.46923337
  PAW double counting   =     10998.91041168   -11485.61342155
  entropy T*S    EENTRO =         0.00000000
  eigenvalues    EBANDS =     -1134.27700004
  atomic energy  EATOM  =     14592.26033195
  Solvation  Ediel_sol  =         0.00000000
  ---------------------------------------------------
  free energy    TOTEN  =      2350.17797647 eV

  energy without entropy =     2350.17797647  energy(sigma->0) =     2350.17797647


--------------------------------------------------------------------------------------------------------




--------------------------------------- Iteration      1(   2)  ---------------------------------------


     EDDAV:  cpu time   13.1191: real time   13.3546
 BZINTS: Fermi energy: -0.586022;270.000000 electrons
         Band energy:***********;  BLOECHL correction:  0.000000
       DOS:  cpu time    0.0043: real time    0.0043
    --------------------------------------------
      LOOP:  cpu time   13.1234: real time   13.3589

 eigenvalue-minimisations  :  4840
 total energy-change (2. order) :-0.2218735E+04  (-0.2117755E+04)
 number of electron     270.0000000 magnetization       1.0000000
 augmentation part      270.0000000 magnetization       1.0000000

 Free energy of the ion-electron system (eV)
  ---------------------------------------------------
  alpha Z        PSCENC =       102.69108000
  Ewald energy   TEWEN  =     24449.40586942
  -Hartree energ DENC   =    -36161.66852838
  -exchange      EXHF   =         0.00000000
  -V(xc)+E(xc)   XCENC  =       988.46923337
  PAW double counting   =     10998.91041168   -11485.61342155
  entropy T*S    EENTRO =         0.00000000
  eigenvalues    EBANDS =     -3353.01212712
  atomic energy  EATOM  =     14592.26033195
  Solvation  Ediel_sol  =         0.00000000
  ---------------------------------------------------
  free energy    TOTEN  =       131.44284939 eV

  energy without entropy =      131.44284939  energy(sigma->0) =      131.44284939


--------------------------------------------------------------------------------------------------------




--------------------------------------- Iteration      1(   3)  ---------------------------------------


     EDDAV:  cpu time   11.5903: real time   11.8291
 BZINTS: Fermi energy: -3.643973;270.000000 electrons
         Band energy:***********;  BLOECHL correction:  0.000000
       DOS:  cpu time    0.0046: real time    0.0046
    --------------------------------------------
      LOOP:  cpu time   11.5949: real time   11.8337

 eigenvalue-minimisations  :  4240
 total energy-change (2. order) :-0.5636704E+03  (-0.5583925E+03)
 number of electron     270.0000000 magnetization       1.0000000
 augmentation part      270.0000000 magnetization       1.0000000

 Free energy of the ion-electron system (eV)
  ---------------------------------------------------
  alpha Z        PSCENC =       102.69108000
  Ewald energy   TEWEN  =     24449.40586942
  -Hartree energ DENC   =    -36161.66852838
  -exchange      EXHF   =         0.00000000
  -V(xc)+E(xc)   XCENC  =       988.46923337
  PAW double counting   =     10998.91041168   -11485.61342155
  entropy T*S    EENTRO =         0.00000000
  eigenvalues    EBANDS =     -3916.68255143
  atomic energy  EATOM  =     14592.26033195
  Solvation  Ediel_sol  =         0.00000000
  ---------------------------------------------------
  free energy    TOTEN  =      -432.22757493 eV

  energy without entropy =     -432.22757493  energy(sigma->0) =     -432.22757493


--------------------------------------------------------------------------------------------------------




--------------------------------------- Iteration      1(   4)  ---------------------------------------


     EDDAV:  cpu time   11.0449: real time   11.1867
 BZINTS: Fermi energy: -4.116279;270.000000 electrons
         Band energy:***********;  BLOECHL correction:  0.000000
       DOS:  cpu time    0.0039: real time    0.0039
    --------------------------------------------
      LOOP:  cpu time   11.0488: real time   11.1907

 eigenvalue-minimisations  :  4048
 total energy-change (2. order) :-0.2802962E+02  (-0.2712513E+02)
 number of electron     270.0000000 magnetization       1.0000000
 augmentation part      270.0000000 magnetization       1.0000000

 Free energy of the ion-electron system (eV)
  ---------------------------------------------------
  alpha Z        PSCENC =       102.69108000
  Ewald energy   TEWEN  =     24449.40586942
  -Hartree energ DENC   =    -36161.66852838
  -exchange      EXHF   =         0.00000000
  -V(xc)+E(xc)   XCENC  =       988.46923337
  PAW double counting   =     10998.91041168   -11485.61342155
  entropy T*S    EENTRO =         0.00000000
  eigenvalues    EBANDS =     -3944.71216813
  atomic energy  EATOM  =     14592.26033195
  Solvation  Ediel_sol  =         0.00000000
  ---------------------------------------------------
  free energy    TOTEN  =      -460.25719163 eV

  energy without entropy =     -460.25719163  energy(sigma->0) =     -460.25719163


--------------------------------------------------------------------------------------------------------




--------------------------------------- Iteration      1(   5)  ---------------------------------------


     EDDAV:  cpu time   14.0834: real time   14.2692
 BZINTS: Fermi energy: -4.150038;270.000000 electrons
         Band energy:***********;  BLOECHL correction:  0.000000
       DOS:  cpu time    0.0038: real time    0.0038
    CHARGE:  cpu time    0.1783: real time    0.1834
    MIXING:  cpu time    0.0049: real time    0.0050
    --------------------------------------------
      LOOP:  cpu time   14.2704: real time   14.4614

 eigenvalue-minimisations  :  5088
 total energy-change (2. order) :-0.1571987E+01  (-0.1553570E+01)
 number of electron     270.0000001 magnetization       0.0000001
 augmentation part       17.2170198 magnetization       0.0016652

 Broyden mixing:
  rms(total) = 0.32891E+01    rms(broyden)= 0.32858E+01
  rms(prec ) = 0.36482E+01
  weight for this iteration     100.00

 Free energy of the ion-electron system (eV)
  ---------------------------------------------------
  alpha Z        PSCENC =       102.69108000
  Ewald energy   TEWEN  =     24449.40586942
  -Hartree energ DENC   =    -36161.66852838
  -exchange      EXHF   =         0.00000000
  -V(xc)+E(xc)   XCENC  =       988.46923337
  PAW double counting   =     10998.91041168   -11485.61342155
  entropy T*S    EENTRO =         0.00000000
  eigenvalues    EBANDS =     -3946.28415507
  atomic energy  EATOM  =     14592.26033195
  Solvation  Ediel_sol  =         0.00000000
  ---------------------------------------------------
  free energy    TOTEN  =      -461.82917856 eV

  energy without entropy =     -461.82917856  energy(sigma->0) =     -461.82917856


--------------------------------------------------------------------------------------------------------




--------------------------------------- Iteration      1(   6)  ---------------------------------------


    POTLOK:  cpu time    0.2061: real time    0.2094
    SETDIJ:  cpu time    0.0107: real time    0.0107
     EDDAV:  cpu time   11.6580: real time   11.7491
 BZINTS: Fermi energy: -4.410103;270.000000 electrons
         Band energy:***********;  BLOECHL correction:  0.000000
       DOS:  cpu time    0.0037: real time    0.0037
    CHARGE:  cpu time    0.1765: real time    0.1793
    MIXING:  cpu time    0.0043: real time    0.0044
    --------------------------------------------
      LOOP:  cpu time   12.0593: real time   12.1566

 eigenvalue-minimisations  :  4600
 total energy-change (2. order) : 0.1810659E+02  (-0.6489709E+01)
 number of electron     270.0000003 magnetization      -0.0000000
 augmentation part       15.9492600 magnetization      -0.0044859

 Broyden mixing:
  rms(total) = 0.18799E+01    rms(broyden)= 0.18790E+01
  rms(prec ) = 0.20088E+01
  weight for this iteration     100.00

 eigenvalues of (default mixing * dielectric matrix)
  average eigenvalue GAMMA=   1.1092
  1.1092

 Free energy of the ion-electron system (eV)
  ---------------------------------------------------
  alpha Z        PSCENC =       102.69108000
  Ewald energy   TEWEN  =     24449.40586942
  -Hartree energ DENC   =    -36306.54699162
  -exchange      EXHF   =         0.00000000
  -V(xc)+E(xc)   XCENC  =       998.36954962
  PAW double counting   =     13051.59151232   -13538.19075560
  entropy T*S    EENTRO =         0.00000000
  eigenvalues    EBANDS =     -3793.30318632
  atomic energy  EATOM  =     14592.26033195
  Solvation  Ediel_sol  =         0.00000000
  ---------------------------------------------------
  free energy    TOTEN  =      -443.72259023 eV

  energy without entropy =     -443.72259023  energy(sigma->0) =     -443.72259023


--------------------------------------------------------------------------------------------------------




--------------------------------------- Iteration      1(   7)  ---------------------------------------


    POTLOK:  cpu time    0.1539: real time    0.1567
    SETDIJ:  cpu time    0.0088: real time    0.0089
     EDDAV:  cpu time   11.0417: real time   11.1967
 BZINTS: Fermi energy: -4.230058;270.000000 electrons
         Band energy:***********;  BLOECHL correction:  0.000000
       DOS:  cpu time    0.0037: real time    0.0038
    CHARGE:  cpu time    0.1765: real time    0.1790
    MIXING:  cpu time    0.0043: real time    0.0043
    --------------------------------------------
      LOOP:  cpu time   11.3890: real time   11.5494

 eigenvalue-minimisations  :  4160
 total energy-change (2. order) : 0.7784455E+00  (-0.1775721E+01)
 number of electron     270.0000005 magnetization      -0.0000000
 augmentation part       15.8548934 magnetization       0.0000567

 Broyden mixing:
  rms(total) = 0.13625E+01    rms(broyden)= 0.13621E+01
  rms(prec ) = 0.14778E+01
  weight for this iteration     100.00

 eigenvalues of (default mixing * dielectric matrix)
  average eigenvalue GAMMA=   1.2139
  0.8644  1.5634

 Free energy of the ion-electron system (eV)
  ---------------------------------------------------
  alpha Z        PSCENC =       102.69108000
  Ewald energy   TEWEN  =     24449.40586942
  -Hartree energ DENC   =    -36398.24333290
  -exchange      EXHF   =         0.00000000
  -V(xc)+E(xc)   XCENC  =      1002.26166951
  PAW double counting   =     14827.82662893   -15314.85074494
  entropy T*S    EENTRO =         0.00000000
  eigenvalues    EBANDS =     -3704.29564673
  atomic energy  EATOM  =     14592.26033195
  Solvation  Ediel_sol  =         0.00000000
  ---------------------------------------------------
  free energy    TOTEN  =      -442.94414475 eV

  energy without entropy =     -442.94414475  energy(sigma->0) =     -442.94414475


--------------------------------------------------------------------------------------------------------




--------------------------------------- Iteration      1(   8)  ---------------------------------------


    POTLOK:  cpu time    0.1515: real time    0.1540
    SETDIJ:  cpu time    0.0089: real time    0.0090
     EDDAV:  cpu time   10.8476: real time   10.9446
 BZINTS: Fermi energy: -4.056264;270.000000 electrons
         Band energy:***********;  BLOECHL correction:  0.000000
       DOS:  cpu time    0.0039: real time    0.0039
    CHARGE:  cpu time    0.1762: real time    0.1783
    MIXING:  cpu time    0.0036: real time    0.0036
    --------------------------------------------
      LOOP:  cpu time   11.1919: real time   11.2934

 eigenvalue-minimisations  :  4160
 total energy-change (2. order) : 0.8465958E+00  (-0.1022574E+01)
 number of electron     270.0000003 magnetization       0.0000000
 augmentation part       15.6514525 magnetization       0.0006478

 Broyden mixing:
  rms(total) = 0.99277E+00    rms(broyden)= 0.99252E+00
  rms(prec ) = 0.10996E+01
  weight for this iteration     100.00

 eigenvalues of (default mixing * dielectric matrix)
  average eigenvalue GAMMA=   1.4322
  2.6532  1.0775  0.5660

 Free energy of the ion-electron system (eV)
  ---------------------------------------------------
  alpha Z        PSCENC =       102.69108000
  Ewald energy   TEWEN  =     24449.40586942
  -Hartree energ DENC   =    -36444.90759622
  -exchange      EXHF   =         0.00000000
  -V(xc)+E(xc)   XCENC  =      1004.56702666
  PAW double counting   =     16327.28473480   -16815.37223857
  entropy T*S    EENTRO =         0.00000000
  eigenvalues    EBANDS =     -3658.02675703
  atomic energy  EATOM  =     14592.26033195
  Solvation  Ediel_sol  =         0.00000000
  ---------------------------------------------------
  free energy    TOTEN  =      -442.09754899 eV

  energy without entropy =     -442.09754899  energy(sigma->0) =     -442.09754899


--------------------------------------------------------------------------------------------------------




--------------------------------------- Iteration      1(   9)  ---------------------------------------


    POTLOK:  cpu time    0.1553: real time    0.1582
    SETDIJ:  cpu time    0.0092: real time    0.0092
     EDDAV:  cpu time   12.3548: real time   12.5043
 BZINTS: Fermi energy: -3.936234;270.000000 electrons
         Band energy:***********;  BLOECHL correction:  0.000000
       DOS:  cpu time    0.0040: real time    0.0040
    CHARGE:  cpu time    0.1764: real time    0.1782
    MIXING:  cpu time    0.0038: real time    0.0038
    --------------------------------------------
      LOOP:  cpu time   12.7035: real time   12.8577

 eigenvalue-minimisations  :  4920
 total energy-change (2. order) :-0.2970935E+00  (-0.2025840E+01)
 number of electron     270.0000002 magnetization       0.0000000
 augmentation part       15.8115931 magnetization      -0.0000965

 Broyden mixing:
  rms(total) = 0.67101E+00    rms(broyden)= 0.67061E+00
  rms(prec ) = 0.84820E+00
  weight for this iteration     100.00

 eigenvalues of (default mixing * dielectric matrix)
  average eigenvalue GAMMA=   1.4060
  3.4116  1.1071  0.5527  0.5527

 Free energy of the ion-electron system (eV)
  ---------------------------------------------------
  alpha Z        PSCENC =       102.69108000
  Ewald energy   TEWEN  =     24449.40586942
  -Hartree energ DENC   =    -36485.35294331
  -exchange      EXHF   =         0.00000000
  -V(xc)+E(xc)   XCENC  =      1006.18743820
  PAW double counting   =     18175.84175006   -18667.51875618
  entropy T*S    EENTRO =         0.00000000
  eigenvalues    EBANDS =     -3615.90941260
  atomic energy  EATOM  =     14592.26033195
  Solvation  Ediel_sol  =         0.00000000
  ---------------------------------------------------
  free energy    TOTEN  =      -442.39464246 eV

  energy without entropy =     -442.39464246  energy(sigma->0) =     -442.39464246


--------------------------------------------------------------------------------------------------------




--------------------------------------- Iteration      1(  10)  ---------------------------------------


    POTLOK:  cpu time    0.1911: real time    0.1945
    SETDIJ:  cpu time    0.0088: real time    0.0088
     EDDAV:  cpu time   11.7526: real time   11.9096
 BZINTS: Fermi energy: -3.536134;270.000000 electrons
         Band energy:***********;  BLOECHL correction:  0.000000
       DOS:  cpu time    0.0039: real time    0.0039
    CHARGE:  cpu time    0.1764: real time    0.1777
    MIXING:  cpu time    0.0040: real time    0.0040
    --------------------------------------------
      LOOP:  cpu time   12.1368: real time   12.2985

 eigenvalue-minimisations  :  4576
 total energy-change (2. order) : 0.9232700E+00  (-0.6551451E+00)
 number of electron     270.0000005 magnetization       0.0000000
 augmentation part       15.8110813 magnetization       0.0001564

 Broyden mixing:
  rms(total) = 0.33114E+00    rms(broyden)= 0.33008E+00
  rms(prec ) = 0.44293E+00
  weight for this iteration     100.00

 eigenvalues of (default mixing * dielectric matrix)
  average eigenvalue GAMMA=   1.3135
  3.6947  1.1181  0.8003  0.4772  0.4772

 Free energy of the ion-electron system (eV)
  ---------------------------------------------------
  alpha Z        PSCENC =       102.69108000
  Ewald energy   TEWEN  =     24449.40586942
  -Hartree energ DENC   =    -36514.20023253
  -exchange      EXHF   =         0.00000000
  -V(xc)+E(xc)   XCENC  =      1007.82632892
  PAW double counting   =     19630.58575456   -20122.58291605
  entropy T*S    EENTRO =         0.00000000
  eigenvalues    EBANDS =     -3587.45758871
  atomic energy  EATOM  =     14592.26033195
  Solvation  Ediel_sol  =         0.00000000
  ---------------------------------------------------
  free energy    TOTEN  =      -441.47137243 eV

  energy without entropy =     -441.47137243  energy(sigma->0) =     -441.47137243


--------------------------------------------------------------------------------------------------------




--------------------------------------- Iteration      1(  11)  ---------------------------------------


    POTLOK:  cpu time    0.1703: real time    0.1734
    SETDIJ:  cpu time    0.0098: real time    0.0099
     EDDAV:  cpu time   11.3029: real time   11.3992
 BZINTS: Fermi energy: -3.556139;270.000000 electrons
         Band energy:***********;  BLOECHL correction:  0.000000
       DOS:  cpu time    0.0040: real time    0.0040
    CHARGE:  cpu time    0.1746: real time    0.1768
    MIXING:  cpu time    0.0404: real time    0.0418
    --------------------------------------------
      LOOP:  cpu time   11.7020: real time   11.8051

 eigenvalue-minimisations  :  4248
 total energy-change (2. order) : 0.1253585E+00  (-0.1713665E+00)
 number of electron     270.0000003 magnetization       0.0000000
 augmentation part       15.7976737 magnetization       0.0001362

 Broyden mixing:
  rms(total) = 0.26230E+00    rms(broyden)= 0.26170E+00
  rms(prec ) = 0.36059E+00
  weight for this iteration     100.00

 eigenvalues of (default mixing * dielectric matrix)
  average eigenvalue GAMMA=   1.2209
  3.6983  1.0821  0.8393  0.8393  0.4332  0.4332

 Free energy of the ion-electron system (eV)
  ---------------------------------------------------
  alpha Z        PSCENC =       102.69108000
  Ewald energy   TEWEN  =     24449.40586942
  -Hartree energ DENC   =    -36519.97994767
  -exchange      EXHF   =         0.00000000
  -V(xc)+E(xc)   XCENC  =      1008.18774261
  PAW double counting   =     20151.50607912   -20643.17051633
  entropy T*S    EENTRO =         0.00000000
  eigenvalues    EBANDS =     -3582.24665308
  atomic energy  EATOM  =     14592.26033195
  Solvation  Ediel_sol  =         0.00000000
  ---------------------------------------------------
  free energy    TOTEN  =      -441.34601397 eV

  energy without entropy =     -441.34601397  energy(sigma->0) =     -441.34601397


--------------------------------------------------------------------------------------------------------




--------------------------------------- Iteration      1(  12)  ---------------------------------------


    POTLOK:  cpu time    0.1576: real time    0.1606
    SETDIJ:  cpu time    0.0100: real time    0.0100
     EDDAV:  cpu time   11.7606: real time   11.8730
 BZINTS: Fermi energy: -3.531133;270.000000 electrons
         Band energy:***********;  BLOECHL correction:  0.000000
       DOS:  cpu time    0.0039: real time    0.0039
    CHARGE:  cpu time    0.1752: real time    0.1762
    MIXING:  cpu time    0.0042: real time    0.0042
    --------------------------------------------
      LOOP:  cpu time   12.1115: real time   12.2278

 eigenvalue-minimisations  :  4480
 total energy-change (2. order) : 0.1323166E+00  (-0.1327036E+00)
 number of electron     270.0000004 magnetization      -0.0000000
 augmentation part       15.7427966 magnetization       0.0000920

 Broyden mixing:
  rms(total) = 0.12877E+00    rms(broyden)= 0.12821E+00
  rms(prec ) = 0.15257E+00
  weight for this iteration     100.00

 eigenvalues of (default mixing * dielectric matrix)
  average eigenvalue GAMMA=   1.2026
  3.6377  1.3735  1.1488  0.6987  0.6987  0.4306  0.4306

 Free energy of the ion-electron system (eV)
  ---------------------------------------------------
  alpha Z        PSCENC =       102.69108000
  Ewald energy   TEWEN  =     24449.40586942
  -Hartree energ DENC   =    -36516.57094972
  -exchange      EXHF   =         0.00000000
  -V(xc)+E(xc)   XCENC  =      1008.10415856
  PAW double counting   =     20245.42756606   -20736.50120248
  entropy T*S    EENTRO =         0.00000000
  eigenvalues    EBANDS =     -3586.03055112
  atomic energy  EATOM  =     14592.26033195
  Solvation  Ediel_sol  =         0.00000000
  ---------------------------------------------------
  free energy    TOTEN  =      -441.21369732 eV

  energy without entropy =     -441.21369732  energy(sigma->0) =     -441.21369732


--------------------------------------------------------------------------------------------------------




--------------------------------------- Iteration      1(  13)  ---------------------------------------


    POTLOK:  cpu time    0.1332: real time    0.1357
    SETDIJ:  cpu time    0.0107: real time    0.0107
     EDDAV:  cpu time   10.5570: real time   10.7117
 BZINTS: Fermi energy: -3.556139;270.000000 electrons
         Band energy:***********;  BLOECHL correction:  0.000000
       DOS:  cpu time    0.0039: real time    0.0039
    CHARGE:  cpu time    0.1753: real time    0.1768
    MIXING:  cpu time    0.0042: real time    0.0043
    --------------------------------------------
      LOOP:  cpu time   10.8843: real time   11.0431

 eigenvalue-minimisations  :  3992
 total energy-change (2. order) : 0.1756665E-01  (-0.1484690E-01)
 number of electron     270.0000004 magnetization       0.0000000
 augmentation part       15.7402936 magnetization       0.0000393

 Broyden mixing:
  rms(total) = 0.72760E-01    rms(broyden)= 0.72735E-01
  rms(prec ) = 0.80059E-01
  weight for this iteration     100.00

 eigenvalues of (default mixing * dielectric matrix)
  average eigenvalue GAMMA=   1.2397
  3.5813  2.1938  1.0596  0.7327  0.7327  0.7625  0.4275  0.4275

 Free energy of the ion-electron system (eV)
  ---------------------------------------------------
  alpha Z        PSCENC =       102.69108000
  Ewald energy   TEWEN  =     24449.40586942
  -Hartree energ DENC   =    -36506.95751497
  -exchange      EXHF   =         0.00000000
  -V(xc)+E(xc)   XCENC  =      1007.73187380
  PAW double counting   =     20285.67872441   -20776.56824445
  entropy T*S    EENTRO =         0.00000000
  eigenvalues    EBANDS =     -3595.43825083
  atomic energy  EATOM  =     14592.26033195
  Solvation  Ediel_sol  =         0.00000000
  ---------------------------------------------------
  free energy    TOTEN  =      -441.19613067 eV

  energy without entropy =     -441.19613067  energy(sigma->0) =     -441.19613067


--------------------------------------------------------------------------------------------------------




--------------------------------------- Iteration      1(  14)  ---------------------------------------


    POTLOK:  cpu time    0.1686: real time    0.1714
    SETDIJ:  cpu time    0.0091: real time    0.0093
     EDDAV:  cpu time   10.8404: real time   10.9580
 BZINTS: Fermi energy: -3.584896;270.000000 electrons
         Band energy:***********;  BLOECHL correction:  0.000000
       DOS:  cpu time    0.0037: real time    0.0038
    CHARGE:  cpu time    0.1926: real time    0.1937
    MIXING:  cpu time    0.0046: real time    0.0046
    --------------------------------------------
      LOOP:  cpu time   11.2190: real time   11.3407

 eigenvalue-minimisations  :  4088
 total energy-change (2. order) : 0.5230032E-02  (-0.4142616E-02)
 number of electron     270.0000004 magnetization       0.0000000
 augmentation part       15.7507338 magnetization       0.0000060

 Broyden mixing:
  rms(total) = 0.40480E-01    rms(broyden)= 0.40460E-01
  rms(prec ) = 0.45245E-01
  weight for this iteration     100.00

 eigenvalues of (default mixing * dielectric matrix)
  average eigenvalue GAMMA=   1.2702
  3.6347  2.6356  0.9995  0.9301  0.9301  0.7250  0.7250  0.4257  0.4257

 Free energy of the ion-electron system (eV)
  ---------------------------------------------------
  alpha Z        PSCENC =       102.69108000
  Ewald energy   TEWEN  =     24449.40586942
  -Hartree energ DENC   =    -36499.37029763
  -exchange      EXHF   =         0.00000000
  -V(xc)+E(xc)   XCENC  =      1007.41853095
  PAW double counting   =     20342.30471060   -20833.11165076
  entropy T*S    EENTRO =         0.00000000
  eigenvalues    EBANDS =     -3602.78947516
  atomic energy  EATOM  =     14592.26033195
  Solvation  Ediel_sol  =         0.00000000
  ---------------------------------------------------
  free energy    TOTEN  =      -441.19090064 eV

  energy without entropy =     -441.19090064  energy(sigma->0) =     -441.19090064


--------------------------------------------------------------------------------------------------------




--------------------------------------- Iteration      1(  15)  ---------------------------------------


    POTLOK:  cpu time    0.1585: real time    0.1608
    SETDIJ:  cpu time    0.0094: real time    0.0095
     EDDAV:  cpu time   11.0912: real time   11.2200
 BZINTS: Fermi energy: -3.594899;270.000000 electrons
         Band energy:***********;  BLOECHL correction:  0.000000
       DOS:  cpu time    0.0037: real time    0.0037
    CHARGE:  cpu time    0.1836: real time    0.1847
    MIXING:  cpu time    0.0047: real time    0.0047
    --------------------------------------------
      LOOP:  cpu time   11.4511: real time   11.5834

 eigenvalue-minimisations  :  4184
 total energy-change (2. order) :-0.1696252E-04  (-0.3090993E-02)
 number of electron     270.0000004 magnetization      -0.0000000
 augmentation part       15.7542195 magnetization       0.0000345

 Broyden mixing:
  rms(total) = 0.36621E-01    rms(broyden)= 0.36547E-01
  rms(prec ) = 0.48032E-01
  weight for this iteration     100.00

 eigenvalues of (default mixing * dielectric matrix)
  average eigenvalue GAMMA=   1.2797
  3.6825  2.8288  1.1397  1.0391  1.0391  0.7215  0.7215  0.7706  0.4273  0.4273

 Free energy of the ion-electron system (eV)
  ---------------------------------------------------
  alpha Z        PSCENC =       102.69108000
  Ewald energy   TEWEN  =     24449.40586942
  -Hartree energ DENC   =    -36497.12716580
  -exchange      EXHF   =         0.00000000
  -V(xc)+E(xc)   XCENC  =      1007.31790208
  PAW double counting   =     20394.06865361   -20884.86445232
  entropy T*S    EENTRO =         0.00000000
  eigenvalues    EBANDS =     -3604.94313654
  atomic energy  EATOM  =     14592.26033195
  Solvation  Ediel_sol  =         0.00000000
  ---------------------------------------------------
  free energy    TOTEN  =      -441.19091760 eV

  energy without entropy =     -441.19091760  energy(sigma->0) =     -441.19091760


--------------------------------------------------------------------------------------------------------




--------------------------------------- Iteration      1(  16)  ---------------------------------------


    POTLOK:  cpu time    0.1626: real time    0.1657
    SETDIJ:  cpu time    0.0364: real time    0.0365
     EDDAV:  cpu time   11.0530: real time   11.1974
 BZINTS: Fermi energy: -3.591148;270.000000 electrons
         Band energy:***********;  BLOECHL correction:  0.000000
       DOS:  cpu time    0.0039: real time    0.0039
    CHARGE:  cpu time    0.1962: real time    0.1976
    MIXING:  cpu time    0.0050: real time    0.0052
    --------------------------------------------
      LOOP:  cpu time   11.4571: real time   11.6062

 eigenvalue-minimisations  :  4192
 total energy-change (2. order) :-0.4433061E-03  (-0.5340213E-02)
 number of electron     270.0000004 magnetization      -0.0000000
 augmentation part       15.7529567 magnetization      -0.0000272

 Broyden mixing:
  rms(total) = 0.36950E-01    rms(broyden)= 0.36822E-01
  rms(prec ) = 0.50505E-01
  weight for this iteration     100.00

 eigenvalues of (default mixing * dielectric matrix)
  average eigenvalue GAMMA=   1.2548
  3.6929  2.9287  1.3103  1.1394  1.1394  0.7325  0.7325  0.4292  0.4292  0.6345
  0.6345

 Free energy of the ion-electron system (eV)
  ---------------------------------------------------
  alpha Z        PSCENC =       102.69108000
  Ewald energy   TEWEN  =     24449.40586942
  -Hartree energ DENC   =    -36496.73509892
  -exchange      EXHF   =         0.00000000
  -V(xc)+E(xc)   XCENC  =      1007.30273202
  PAW double counting   =     20411.98024277   -20902.76743386
  entropy T*S    EENTRO =         0.00000000
  eigenvalues    EBANDS =     -3605.32908428
  atomic energy  EATOM  =     14592.26033195
  Solvation  Ediel_sol  =         0.00000000
  ---------------------------------------------------
  free energy    TOTEN  =      -441.19136091 eV

  energy without entropy =     -441.19136091  energy(sigma->0) =     -441.19136091


--------------------------------------------------------------------------------------------------------




--------------------------------------- Iteration      1(  17)  ---------------------------------------


    POTLOK:  cpu time    0.1613: real time    0.1638
    SETDIJ:  cpu time    0.0094: real time    0.0094
     EDDAV:  cpu time   10.8999: real time   10.9809
 BZINTS: Fermi energy: -3.591148;270.000000 electrons
         Band energy:***********;  BLOECHL correction:  0.000000
       DOS:  cpu time    0.0045: real time    0.0047
    CHARGE:  cpu time    0.1981: real time    0.1992
    MIXING:  cpu time    0.0053: real time    0.0054
    --------------------------------------------
      LOOP:  cpu time   11.2785: real time   11.3634

 eigenvalue-minimisations  :  4144
 total energy-change (2. order) : 0.1801018E-02  (-0.2000730E-02)
 number of electron     270.0000004 magnetization      -0.0000000
 augmentation part       15.7535001 magnetization      -0.0000295

 Broyden mixing:
  rms(total) = 0.11149E-01    rms(broyden)= 0.11032E-01
  rms(prec ) = 0.13007E-01
  weight for this iteration     100.00

 eigenvalues of (default mixing * dielectric matrix)
  average eigenvalue GAMMA=   1.2943
  3.6116  3.0155  2.1205  1.0723  1.0723  1.0460  0.7362  0.7362  0.7804  0.4382
  0.4382  0.4648

 Free energy of the ion-electron system (eV)
  ---------------------------------------------------
  alpha Z        PSCENC =       102.69108000
  Ewald energy   TEWEN  =     24449.40586942
  -Hartree energ DENC   =    -36496.63093340
  -exchange      EXHF   =         0.00000000
  -V(xc)+E(xc)   XCENC  =      1007.30043404
  PAW double counting   =     20415.58142515   -20906.39014134
  entropy T*S    EENTRO =         0.00000000
  eigenvalues    EBANDS =     -3605.40762571
  atomic energy  EATOM  =     14592.26033195
  Solvation  Ediel_sol  =         0.00000000
  ---------------------------------------------------
  free energy    TOTEN  =      -441.18955989 eV

  energy without entropy =     -441.18955989  energy(sigma->0) =     -441.18955989


--------------------------------------------------------------------------------------------------------




--------------------------------------- Iteration      1(  18)  ---------------------------------------


    POTLOK:  cpu time    0.1578: real time    0.1609
    SETDIJ:  cpu time    0.0084: real time    0.0085
     EDDAV:  cpu time   10.4533: real time   10.5769
 BZINTS: Fermi energy: -3.591148;270.000000 electrons
         Band energy:***********;  BLOECHL correction:  0.000000
       DOS:  cpu time    0.0040: real time    0.0040
    CHARGE:  cpu time    0.2037: real time    0.2053
    MIXING:  cpu time    0.0060: real time    0.0060
    --------------------------------------------
      LOOP:  cpu time   10.8332: real time   10.9615

 eigenvalue-minimisations  :  3888
 total energy-change (2. order) :-0.3467406E-03  (-0.1008707E-03)
 number of electron     270.0000004 magnetization      -0.0000000
 augmentation part       15.7537911 magnetization      -0.0001429

 Broyden mixing:
  rms(total) = 0.77924E-02    rms(broyden)= 0.77838E-02
  rms(prec ) = 0.89044E-02
  weight for this iteration     100.00

 eigenvalues of (default mixing * dielectric matrix)
  average eigenvalue GAMMA=   1.1982
  3.6129  3.0078  2.1246  1.0703  1.0703  1.0478  0.7360  0.7360  0.7812  0.4394
  0.4394  0.4604  0.0506

 Free energy of the ion-electron system (eV)
  ---------------------------------------------------
  alpha Z        PSCENC =       102.69108000
  Ewald energy   TEWEN  =     24449.40586942
  -Hartree energ DENC   =    -36496.95866653
  -exchange      EXHF   =         0.00000000
  -V(xc)+E(xc)   XCENC  =      1007.31560308
  PAW double counting   =     20412.19189253   -20903.01473458
  entropy T*S    EENTRO =         0.00000000
  eigenvalues    EBANDS =     -3605.08128250
  atomic energy  EATOM  =     14592.26033195
  Solvation  Ediel_sol  =         0.00000000
  ---------------------------------------------------
  free energy    TOTEN  =      -441.18990663 eV

  energy without entropy =     -441.18990663  energy(sigma->0) =     -441.18990663


--------------------------------------------------------------------------------------------------------




--------------------------------------- Iteration      1(  19)  ---------------------------------------


    POTLOK:  cpu time    0.1614: real time    0.1639
    SETDIJ:  cpu time    0.0087: real time    0.0087
     EDDAV:  cpu time    7.4507: real time    7.5463
 BZINTS: Fermi energy: -3.586772;270.000000 electrons
         Band energy:***********;  BLOECHL correction:  0.000000
       DOS:  cpu time    0.0044: real time    0.0051
    CHARGE:  cpu time    0.1763: real time    0.1771
    MIXING:  cpu time    0.0059: real time    0.0059
    --------------------------------------------
      LOOP:  cpu time    7.8074: real time    7.9071

 eigenvalue-minimisations  :  2392
 total energy-change (2. order) :-0.1196482E-03  (-0.8176865E-04)
 number of electron     270.0000004 magnetization      -0.0000000
 augmentation part       15.7536618 magnetization      -0.0003093

 Broyden mixing:
  rms(total) = 0.98137E-02    rms(broyden)= 0.98006E-02
  rms(prec ) = 0.10672E-01
  weight for this iteration     100.00

 eigenvalues of (default mixing * dielectric matrix)
  average eigenvalue GAMMA=   1.2779
  3.6293  2.7518  2.7518  0.8902  1.1353  1.1353  1.1698  0.7359  0.7359  0.7959
  0.7959  0.4328  0.4328  0.4984

 Free energy of the ion-electron system (eV)
  ---------------------------------------------------
  alpha Z        PSCENC =       102.69108000
  Ewald energy   TEWEN  =     24449.40586942
  -Hartree energ DENC   =    -36497.16496519
  -exchange      EXHF   =         0.00000000
  -V(xc)+E(xc)   XCENC  =      1007.32519025
  PAW double counting   =     20411.02485834   -20901.84555532
  entropy T*S    EENTRO =         0.00000000
  eigenvalues    EBANDS =     -3604.88683572
  atomic energy  EATOM  =     14592.26033195
  Solvation  Ediel_sol  =         0.00000000
  ---------------------------------------------------
  free energy    TOTEN  =      -441.19002628 eV

  energy without entropy =     -441.19002628  energy(sigma->0) =     -441.19002628


--------------------------------------------------------------------------------------------------------




--------------------------------------- Iteration      1(  20)  ---------------------------------------


    POTLOK:  cpu time    0.1585: real time    0.1612
    SETDIJ:  cpu time    0.0098: real time    0.0107
     EDDAV:  cpu time    7.5477: real time    7.6500
 BZINTS: Fermi energy: -3.586772;270.000000 electrons
         Band energy:***********;  BLOECHL correction:  0.000000
       DOS:  cpu time    0.0043: real time    0.0044
    CHARGE:  cpu time    0.1778: real time    0.1786
    MIXING:  cpu time    0.0061: real time    0.0062
    --------------------------------------------
      LOOP:  cpu time    7.9043: real time    8.0111

 eigenvalue-minimisations  :  2176
 total energy-change (2. order) : 0.1789710E-03  (-0.5755748E-04)
 number of electron     270.0000004 magnetization       0.0000000
 augmentation part       15.7535831 magnetization      -0.0001523

 Broyden mixing:
  rms(total) = 0.85130E-02    rms(broyden)= 0.85084E-02
  rms(prec ) = 0.10288E-01
  weight for this iteration     100.00

 eigenvalues of (default mixing * dielectric matrix)
  average eigenvalue GAMMA=   1.3469
  3.5317  3.5317  3.1293  1.0848  1.1439  1.1439  1.2296  0.7406  0.7406  0.9263
  0.8229  0.8229  0.4338  0.4338  0.4877

 Free energy of the ion-electron system (eV)
  ---------------------------------------------------
  alpha Z        PSCENC =       102.69108000
  Ewald energy   TEWEN  =     24449.40586942
  -Hartree energ DENC   =    -36497.21833891
  -exchange      EXHF   =         0.00000000
  -V(xc)+E(xc)   XCENC  =      1007.32709904
  PAW double counting   =     20411.11188188   -20901.93451567
  entropy T*S    EENTRO =         0.00000000
  eigenvalues    EBANDS =     -3604.83325502
  atomic energy  EATOM  =     14592.26033195
  Solvation  Ediel_sol  =         0.00000000
  ---------------------------------------------------
  free energy    TOTEN  =      -441.18984731 eV

  energy without entropy =     -441.18984731  energy(sigma->0) =     -441.18984731


--------------------------------------------------------------------------------------------------------




--------------------------------------- Iteration      1(  21)  ---------------------------------------


    POTLOK:  cpu time    0.1567: real time    0.1591
    SETDIJ:  cpu time    0.0085: real time    0.0086
     EDDAV:  cpu time    7.6180: real time    7.7423
 BZINTS: Fermi energy: -3.589897;270.000000 electrons
         Band energy:***********;  BLOECHL correction:  0.000000
       DOS:  cpu time    0.0037: real time    0.0037
    CHARGE:  cpu time    0.2002: real time    0.2026
    MIXING:  cpu time    0.0068: real time    0.0068
    --------------------------------------------
      LOOP:  cpu time    7.9939: real time    8.1231

 eigenvalue-minimisations  :  2424
 total energy-change (2. order) : 0.1201713E-03  (-0.1561977E-03)
 number of electron     270.0000004 magnetization      -0.0000000
 augmentation part       15.7533019 magnetization       0.0001078

 Broyden mixing:
  rms(total) = 0.19553E-02    rms(broyden)= 0.18352E-02
  rms(prec ) = 0.19536E-02
  weight for this iteration     100.00

 eigenvalues of (default mixing * dielectric matrix)
  average eigenvalue GAMMA=   1.3526
  3.7467  3.7467  3.0061  1.0465  1.2039  1.2039  1.1561  1.1561  1.0306  0.7398
  0.7398  0.7548  0.7548  0.4337  0.4337  0.4880

 Free energy of the ion-electron system (eV)
  ---------------------------------------------------
  alpha Z        PSCENC =       102.69108000
  Ewald energy   TEWEN  =     24449.40586942
  -Hartree energ DENC   =    -36497.35107747
  -exchange      EXHF   =         0.00000000
  -V(xc)+E(xc)   XCENC  =      1007.33499375
  PAW double counting   =     20408.85465765   -20899.67274805
  entropy T*S    EENTRO =         0.00000000
  eigenvalues    EBANDS =     -3604.71283439
  atomic energy  EATOM  =     14592.26033195
  Solvation  Ediel_sol  =         0.00000000
  ---------------------------------------------------
  free energy    TOTEN  =      -441.18972714 eV

  energy without entropy =     -441.18972714  energy(sigma->0) =     -441.18972714


--------------------------------------------------------------------------------------------------------




--------------------------------------- Iteration      1(  22)  ---------------------------------------


    POTLOK:  cpu time    0.1593: real time    0.1620
    SETDIJ:  cpu time    0.0094: real time    0.0094
     EDDAV:  cpu time    7.0482: real time    7.1277
 BZINTS: Fermi energy: -3.589897;270.000000 electrons
         Band energy:***********;  BLOECHL correction:  0.000000
       DOS:  cpu time    0.0037: real time    0.0037
    CHARGE:  cpu time    0.1750: real time    0.1756
    MIXING:  cpu time    0.0064: real time    0.0065
    --------------------------------------------
      LOOP:  cpu time    7.4019: real time    7.4848

 eigenvalue-minimisations  :  2080
 total energy-change (2. order) :-0.1152105E-03  (-0.6954441E-05)
 number of electron     270.0000004 magnetization       0.0000000
 augmentation part       15.7532457 magnetization       0.0000920

 Broyden mixing:
  rms(total) = 0.12379E-02    rms(broyden)= 0.12323E-02
  rms(prec ) = 0.14251E-02
  weight for this iteration     100.00

 eigenvalues of (default mixing * dielectric matrix)
  average eigenvalue GAMMA=   1.3852
  3.9547  3.7373  2.9420  1.0482  1.9495  1.1475  1.1475  1.1878  1.1878  0.7394
  0.7394  0.9040  0.7536  0.7536  0.4337  0.4337  0.4882

 Free energy of the ion-electron system (eV)
  ---------------------------------------------------
  alpha Z        PSCENC =       102.69108000
  Ewald energy   TEWEN  =     24449.40586942
  -Hartree energ DENC   =    -36497.30812082
  -exchange      EXHF   =         0.00000000
  -V(xc)+E(xc)   XCENC  =      1007.33464449
  PAW double counting   =     20409.57339429   -20900.38465356
  entropy T*S    EENTRO =         0.00000000
  eigenvalues    EBANDS =     -3604.76238811
  atomic energy  EATOM  =     14592.26033195
  Solvation  Ediel_sol  =         0.00000000
  ---------------------------------------------------
  free energy    TOTEN  =      -441.18984235 eV

  energy without entropy =     -441.18984235  energy(sigma->0) =     -441.18984235


--------------------------------------------------------------------------------------------------------




--------------------------------------- Iteration      1(  23)  ---------------------------------------


    POTLOK:  cpu time    0.1674: real time    0.1697
    SETDIJ:  cpu time    0.0086: real time    0.0086
     EDDAV:  cpu time    6.7397: real time    6.8279
 BZINTS: Fermi energy: -3.589897;270.000000 electrons
         Band energy:***********;  BLOECHL correction:  0.000000
       DOS:  cpu time    0.0037: real time    0.0037
    --------------------------------------------
      LOOP:  cpu time    6.9193: real time    7.0099

 eigenvalue-minimisations  :  1976
 total energy-change (2. order) :-0.9830255E-06  (-0.2481057E-05)
 number of electron     270.0000004 magnetization       0.0000000
 augmentation part       15.7532457 magnetization       0.0000920

 Free energy of the ion-electron system (eV)
  ---------------------------------------------------
  alpha Z        PSCENC =       102.69108000
  Ewald energy   TEWEN  =     24449.40586942
  -Hartree energ DENC   =    -36497.23615523
  -exchange      EXHF   =         0.00000000
  -V(xc)+E(xc)   XCENC  =      1007.33237567
  PAW double counting   =     20409.28028654   -20900.08688956
  entropy T*S    EENTRO =         0.00000000
  eigenvalues    EBANDS =     -3604.83674212
  atomic energy  EATOM  =     14592.26033195
  Solvation  Ediel_sol  =         0.00000000
  ---------------------------------------------------
  free energy    TOTEN  =      -441.18984333 eV

  energy without entropy =     -441.18984333  energy(sigma->0) =     -441.18984333


--------------------------------------------------------------------------------------------------------




 average (electrostatic) potential at core
  the test charge radii are     0.6991  0.7089  0.9911
  (the norm of the test charge is              1.0000)
       1 -61.9026       2 -62.1601       3 -62.1357       4 -61.7585       5 -61.8080
       6 -61.7885       7 -62.0196       8 -61.9190       9 -61.8375      10 -62.2397
      11 -61.8603      12 -62.2042      13 -61.8557      14 -61.7614      15 -61.6467
      16 -61.7736      17 -61.7471      18 -61.7504      19 -62.0996      20 -61.8625
      21 -61.9141      22 -61.8091      23 -61.8479      24 -61.7814      25 -75.4912
[...]
   -.143E+02 0.245E+02 0.947E+02   0.945E+01 -.237E+02 -.950E+02   0.272E+01 -.604E+00 0.356E+00   -.583E-02 0.236E-03 0.167E-03
   0.527E+02 -.424E+02 -.657E+02   -.539E+02 0.432E+02 0.655E+02   0.181E+01 -.964E+00 -.218E+00   0.774E-03 -.303E-03 -.538E-03
   -.999E+01 0.405E+02 0.151E+03   0.107E+02 -.421E+02 -.151E+03   -.509E+00 0.167E+01 0.117E+01   0.776E-03 -.243E-02 -.247E-02
   -.490E+02 -.139E+02 0.726E+02   0.503E+02 0.147E+02 -.729E+02   -.193E+01 -.838E+00 0.668E+00   0.582E-03 -.131E-02 -.331E-03
   0.299E+02 -.246E+02 -.270E+02   -.305E+02 0.199E+02 0.253E+02   0.367E+00 0.300E+01 0.718E+00   -.271E-03 -.625E-03 -.827E-03
   0.228E+02 -.930E+01 -.372E+02   -.179E+02 0.124E+02 0.366E+02   -.319E+01 -.177E+01 0.302E+00   -.135E-02 -.129E-02 -.108E-03
   -.956E+01 0.181E+01 -.453E+02   0.455E+01 0.121E+01 0.448E+02   0.327E+01 -.164E+01 0.978E-01   0.209E-02 -.178E-02 -.501E-03
   -.172E+02 0.139E+02 -.543E+02   0.173E+02 -.122E+02 0.550E+02   0.912E+00 -.153E+01 -.113E+01   -.437E-02 0.280E-02 0.287E-02
   -.264E+01 0.174E+02 0.365E+02   0.257E+01 -.188E+02 -.353E+02   0.127E-01 0.237E+01 -.469E+00   -.210E-02 0.351E-03 0.166E-03
   0.234E+02 0.130E+02 -.497E+02   -.231E+02 -.109E+02 0.496E+02   -.106E+01 -.176E+01 -.935E+00   -.144E-02 -.249E-02 -.170E-02
   -.305E+01 -.162E+02 -.939E+01   0.306E+01 0.108E+02 0.111E+02   -.957E-01 0.358E+01 -.880E+00   0.328E-02 0.570E-03 -.107E-02
   0.323E+02 0.237E+02 0.145E+03   -.276E+02 -.211E+02 -.144E+03   -.290E+01 -.173E+01 0.143E+00   0.472E-02 -.829E-03 -.888E-03
   -.132E+02 0.194E+02 0.661E+02   0.851E+01 -.165E+02 -.650E+02   0.297E+01 -.149E+01 -.593E+00   0.770E-02 -.419E-02 -.135E-02
   0.509E+02 -.130E+02 0.500E+02   -.522E+02 0.138E+02 -.500E+02   0.198E+01 -.843E+00 0.333E+00   -.258E-03 0.672E-03 -.353E-03
   0.119E+01 0.575E+02 0.162E+03   -.181E+01 -.589E+02 -.162E+03   0.132E+00 0.178E+01 0.119E+01   -.151E-02 0.145E-02 0.181E-02
   -.504E+02 -.449E+02 -.745E+02   0.516E+02 0.456E+02 0.745E+02   -.187E+01 -.104E+01 -.370E+00   -.102E-02 0.225E-02 -.926E-03
   -.247E+02 -.242E+02 -.108E+03   0.252E+02 0.194E+02 0.106E+03   -.166E-01 0.287E+01 0.612E+00   -.352E-03 0.465E-02 0.413E-03
   0.123E+02 0.618E+00 -.833E+02   -.713E+01 0.231E+01 0.820E+02   -.321E+01 -.157E+01 0.325E+00   -.269E-03 0.154E-02 -.472E-04
   -.250E+02 -.597E+01 -.681E+02   0.200E+02 0.921E+01 0.666E+02   0.310E+01 -.184E+01 0.749E+00   -.812E-03 0.174E-02 0.483E-03
   0.548E+02 -.545E+02 0.104E+03   -.567E+02 0.549E+02 -.104E+03   0.183E+01 -.133E+01 -.377E-01   0.239E-02 -.414E-02 0.229E-03
   -.812E+01 0.335E+02 -.142E+03   0.809E+01 -.354E+02 0.143E+03   -.413E-02 0.240E+01 -.115E+01   0.196E-02 0.108E-03 -.292E-03
   -.641E+02 -.201E+02 -.457E+02   0.658E+02 0.203E+02 0.462E+02   -.204E+01 -.410E+00 -.764E+00   0.258E-02 0.223E-02 0.127E-02
   -.109E+02 0.276E+02 0.127E+03   0.111E+02 -.285E+02 -.129E+03   -.285E+00 0.462E+00 0.216E+01   -.152E-01 0.604E-04 -.494E-03
   -.148E+03 -.242E+02 0.170E+03   0.174E+03 0.388E+02 -.180E+03   -.296E+02 -.164E+02 0.117E+02   -.116E-02 -.498E-02 -.983E-04
   0.119E+03 -.117E+03 -.180E+03   -.145E+03 0.130E+03 0.189E+03   0.295E+02 -.155E+02 -.113E+02   0.143E-02 -.165E-02 -.129E-02
   0.409E+01 0.130E+03 0.298E+03   -.186E+01 -.155E+03 -.317E+03   -.280E+01 0.278E+02 0.221E+02   0.594E-02 -.614E-02 -.377E-02
   -.284E+02 0.106E+03 0.315E+03   0.256E+02 -.129E+03 -.336E+03   0.274E+01 0.255E+02 0.244E+02   -.930E-03 -.582E-02 -.586E-02
   0.147E+03 -.749E+02 -.854E+02   -.173E+03 0.922E+02 0.853E+02   0.287E+02 -.200E+02 -.366E+00   0.412E-02 -.401E-02 -.202E-03
   -.111E+03 -.618E+02 0.191E+03   0.137E+03 0.694E+02 -.208E+03   -.287E+02 -.860E+01 0.192E+02   0.484E-03 -.219E-02 0.586E-03
   -.350E+01 -.117E+01 -.182E+02   0.361E+01 0.132E+01 0.191E+02   -.179E+00 -.785E-01 -.106E+01   0.164E-02 -.229E-03 -.647E-03
   0.116E+02 -.171E+02 -.725E+02   -.120E+02 0.175E+02 0.766E+02   0.162E+00 -.527E+00 -.461E+01   0.514E-03 -.276E-02 -.468E-03
   -.163E+01 -.468E+02 -.229E+03   0.200E+02 0.576E+02 0.249E+03   -.203E+02 -.123E+02 -.224E+02   0.761E-03 -.234E-02 -.211E-02
   0.663E+01 0.516E+02 -.567E+02   -.233E+02 -.477E+02 0.660E+02   0.193E+02 -.411E+01 -.105E+02   -.801E-02 0.785E-02 0.631E-02
   -.119E+02 0.863E+02 0.933E+02   0.146E+02 -.116E+03 -.102E+03   -.319E+01 0.327E+02 0.100E+02   -.493E-02 0.101E-02 0.577E-03
   -.669E+00 0.841E+02 0.104E+03   -.126E+01 -.113E+03 -.113E+03   0.231E+01 0.326E+02 0.101E+02   -.151E-02 -.165E-02 0.947E-03
   0.314E+02 -.458E+02 -.252E+03   -.536E+02 0.570E+02 0.266E+03   0.245E+02 -.129E+02 -.174E+02   -.652E-02 0.224E-03 0.407E-03
   -.183E+01 0.588E+02 -.805E+02   0.170E+02 -.554E+02 0.929E+02   -.175E+02 -.344E+01 -.143E+02   -.483E-02 -.470E-03 -.123E-02
   0.370E+02 0.135E+02 0.574E+02   -.406E+02 -.161E+02 -.567E+02   0.461E+01 0.309E+01 -.448E+00   -.158E-02 -.424E-02 -.108E-02
   0.107E+02 0.293E+02 0.112E+03   -.125E+02 -.309E+02 -.116E+03   0.194E+01 0.188E+01 0.490E+01   0.129E-01 -.301E-02 -.237E-02
   -.145E+03 -.788E+02 -.931E+02   0.171E+03 0.956E+02 0.935E+02   -.293E+02 -.193E+02 -.723E+00   0.784E-04 0.258E-02 -.214E-02
   0.114E+03 -.527E+02 0.148E+03   -.141E+03 0.600E+02 -.163E+03   0.299E+02 -.814E+01 0.168E+02   -.101E-03 0.223E-02 -.192E-03
   0.863E+01 0.122E+03 0.325E+03   -.384E+01 -.146E+03 -.345E+03   -.494E+01 0.262E+02 0.230E+02   -.333E-02 0.541E-02 0.492E-02
   0.197E+01 0.179E+03 0.272E+03   -.342E+01 -.208E+03 -.280E+03   0.210E+01 0.334E+02 0.107E+02   0.161E-02 0.649E-02 0.306E-02
   0.149E+03 -.252E+02 0.103E+03   -.176E+03 0.408E+02 -.108E+03   0.303E+02 -.177E+02 0.548E+01   -.252E-02 0.298E-02 -.294E-03
   -.108E+03 -.120E+03 -.220E+03   0.133E+03 0.134E+03 0.232E+03   -.280E+02 -.153E+02 -.145E+02   -.162E-02 0.307E-02 -.800E-03
   0.630E+00 -.246E+02 -.992E+01   -.518E+00 0.257E+02 0.777E+01   -.113E+00 -.136E+01 0.249E+01   -.155E-02 0.161E-02 -.289E-03
   -.112E+02 -.192E+02 -.142E+03   0.113E+02 0.208E+02 0.147E+03   0.149E+00 -.187E+01 -.619E+01   -.401E-03 0.416E-02 0.618E-03
   -.171E+03 -.488E+02 -.705E+02   0.197E+03 0.651E+02 0.708E+02   -.296E+02 -.183E+02 -.496E+00   0.344E-02 0.321E-02 0.479E-03
   0.134E+03 -.112E+03 0.231E+03   -.161E+03 0.126E+03 -.236E+03   0.307E+02 -.150E+02 0.734E+01   0.984E-02 -.487E-02 0.425E-03
   0.205E+00 0.113E+03 -.289E+03   0.385E+01 -.137E+03 0.309E+03   -.463E+01 0.273E+02 -.224E+02   0.280E-02 -.784E-03 -.135E-02
   -.269E+02 0.864E+02 -.326E+03   0.254E+02 -.109E+03 0.348E+03   0.167E+01 0.250E+02 -.256E+02   0.234E-02 0.135E-02 -.351E-03
   0.143E+03 -.962E+02 0.178E+03   -.164E+03 0.116E+03 -.189E+03   0.234E+02 -.223E+02 0.127E+02   0.405E-02 -.370E-02 0.749E-03
   -.128E+03 -.560E+02 -.140E+03   0.155E+03 0.635E+02 0.152E+03   -.312E+02 -.811E+01 -.142E+02   0.911E-02 -.227E-03 0.110E-02
   -.349E+02 0.161E+02 0.338E+02   0.373E+02 -.178E+02 -.355E+02   -.321E+01 0.224E+01 0.229E+01   -.647E-03 0.320E-02 0.250E-02
   0.354E+02 -.900E+02 -.757E+03   -.360E+02 0.100E+03 0.768E+03   0.773E+00 -.114E+02 -.126E+02   -.209E-01 0.764E-04 0.374E-02
 -----------------------------------------------------------------------------------------------
   0.148E+01 -.682E+01 -.474E+01   0.711E-14 0.000E+00 -.227E-12   -.146E+01 0.683E+01 0.475E+01   -.184E-01 -.503E-02 -.400E-02
 
 
 POSITION                                       TOTAL-FORCE (eV/Angst)
 -----------------------------------------------------------------------------------
     -0.01675      2.77423      7.16460         0.005087     -2.050751      0.820941
      1.36708      5.16052      7.27706         2.144029      0.301743      0.320612
     -1.42788      5.10951      7.17843        -2.171491      0.262811      0.033717
      6.44076      0.74064      8.49566         0.607679     -0.169453     -0.468034
      3.90662      5.15912      6.93043         0.219402      0.153406      0.802549
      1.32821      0.66688      7.53785        -0.586916     -0.055006      0.439012
     -4.02462      9.30445      8.12954        -0.251793     -1.707089     -0.947095
     -2.49148     11.59786      8.42018         1.719721      1.364756     -0.272598
     -5.24479     11.70479      8.36851        -1.725699      1.384896     -0.427875
      2.69455      7.08590      8.43198         0.926897      0.169679     -0.516268
      0.04414     11.49976      8.21470        -0.060289      0.942787      0.657404
     -2.85508      7.08225      8.07528        -0.809720      0.297110     -1.073325
      7.82495      2.78841      7.94144        -0.084083     -1.781927      0.838543
      9.07635      4.93762      6.71803         1.772761      0.854196      0.442532
      6.40676      5.03470      7.31576        -1.725825      1.398193      0.490352
     14.16143      0.48432      7.73976         0.668491      0.018902      0.373933
     11.58900      4.86203      6.61718        -0.493452      0.347552      0.772452
      9.14763      0.72598      8.60213        -0.696795     -0.314079     -0.412612
      3.99456      9.18453      8.92498         0.492225     -1.895003     -1.017951
      5.29037     11.58430      8.78439         1.913019      1.358009     -0.990069
      2.53038     11.56009      8.75829        -1.850065      1.396094     -0.697695
     10.18504      7.17190      7.06456        -0.031001     -0.950889      0.350360
      7.80660     11.60739      8.98236        -0.037963      0.503106     -0.979468
      5.33325      7.13248      8.22965        -0.335803     -0.257147     -0.271042
     -0.01608      4.35835      7.14048        -0.134267     -0.431991      0.289074
      1.30633      2.07329      7.07199        -3.036291     -1.897234      1.555173
      5.19967     -0.04817      8.77225         3.016530     -1.724340     -1.946930
      5.20216      4.50752      6.59209        -0.565816      2.832963      2.864846
      2.54810      4.65162      6.54785        -0.017802      2.319935      3.106883
      6.46993      2.20696      8.28495         2.993496     -2.649202     -0.543754
     -5.19990     12.91039      7.50383        -3.063860     -1.000108      2.624334
      0.01885      0.02395      8.11174        -0.064800      0.071830     -0.162183
     -3.88839     10.84756      8.40436        -0.224947     -0.141960     -0.530068
     -2.92459      8.42349      8.69884        -1.913844     -1.545710     -3.243407
      1.36646      6.36226      8.25805         2.609243     -0.254663     -1.237959
      1.35654     10.77465      8.22735        -0.467887      3.445564      1.476820
     -1.26505     10.79189      8.05348         0.370037      3.477848      1.503961
      2.71340      8.38172      9.15321         2.308773     -1.692047     -2.845140
     -1.55180      6.30482      8.14995        -2.330358     -0.103270     -1.860191
     11.47990      6.28518      7.32460         1.053437      0.552096      0.324568
      7.78778      4.18199      7.21254         0.173562      0.233242      0.605609
      9.15845      2.18662      8.31999        -3.108465     -2.439823     -0.375869
      5.17993     12.74146      7.85987         3.211926     -0.880827      2.440241
     -2.52846      4.55728      6.36388        -0.155730      2.506999      3.117814
     10.31674      4.14729      6.37608         0.654866      3.784385      1.865095
     14.14724      1.89700      7.31020         3.162095     -2.113814      0.864088
     10.32989     -0.07420      9.06328        -2.736922     -1.735393     -2.233060
      7.79739     -0.05698      8.37159        -0.003342     -0.301087      0.336382
      3.90973     10.75890      8.97455         0.234342     -0.264284     -0.742415
      5.31200      8.57304      8.60941        -3.371122     -1.941150     -0.161751
      8.97376      6.45890      6.64854         3.693173     -1.115406      1.941782
     -6.36704     11.16967      9.21778        -0.571498      2.781925     -2.830328
      6.50359     11.07768      9.50963         0.180657      2.202990     -3.338468
     -5.18460      8.87031      7.30052         2.780828     -2.232159      1.791269
      6.54129      6.29245      8.12819        -3.612244     -0.643635     -1.954894
      3.94992      6.46481      7.84831        -0.784409      0.518558      0.648633
     -0.15002      7.70467      9.37095         0.112224     -1.192127     -1.618533
 -----------------------------------------------------------------------------------
    total drift:                               -0.002602     -0.002664      0.008656


--------------------------------------------------------------------------------------------------------



  FREE ENERGIE OF THE ION-ELECTRON SYSTEM (eV)
  ---------------------------------------------------
  free  energy   TOTEN  =      -444.61061979 eV

  energy  without entropy=     -444.61061979  energy(sigma->0) =     -444.61061979
 


--------------------------------------------------------------------------------------------------------


    POTLOK:  cpu time    0.1858: real time    0.1864


--------------------------------------------------------------------------------------------------------


 stress matrix after NEB project (eV)
   -278.85364      4.65823     -7.20676
      4.65823   -252.94825    -13.08425
     -7.20676    -13.08425    -62.68503
  FORCES: max atom, RMS     4.319048    2.811751
  FORCE total and by dimension   21.228252    3.784385
  Stress total and by dimension  382.310414  278.853639
     LOOP+:  cpu time  259.8099: real time  262.9801
    4ORBIT:  cpu time    0.0000: real time    0.0000
 


 total charge     
 
# of ion       s       p       d       tot
------------------------------------------
    1        0.801   1.423   0.000   2.224
    2        0.793   1.414   0.000   2.207
    3        0.794   1.418   0.000   2.212
    4        0.815   1.424   0.000   2.239
    5        0.809   1.423   0.000   2.232
    6        0.816   1.431   0.000   2.247
    7        0.802   1.419   0.000   2.220
    8        0.802   1.414   0.000   2.216
    9        0.805   1.417   0.000   2.222
   10        0.812   1.446   0.000   2.259
   11        0.815   1.427   0.000   2.242
   12        0.814   1.453   0.000   2.267
   13        0.803   1.414   0.000   2.217
   14        0.798   1.421   0.000   2.219
   15        0.796   1.423   0.000   2.219
   16        0.816   1.435   0.000   2.251
   17        0.809   1.431   0.000   2.240
   18        0.814   1.422   0.000   2.235
   19        0.801   1.417   0.000   2.218
   20        0.804   1.414   0.000   2.219
   21        0.801   1.409   0.000   2.211
   22        0.815   1.424   0.000   2.239
   23        0.816   1.414   0.000   2.230
   24        0.813   1.437   0.000   2.251
   25        1.179   2.422   0.000   3.601
   26        1.271   2.351   0.000   3.622
   27        1.268   2.350   0.000   3.618
   28        1.274   2.326   0.000   3.600
   29        1.269   2.343   0.000   3.612
   30        1.269   2.346   0.000   3.615
   31        1.275   2.347   0.000   3.622
   32        1.211   2.440   0.000   3.651
   33        1.183   2.434   0.000   3.618
   34        1.262   2.366   0.000   3.628
   35        1.237   2.375   0.000   3.611
   36        1.268   2.347   0.000   3.614
   37        1.267   2.348   0.000   3.614
   38        1.262   2.358   0.000   3.620
   39        1.237   2.379   0.000   3.616
   40        1.207   2.456   0.000   3.663
   41        1.184   2.421   0.000   3.605
   42        1.271   2.337   0.000   3.608
   43        1.272   2.352   0.000   3.624
   44        1.269   2.344   0.000   3.613
   45        1.272   2.332   0.000   3.604
   46        1.270   2.356   0.000   3.626
   47        1.269   2.343   0.000   3.612
   48        1.209   2.443   0.000   3.651
   49        1.187   2.408   0.000   3.595
   50        1.267   2.356   0.000   3.623
   51        1.269   2.346   0.000   3.615
   52        1.275   2.330   0.000   3.604
   53        1.274   2.333   0.000   3.606
   54        1.269   2.339   0.000   3.608
   55        1.275   2.341   0.000   3.616
   56        1.207   2.451   0.000   3.658
   57        1.362   0.560   9.995  11.917
--------------------------------------------------
tot         60.704 110.553   9.995 181.251
 


 magnetization (x)
 
# of ion       s       p       d       tot
------------------------------------------
    1       -0.000   0.000   0.000   0.000
    2        0.000   0.000   0.000   0.000
    3       -0.000  -0.000   0.000  -0.000
    4       -0.000  -0.000   0.000  -0.000
    5        0.000   0.000   0.000   0.000
    6       -0.000  -0.000   0.000  -0.000
    7       -0.000  -0.000   0.000  -0.000
    8       -0.000  -0.000   0.000  -0.000
    9       -0.000  -0.000   0.000  -0.000
   10       -0.000  -0.000   0.000  -0.000
   11        0.000   0.000   0.000   0.000
   12        0.000   0.000   0.000   0.000
   13       -0.000  -0.000   0.000  -0.000
   14       -0.000  -0.000   0.000  -0.000
   15        0.000   0.000   0.000   0.000
   16        0.000   0.000   0.000   0.000
   17       -0.000  -0.000   0.000  -0.000
   18       -0.000   0.000   0.000   0.000
   19        0.000   0.000   0.000   0.000
   20        0.000   0.000   0.000   0.000
   21        0.000   0.000   0.000   0.000
   22       -0.000  -0.000   0.000  -0.000
   23        0.000  -0.000   0.000  -0.000
   24        0.000   0.000   0.000   0.000
   25       -0.000  -0.000   0.000  -0.000
   26       -0.000   0.000   0.000   0.000
   27       -0.000  -0.000   0.000  -0.000
   28       -0.000  -0.000   0.000  -0.000
   29       -0.000  -0.000   0.000  -0.000
   30       -0.000   0.000   0.000  -0.000
   31       -0.000  -0.000   0.000  -0.000
   32        0.000   0.000   0.000   0.000
   33       -0.000   0.000   0.000   0.000
   34       -0.000  -0.000   0.000  -0.000
   35        0.000   0.000   0.000   0.000
   36       -0.000   0.000   0.000   0.000
   37       -0.000  -0.000   0.000  -0.000
   38        0.000   0.000   0.000   0.000
   39        0.000   0.000   0.000   0.000
   40       -0.000  -0.000   0.000  -0.000
   41       -0.000  -0.000   0.000  -0.000
   42        0.000  -0.000   0.000  -0.000
   43       -0.000  -0.000   0.000  -0.000
   44        0.000   0.000   0.000   0.000
   45       -0.000   0.000   0.000   0.000
   46        0.000  -0.000   0.000  -0.000
   47        0.000  -0.000   0.000  -0.000
   48       -0.000  -0.000   0.000  -0.000
   49       -0.000  -0.000   0.000  -0.000
   50        0.000  -0.000   0.000  -0.000
   51       -0.000   0.000   0.000   0.000
   52       -0.000  -0.000   0.000  -0.000
   53        0.000   0.000   0.000   0.000
   54       -0.000   0.000   0.000   0.000
   55        0.000  -0.000   0.000  -0.000
   56        0.000   0.000   0.000   0.000
   57       -0.000  -0.000  -0.000  -0.000
--------------------------------------------------
tot          0.000   0.000  -0.000   0.000
 
 BZINTS: Fermi energy: -3.589897;270.000000 electrons
         Band energy:***********;  BLOECHL correction:  0.000000

 total amount of memory used by VASP MPI-rank0   108045. kBytes
=======================================================================

   base      :      30000. kBytes
   nonl-proj :      18186. kBytes
   fftplans  :       5294. kBytes
   grid      :      14279. kBytes
   one-center:        155. kBytes
   wavefun   :      40131. kBytes
 
  
  
 General timing and accounting informations for this job:
 ========================================================
  
                  Total CPU time used (sec):      274.583
                            User time (sec):      265.035
                          System time (sec):        9.549
                         Elapsed time (sec):      285.455
  
                   Maximum memory used (kb):      447396.
                   Average memory used (kb):           0.
  
                          Minor page faults:      1510929
                          Major page faults:            0
                 Voluntary context switches:         8613
