 vasp.5.4.4.18Apr17-6-g9f103f2a35 (build Nov  8 2022 18:58:45) complex           
 executed on             LinuxGNU date 2023.04.13  15:54:38
 running on   48 total cores
 distrk:  each k-point on   48 cores,    1 groups
 distr:  one band on NCORES_PER_BAND=  12 cores,    4 groups


--------------------------------------------------------------------------------------------------------


 INCAR:
 POTCAR:    PAW_PBE C 08Apr2002                   
 POTCAR:    PAW_PBE N 08Apr2002                   
 POTCAR:    PAW_PBE Ge_d 03Jul2007                
 POTCAR:    PAW_PBE C 08Apr2002                   
 POTCAR:    PAW_PBE O 08Apr2002                   
 POTCAR:    PAW_PBE C 08Apr2002                   
   SHA256 =  253f7b50bb8d59471dbedb8285d89021f4a42ed1a2c5d38a03a736e69125dd95 C/
   COPYR  = (c) Copyright 08Apr2002 Georg Kresse                                
   COPYR  = This file is part of the software VASP. Any use, copying, and all ot
   COPYR  = If you do not have a valid VASP license, you may not use, copy or di
   VRHFIN =C: s2p2                                                              
   LEXCH  = PE                                                                  
   EATOM  =   147.1560 eV,   10.8157 Ry                                         
                                                                                
   TITEL  = PAW_PBE C 08Apr2002                                                 
   LULTRA =        F    use ultrasoft PP ?                                      
   IUNSCR =        1    unscreen: 0-lin 1-nonlin 2-no                           
   RPACOR =    1.200    partial core radius                                     
   POMASS =   12.011; ZVAL   =    4.000    mass and valenz                      
   RCORE  =    1.500    outmost cutoff radius                                   
   RWIGS  =    1.630; RWIGS  =    0.863    wigner-seitz radius (au A)           
   ENMAX  =  400.000; ENMIN  =  300.000 eV                                      
   ICORE  =        2    local potential                                         
   LCOR   =        T    correct aug charges                                     
   LPAW   =        T    paw PP                                                  
   EAUG   =  644.873                                                            
   DEXC   =    0.000                                                            
   RMAX   =    1.529    core radius for proj-oper                               
   RAUG   =    1.300    factor for augmentation sphere                          
   RDEP   =    1.501    radius for radial grids                                 
   RDEPT  =    1.300    core radius for aug-charge                              
                                                                                
   Atomic configuration                                                         
    4 entries                                                                   
     n  l   j            E        occ.                                          
     1  0  0.50      -273.3789   2.0000                                         
     2  0  0.50       -13.7508   2.0000                                         
     2  1  0.50        -5.2854   2.0000                                         
     3  2  1.50        -5.4423   0.0000                                         
   Description                                                                  
     l       E           TYP  RCUT    TYP  RCUT                                 
     0    -13.7508458     23  1.200                                             
     0     -8.2022199     23  1.200                                             
     1     -5.2854383     23  1.500                                             
     1     34.0145650     23  1.500                                             
     2     -5.4423304      7  1.500                                             
  local pseudopotential read in
  partial core-charges read in
  partial kinetic energy density read in
  atomic valenz-charges read in
  non local Contribution for L=           0  read in
    real space projection operators read in
  non local Contribution for L=           0  read in
    real space projection operators read in
  non local Contribution for L=           1  read in
    real space projection operators read in
  non local Contribution for L=           1  read in
    real space projection operators read in
    PAW grid and wavefunctions read in

   number of l-projection  operators is LMAX  =           4
   number of lm-projection operators is LMMAX =           8

 POTCAR:    PAW_PBE N 08Apr2002                   
   SHA256 =  e053789ff3a61a86a1b75d8a110fcc91f86041011e7b0817c7c99e4e8a6349d7 N/
   COPYR  = (c) Copyright 08Apr2002 Georg Kresse                                
   COPYR  = This file is part of the software VASP. Any use, copying, and all ot
   COPYR  = If you do not have a valid VASP license, you may not use, copy or di
   VRHFIN =N: s2p3                                                              
   LEXCH  = PE                                                                  
   EATOM  =   264.5486 eV,   19.4438 Ry                                         
                                                                                
   TITEL  = PAW_PBE N 08Apr2002                                                 
   LULTRA =        F    use ultrasoft PP ?                                      
   IUNSCR =        1    unscreen: 0-lin 1-nonlin 2-no                           
   RPACOR =    1.200    partial core radius                                     
   POMASS =   14.001; ZVAL   =    5.000    mass and valenz                      
   RCORE  =    1.500    outmost cutoff radius                                   
   RWIGS  =    1.400; RWIGS  =    0.741    wigner-seitz radius (au A)           
   ENMAX  =  400.000; ENMIN  =  300.000 eV                                      
   ICORE  =        2    local potential                                         
   LCOR   =        T    correct aug charges                                     
   LPAW   =        T    paw PP                                                  
   EAUG   =  627.112                                                            
   DEXC   =    0.000                                                            
   RMAX   =    1.529    core radius for proj-oper                               
   RAUG   =    1.300    factor for augmentation sphere                          
   RDEP   =    1.514    radius for radial grids                                 
   RDEPT  =    1.338    core radius for aug-charge                              
                                                                                
   Atomic configuration                                                         
    4 entries                                                                   
     n  l   j            E        occ.                                          
     1  0  0.50      -384.7179   2.0000                                         
     2  0  0.50       -18.5828   2.0000                                         
     2  1  0.50        -7.0898   3.0000                                         
     3  2  1.50        -6.8029   0.0000                                         
   Description                                                                  
     l       E           TYP  RCUT    TYP  RCUT                                 
     0    -18.5828119     23  1.200                                             
     0    -13.5018863     23  1.200                                             
     1     -7.0897853     23  1.500                                             
     1      9.5240782     23  1.500                                             
     2     -6.8029130      7  1.500                                             
  local pseudopotential read in
  partial core-charges read in
  partial kinetic energy density read in
  atomic valenz-charges read in
  non local Contribution for L=           0  read in
    real space projection operators read in
  non local Contribution for L=           0  read in
    real space projection operators read in
  non local Contribution for L=           1  read in
    real space projection operators read in
  non local Contribution for L=           1  read in
    real space projection operators read in
    PAW grid and wavefunctions read in

   number of l-projection  operators is LMAX  =           4
   number of lm-projection operators is LMMAX =           8

 POTCAR:    PAW_PBE Ge_d 03Jul2007                
   SHA256 =  944b26c40d2d7c4f4eb1ff3a2e8dbfdd7129146276cd341854bfd5c0e57780ed Ge
   COPYR  = (c) Copyright 03Jul2007 Georg Kresse                                
   COPYR  = This file is part of the software VASP. Any use, copying, and all ot
   COPYR  = If you do not have a valid VASP license, you may not use, copy or di
   VRHFIN =Ge: 3d4s4p                                                           
   LEXCH  = PE                                                                  
   EATOM  =  2596.2402 eV,  190.8183 Ry                                         
                                                                                
   TITEL  = PAW_PBE Ge_d 03Jul2007                                              
   LULTRA =        F    use ultrasoft PP ?                                      
   IUNSCR =        1    unscreen: 0-lin 1-nonlin 2-no                           
   RPACOR =    2.000    partial core radius                                     
   POMASS =   72.610; ZVAL   =   14.000    mass and valenz                      
   RCORE  =    2.300    outmost cutoff radius                                   
   RWIGS  =    2.300; RWIGS  =    1.217    wigner-seitz radius (au A)           
   ENMAX  =  310.294; ENMIN  =  232.720 eV                                      
   ICORE  =        3    local potential                                         
   LCOR   =        T    correct aug charges                                     
   LPAW   =        T    paw PP                                                  
   EAUG   =  531.356                                                            
   DEXC   =    0.000                                                            
   RMAX   =    2.342    core radius for proj-oper                               
   RAUG   =    1.300    factor for augmentation sphere                          
   RDEP   =    2.318    radius for radial grids                                 
   RDEPT  =    1.783    core radius for aug-charge                              
                                                                                
   Atomic configuration                                                         
    9 entries                                                                   
     n  l   j            E        occ.                                          
     1  0  0.50    -10959.8463   2.0000                                         
     2  0  0.50     -1371.6056   2.0000                                         
     2  1  1.50     -1198.4791   6.0000                                         
     3  0  0.50      -168.4733   2.0000                                         
     3  1  1.50      -115.6019   6.0000                                         
     3  2  2.50       -29.3106  10.0000                                         
     4  0  0.50       -11.7309   2.0000                                         
     4  1  0.50        -3.8952   2.0000                                         
     4  3  2.50        -4.0817   0.0000                                         
   Description                                                                  
     l       E           TYP  RCUT    TYP  RCUT                                 
     2    -29.3105938     23  2.200                                             
     2    -13.6058260     23  2.200                                             
     0    -11.7309493     23  2.300                                             
     0     -7.4578696     23  2.300                                             
     1     -3.8952261     23  2.300                                             
     1      6.1178114     23  2.300                                             
     3     -1.3605826     23  2.300                                             
  local pseudopotential read in
  partial core-charges read in
  partial kinetic energy density read in
  atomic valenz-charges read in
  non local Contribution for L=           2  read in
    real space projection operators read in
  non local Contribution for L=           2  read in
    real space projection operators read in
  non local Contribution for L=           0  read in
    real space projection operators read in
  non local Contribution for L=           0  read in
    real space projection operators read in
  non local Contribution for L=           1  read in
    real space projection operators read in
  non local Contribution for L=           1  read in
    real space projection operators read in
    PAW grid and wavefunctions read in

   number of l-projection  operators is LMAX  =           6
   number of lm-projection operators is LMMAX =          18

 POTCAR:    PAW_PBE C 08Apr2002                   
   SHA256 =  253f7b50bb8d59471dbedb8285d89021f4a42ed1a2c5d38a03a736e69125dd95 C/
   COPYR  = (c) Copyright 08Apr2002 Georg Kresse                                
   COPYR  = This file is part of the software VASP. Any use, copying, and all ot
   COPYR  = If you do not have a valid VASP license, you may not use, copy or di
   VRHFIN =C: s2p2                                                              
   LEXCH  = PE                                                                  
   EATOM  =   147.1560 eV,   10.8157 Ry                                         
                                                                                
   TITEL  = PAW_PBE C 08Apr2002                                                 
   LULTRA =        F    use ultrasoft PP ?                                      
   IUNSCR =        1    unscreen: 0-lin 1-nonlin 2-no                           
   RPACOR =    1.200    partial core radius                                     
   POMASS =   12.011; ZVAL   =    4.000    mass and valenz                      
   RCORE  =    1.500    outmost cutoff radius                                   
   RWIGS  =    1.630; RWIGS  =    0.863    wigner-seitz radius (au A)           
   ENMAX  =  400.000; ENMIN  =  300.000 eV                                      
   ICORE  =        2    local potential                                         
   LCOR   =        T    correct aug charges                                     
   LPAW   =        T    paw PP                                                  
   EAUG   =  644.873                                                            
   DEXC   =    0.000                                                            
   RMAX   =    1.529    core radius for proj-oper                               
   RAUG   =    1.300    factor for augmentation sphere                          
   RDEP   =    1.501    radius for radial grids                                 
   RDEPT  =    1.300    core radius for aug-charge                              
                                                                                
   Atomic configuration                                                         
    4 entries                                                                   
     n  l   j            E        occ.                                          
     1  0  0.50      -273.3789   2.0000                                         
     2  0  0.50       -13.7508   2.0000                                         
     2  1  0.50        -5.2854   2.0000                                         
     3  2  1.50        -5.4423   0.0000                                         
   Description                                                                  
     l       E           TYP  RCUT    TYP  RCUT                                 
     0    -13.7508458     23  1.200                                             
     0     -8.2022199     23  1.200                                             
     1     -5.2854383     23  1.500                                             
     1     34.0145650     23  1.500                                             
     2     -5.4423304      7  1.500                                             
  local pseudopotential read in
  partial core-charges read in
  partial kinetic energy density read in
  atomic valenz-charges read in
  non local Contribution for L=           0  read in
    real space projection operators read in
  non local Contribution for L=           0  read in
    real space projection operators read in
  non local Contribution for L=           1  read in
    real space projection operators read in
  non local Contribution for L=           1  read in
    real space projection operators read in
    PAW grid and wavefunctions read in

   number of l-projection  operators is LMAX  =           4
   number of lm-projection operators is LMMAX =           8

 POTCAR:    PAW_PBE O 08Apr2002                   
   SHA256 =  818f92134a0a090dccd8ba1447fa70422a3b330e708bb4f08108d8ae51209ddf O/
   COPYR  = (c) Copyright 08Apr2002 Georg Kresse                                
   COPYR  = This file is part of the software VASP. Any use, copying, and all ot
   COPYR  = If you do not have a valid VASP license, you may not use, copy or di
   VRHFIN =O: s2p4                                                              
   LEXCH  = PE                                                                  
   EATOM  =   432.3788 eV,   31.7789 Ry                                         
                                                                                
   TITEL  = PAW_PBE O 08Apr2002                                                 
   LULTRA =        F    use ultrasoft PP ?                                      
   IUNSCR =        1    unscreen: 0-lin 1-nonlin 2-no                           
   RPACOR =    1.200    partial core radius                                     
   POMASS =   16.000; ZVAL   =    6.000    mass and valenz                      
   RCORE  =    1.520    outmost cutoff radius                                   
   RWIGS  =    1.550; RWIGS  =    0.820    wigner-seitz radius (au A)           
   ENMAX  =  400.000; ENMIN  =  300.000 eV                                      
   ICORE  =        2    local potential                                         
   LCOR   =        T    correct aug charges                                     
   LPAW   =        T    paw PP                                                  
   EAUG   =  605.392                                                            
   DEXC   =    0.000                                                            
   RMAX   =    1.553    core radius for proj-oper                               
   RAUG   =    1.300    factor for augmentation sphere                          
   RDEP   =    1.550    radius for radial grids                                 
   RDEPT  =    1.329    core radius for aug-charge                              
                                                                                
   Atomic configuration                                                         
    4 entries                                                                   
     n  l   j            E        occ.                                          
     1  0  0.50      -514.6923   2.0000                                         
     2  0  0.50       -23.9615   2.0000                                         
     2  1  0.50        -9.0305   4.0000                                         
     3  2  1.50        -9.5241   0.0000                                         
   Description                                                                  
     l       E           TYP  RCUT    TYP  RCUT                                 
     0    -23.9615318     23  1.200                                             
     0     -9.5240782     23  1.200                                             
     1     -9.0304911     23  1.520                                             
     1      8.1634956     23  1.520                                             
     2     -9.5240782      7  1.500                                             
  local pseudopotential read in
  partial core-charges read in
  partial kinetic energy density read in
  kinetic energy density of atom read in
  atomic valenz-charges read in
  non local Contribution for L=           0  read in
    real space projection operators read in
  non local Contribution for L=           0  read in
    real space projection operators read in
  non local Contribution for L=           1  read in
    real space projection operators read in
  non local Contribution for L=           1  read in
    real space projection operators read in
    PAW grid and wavefunctions read in

   number of l-projection  operators is LMAX  =           4
   number of lm-projection operators is LMMAX =           8


 ----------------------------------------------------------------------------- 
|                                                                             |
|  ADVICE TO THIS USER RUNNING 'VASP/VAMP'   (HEAR YOUR MASTER'S VOICE ...):  |
|                                                                             |
|      You have a (more or less) 'large supercell' and for larger cells       |
|      it might be more efficient to use real space projection opertators     |
|      So try LREAL= Auto  in the INCAR   file.                               |
|      Mind:          For very  accurate calculation you might also keep the  |
|      reciprocal projection scheme          (i.e. LREAL=.FALSE.)             |
|                                                                             |
 ----------------------------------------------------------------------------- 

  PAW_PBE C 08Apr2002                   :
 energy of atom  1       EATOM= -147.1560
 kinetic energy error for atom=    0.0132 (will be added to EATOM!!)
  PAW_PBE N 08Apr2002                   :
 energy of atom  2       EATOM= -264.5486
 kinetic energy error for atom=    0.0298 (will be added to EATOM!!)
  PAW_PBE Ge_d 03Jul2007                :
 energy of atom  3       EATOM=-2596.2402
 kinetic energy error for atom=    0.0090 (will be added to EATOM!!)
  PAW_PBE C 08Apr2002                   :
 energy of atom  4       EATOM= -147.1560
 kinetic energy error for atom=    0.0132 (will be added to EATOM!!)
  PAW_PBE O 08Apr2002                   :
 energy of atom  5       EATOM= -432.3788
 kinetic energy error for atom=    0.0458 (will be added to EATOM!!)


 POSCAR: POSCAR-c3n4                             
  positions in cartesian coordinates
  No initial velocities read in
 exchange correlation table for  LEXCH =        8
   RHO(1)=    0.500       N(1)  =     2000
   RHO(2)=  100.500       N(2)  =     4000



--------------------------------------------------------------------------------------------------------


 ion  position               nearest neighbor table
   1  0.106  0.214  0.436-  26 1.42  46 1.42  25 1.50
   2  0.288  0.399  0.443-  29 1.40  35 1.47  25 1.52
   3  0.104  0.392  0.437-  44 1.40  39 1.46  25 1.51
   4  0.447  0.064  0.516-  30 1.40  27 1.42  48 1.49
   5  0.453  0.401  0.422-  28 1.41  29 1.42  56 1.51
   6  0.112  0.053  0.459-  26 1.40  31 1.41  32 1.48
   7  0.096  0.712  0.494-  54 1.41  34 1.44  33 1.49
   8  0.284  0.890  0.511-  27 1.42  37 1.43  33 1.50
   9  0.109  0.895  0.508-  31 1.40  52 1.43  33 1.52
  10  0.448  0.548  0.512-  38 1.40  56 1.44  35 1.44
  11  0.445  0.885  0.499-  37 1.42  36 1.42  48 1.47
  12  0.087  0.542  0.491-  34 1.40  40 1.43  39 1.44
  13  0.616  0.223  0.483-  42 1.43  30 1.43  41 1.49
  14  0.780  0.390  0.410-  45 1.43  51 1.44  41 1.49
  15  0.610  0.394  0.445-  28 1.42  55 1.42  41 1.54
  16  0.940  0.052  0.471-  46 1.40  43 1.41  32 1.48
  17  0.941  0.387  0.404-  45 1.40  44 1.42  40 1.51
  18  0.623  0.066  0.522-  42 1.41  47 1.42  48 1.49
  19  0.613  0.711  0.541-  50 1.41  38 1.45  49 1.49
  20  0.790  0.897  0.533-  43 1.41  53 1.42  49 1.53
  21  0.609  0.892  0.531-  47 1.42  36 1.43  49 1.52
  22  0.938  0.563  0.430-  51 1.39  54 1.43  40 1.51
  23  0.954  0.902  0.545-  52 1.42  53 1.42  32 1.48
  24  0.621  0.555  0.500-  55 1.40  50 1.41  56 1.50
  25  0.167  0.335  0.435-   1 1.50   3 1.51   2 1.52
  26  0.165  0.161  0.431-   6 1.40   1 1.42
  27  0.336  0.002  0.532-   8 1.42   4 1.42
  28  0.512  0.352  0.402-   5 1.41  15 1.42
  29  0.345  0.361  0.400-   2 1.40   5 1.42
  30  0.506  0.177  0.503-   4 1.40  13 1.43
  31  0.159  0.988  0.457-   9 1.40   6 1.41
  32  0.002  0.002  0.493-  16 1.48  23 1.48   6 1.48
  33  0.165  0.831  0.510-   7 1.49   8 1.50   9 1.52
  34  0.134  0.645  0.528-  12 1.40   7 1.44
  35  0.334  0.491  0.501-  10 1.44   2 1.47  57 2.19
  36  0.503  0.831  0.500-  11 1.42  21 1.43
  37  0.333  0.829  0.489-  11 1.42   8 1.43
  38  0.499  0.648  0.555-  10 1.40  19 1.45
  39  0.142  0.484  0.495-  12 1.44   3 1.46  57 2.20
  40  0.988  0.496  0.446-  12 1.43  22 1.51  17 1.51
  41  0.667  0.330  0.439-  13 1.49  14 1.49  15 1.54
  42  0.680  0.178  0.505-  18 1.41  13 1.43
  43  0.827  0.986  0.478-  20 1.41  16 1.41
  44  0.011  0.348  0.389-   3 1.40  17 1.42
  45  0.830  0.330  0.389-  17 1.40  14 1.43
  46  0.993  0.161  0.445-  16 1.40   1 1.42
  47  0.669  0.005  0.549-  21 1.42  18 1.42
  48  0.505  0.004  0.508-  11 1.47  18 1.49   4 1.49
  49  0.668  0.832  0.544-  19 1.49  21 1.52  20 1.53
  50  0.675  0.666  0.522-  19 1.41  24 1.41
  51  0.832  0.507  0.406-  22 1.39  14 1.44
  52  0.016  0.853  0.559-  23 1.42   9 1.43
  53  0.849  0.860  0.576-  20 1.42  23 1.42
  54  0.004  0.677  0.444-   7 1.41  22 1.43
  55  0.668  0.491  0.494-  24 1.40  15 1.42
  56  0.506  0.502  0.477-  10 1.44  24 1.50   5 1.51
  57  0.287  0.593  0.568-  35 2.19  39 2.20
  58  0.287  0.593  0.966-  59 1.23
  59  0.232  0.530  0.023-  58 1.23


IMPORTANT INFORMATION: All symmetrisations will be switched off!
NOSYMM: (Re-)initialisation of all symmetry stuff for point group C_1.



 KPOINTS: K-Points                                

Automatic generation of k-mesh.
Space group operators:
 irot       det(A)        alpha          n_x          n_y          n_z        tau_x        tau_y        tau_z
    1     1.000000     0.000000     1.000000     0.000000     0.000000     0.000000     0.000000     0.000000
 
 Subroutine IBZKPT returns following result:
 ===========================================
 
 Found      5 irreducible k-points:
 
 Following reciprocal coordinates:
            Coordinates               Weight
  0.000000  0.000000  0.000000      1.000000
  0.333333  0.000000  0.000000      2.000000
  0.000000  0.333333  0.000000      2.000000
  0.333333  0.333333  0.000000      2.000000
 -0.333333  0.333333  0.000000      2.000000
 
 Following cartesian coordinates:
            Coordinates               Weight
  0.000000  0.000000  0.000000      1.000000
  0.024277  0.014368  0.000000      2.000000
  0.000396  0.028736  0.000000      2.000000
  0.024673  0.043104  0.000000      2.000000
 -0.023881  0.014368  0.000000      2.000000
 
 TETIRR: Found     24 inequivalent tetrahedra from       54


--------------------------------------------------------------------------------------------------------




 Dimension of arrays:
   k-points           NKPTS =      5   k-points in BZ     NKDIM =      5   number of bands    NBANDS=    172
   number of dos      NEDOS =   4000   number of ions     NIONS =     59
   non local maximal  LDIM  =      6   non local SUM 2l+1 LMDIM =     18
   total plane-waves  NPLWV = 537600
   max r-space proj   IRMAX =      1   max aug-charges    IRDMAX=   6501
   dimension x,y,z NGX =    80 NGY =   80 NGZ =   84
   dimension x,y,z NGXF=   160 NGYF=  160 NGZF=  168
   support grid    NGXF=   160 NGYF=  160 NGZF=  168
   ions per type =              24  32   1   1   1
   NGX,Y,Z   is equivalent  to a cutoff of   9.06,  9.23,  8.78 a.u.
   NGXF,Y,Z  is equivalent  to a cutoff of  18.13, 18.46, 17.57 a.u.

 SYSTEM =  unknown system                          
 POSCAR =  POSCAR-c3n4                             

 Startparameter for this run:
   NWRITE =      2    write-flag & timer
   PREC   = normal    normal or accurate (medium, high low for compatibility)
   ISTART =      0    job   : 0-new  1-cont  2-samecut
   ICHARG =      2    charge: 1-file 2-atom 10-const
   ISPIN  =      2    spin polarized calculation?
   LNONCOLLINEAR =      F non collinear calculations
   LSORBIT =      F    spin-orbit coupling
   INIWAV =      1    electr: 0-lowe 1-rand  2-diag
   LASPH  =      F    aspherical Exc in radial PAW
   METAGGA=      F    non-selfconsistent MetaGGA calc.

 Electronic Relaxation 1
   ENCUT  =  440.0 eV  32.34 Ry    5.69 a.u.  25.10 24.64 27.19*2*pi/ulx,y,z
   ENINI  =  440.0     initial cutoff
   ENAUG  =  644.9 eV  augmentation charge cutoff
   NELM   =    100;   NELMIN=  2; NELMDL= -5     # of ELM steps 
   EDIFF  = 0.1E-03   stopping-criterion for ELM
   LREAL  =      F    real-space projection
   NLSPLINE    = F    spline interpolate recip. space projectors
   LCOMPAT=      F    compatible to vasp.4.4
   GGA_COMPAT  = T    GGA compatible to vasp.4.4-vasp.4.6
   LMAXPAW     = -100 max onsite density
   LMAXMIX     =    2 max onsite mixed and CHGCAR
   VOSKOWN=      0    Vosko Wilk Nusair interpolation
   ROPT   =    0.00000   0.00000   0.00000   0.00000
   ROPT   =    0.00000
 Ionic relaxation
   EDIFFG = -.1E-01   stopping-criterion for IOM
   NSW    =      0    number of steps for IOM
   NBLOCK =      1;   KBLOCK =      1    inner block; outer block 
   IBRION =     -1    ionic relax: 0-MD 1-quasi-New 2-CG
   NFREE  =      0    steps in history (QN), initial steepest desc. (CG)
   ISIF   =      2    stress and relaxation
   IWAVPR =     10    prediction:  0-non 1-charg 2-wave 3-comb
   ISYM   =      0    0-nonsym 1-usesym 2-fastsym
   LCORR  =      T    Harris-Foulkes like correction to forces

   POTIM  = 0.5000    time-step for ionic-motion
   TEIN   =    0.0    initial temperature
   TEBEG  =    0.0;   TEEND  =   0.0 temperature during run
   SMASS  =  -3.00    Nose mass-parameter (am)
   estimated Nose-frequenzy (Omega)   =  0.10E-29 period in steps =****** mass=  -0.492E-26a.u.
   SCALEE = 1.0000    scale energy and forces
   NPACO  =    256;   APACO  = 16.0  distance and # of slots for P.C.
   PSTRESS=    0.0 pullay stress

  Mass of Ions in am
   POMASS =  12.01 14.00 72.61 12.01 16.00
  Ionic Valenz
   ZVAL   =   4.00  5.00 14.00  4.00  6.00
  Atomic Wigner-Seitz radii
   RWIGS  =  -1.00 -1.00 -1.00 -1.00 -1.00
  virtual crystal weights 
   VCA    =   1.00  1.00  1.00  1.00  1.00
   NELECT =     280.0000    total number of electrons
   NUPDOWN=      -1.0000    fix difference up-down

 DOS related values:
   EMIN   = -14.00;   EMAX   =  6.00  energy-range for DOS
   EFERMI =   0.00
   ISMEAR =    -5;   SIGMA  =   0.20  broadening in eV -4-tet -1-fermi 0-gaus

 Electronic relaxation 2 (details)
   IALGO  =     38    algorithm
   LDIAG  =      T    sub-space diagonalisation (order eigenvalues)
   LSUBROT=      F    optimize rotation matrix (better conditioning)
   TURBO    =      0    0=normal 1=particle mesh
   IRESTART =      0    0=no restart 2=restart with 2 vectors
   NREBOOT  =      0    no. of reboots
   NMIN     =      0    reboot dimension
   EREF     =   0.00    reference energy to select bands
   IMIX   =      4    mixing-type and parameters
     AMIX     =   0.25;   BMIX     =  0.00
     AMIX_MAG =   1.00;   BMIX_MAG =  0.00
     AMIN     =   0.10
     WC   =   100.;   INIMIX=   1;  MIXPRE=   1;  MAXMIX= -45

 Intra band minimization:
   WEIMIN = 0.0000     energy-eigenvalue tresh-hold
   EBREAK =  0.15E-06  absolut break condition
   DEPER  =   0.30     relativ break condition  

   TIME   =   0.40     timestep for ELM

  volume/ion in A,a.u.               =      48.62       328.13
  Fermi-wavevector in a.u.,A,eV,Ry     =   0.753748  1.424378  7.729964  0.568136
  Thomas-Fermi vector in A             =   1.851258

 Write flags
   LWAVE        =      F    write WAVECAR
   LDOWNSAMPLE  =      F    k-point downsampling of WAVECAR
   LCHARG       =      F    write CHGCAR
   LVTOT        =      F    write LOCPOT, total local potential
   LVHAR        =      F    write LOCPOT, Hartree potential only
   LELF         =      F    write electronic localiz. function (ELF)
   LORBIT       =     11    0 simple, 1 ext, 2 COOP (PROOUT), +10 PAW based schemes


 Dipole corrections
   LMONO  =      F    monopole corrections only (constant potential shift)
   LDIPOL =      F    correct potential (dipole corrections)
   IDIPOL =      0    1-x, 2-y, 3-z, 4-all directions 
   EPSILON=  1.0000000 bulk dielectric constant

 Exchange correlation treatment:
   GGA     =    --    GGA type
   LEXCH   =     8    internal setting for exchange type
   VOSKOWN=      0    Vosko Wilk Nusair interpolation
   LHFCALC =     F    Hartree Fock is set to
   LHFONE  =     F    Hartree Fock one center treatment
   AEXX    =    0.0000 exact exchange contribution

 Linear response parameters
   LEPSILON=     F    determine dielectric tensor
   LRPA    =     F    only Hartree local field effects (RPA)
   LNABLA  =     F    use nabla operator in PAW spheres
   LVEL    =     F    velocity operator in full k-point grid
   LINTERFAST=   F  fast interpolation
   KINTER  =     0    interpolate to denser k-point grid
   CSHIFT  =0.1000    complex shift for real part using Kramers Kronig
   OMEGAMAX=  -1.0    maximum frequency
   DEG_THRESHOLD= 0.2000000E-02 threshold for treating states as degnerate
   RTIME   =   -0.100 relaxation time in fs
  (WPLASMAI=    0.000 imaginary part of plasma frequency in eV, 0.658/RTIME)
   DFIELD  = 0.0000000 0.0000000 0.0000000 field for delta impulse in time

 Orbital magnetization related:
   ORBITALMAG=     F  switch on orbital magnetization
   LCHIMAG   =     F  perturbation theory with respect to B field
   DQ        =  0.001000  dq finite difference perturbation B field
   LLRAUG    =     F  two centre corrections for induced B field



--------------------------------------------------------------------------------------------------------


 Static calculation
 charge density and potential will be updated during run
 spin polarized calculation
 Variant of blocked Davidson
 Davidson routine will perform the subspace rotation
 perform sub-space diagonalisation
    after iterative eigenvector-optimisation
 modified Broyden-mixing scheme, WC =      100.0
 initial mixing is a Kerker type mixing with AMIX =  0.2500 and BMIX =      0.0001
 Hartree-type preconditioning will be used
 using additional bands           32
 reciprocal scheme for non local part
 use partial core corrections
 calculate Harris-corrections to forces   (improved forces if not selfconsistent)
 use gradient corrections 
 use of overlap-Matrix (Vanderbilt PP)
 Fermi weights with tetrahedron method with Bloechl corrections


--------------------------------------------------------------------------------------------------------


  energy-cutoff  :      440.00
  volume of cell :     2868.82
      direct lattice vectors                 reciprocal lattice vectors
    14.674029689 -0.202184902  0.000000000     0.068707896  0.040664259 -0.000000000
    -7.337014844 12.396902454  0.000000000     0.001120578  0.081328518 -0.000000000
     0.000000000  0.000000000 15.900000000    -0.000000000 -0.000000000  0.062893082

  length of vectors
    14.675422517 14.405380150 15.900000000     0.079839569  0.081336237  0.062893082



 k-points in units of 2pi/SCALE and weight: K-Points                                
   0.00000000  0.00000000  0.00000000       0.111
   0.02427679  0.01436804  0.00000000       0.222
   0.00039594  0.02873608  0.00000000       0.222
   0.02467273  0.04310411  0.00000000       0.222
  -0.02388085  0.01436804  0.00000000       0.222

 k-points in reciprocal lattice and weights: K-Points                                
   0.00000000  0.00000000  0.00000000       0.111
   0.33333333  0.00000000  0.00000000       0.222
   0.00000000  0.33333333  0.00000000       0.222
   0.33333333  0.33333333  0.00000000       0.222
  -0.33333333  0.33333333  0.00000000       0.222

 position of ions in fractional coordinates (direct lattice) 
   0.10567936  0.21351909  0.43638452
   0.28750403  0.39866334  0.44307848
   0.10379301  0.39177313  0.43720774
   0.44732828  0.06383887  0.51561413
   0.45258916  0.40124889  0.42244582
   0.11203481  0.05273921  0.45860169
   0.09638015  0.71191070  0.49382164
   0.28433946  0.89006364  0.51112159
   0.10941441  0.89537413  0.50804572
   0.44792521  0.54827090  0.51182417
   0.44544784  0.88520183  0.49889037
   0.08690842  0.54210436  0.49059155
   0.61614813  0.22292684  0.48262487
   0.78023735  0.38968276  0.40980308
   0.61037743  0.39432339  0.44538198
   0.93951642  0.05229783  0.47062057
   0.94071854  0.38652888  0.40380040
   0.62278394  0.06558106  0.52195204
   0.61322902  0.71118454  0.54116914
   0.78984871  0.89727295  0.53280047
   0.60944297  0.89248269  0.53124739
   0.93832005  0.56283419  0.43042990
   0.95436023  0.90171878  0.54458488
   0.62130548  0.55465507  0.49978063
   0.16668926  0.33545237  0.43494871
   0.16473950  0.16097029  0.43087242
   0.33626584  0.00180669  0.53207802
   0.51175722  0.35246859  0.40230650
   0.34471728  0.36074551  0.39967324
   0.50565751  0.17673507  0.50307206
   0.15873210  0.98821904  0.45657691
   0.00214731  0.00186372  0.49276218
   0.16462634  0.83083069  0.51017993
   0.13400723  0.64526801  0.52770834
   0.33371346  0.49116238  0.50147098
   0.50288345  0.83078126  0.49964378
   0.33307237  0.82932770  0.48929409
   0.49902190  0.64803204  0.55475412
   0.14173676  0.48364631  0.49503647
   0.98839512  0.49595573  0.44590834
   0.66736443  0.33015381  0.43923807
   0.67970142  0.17802103  0.50515807
   0.82720183  0.98622484  0.47776955
   0.01097216  0.34809993  0.38872280
   0.83047981  0.33016544  0.38944898
   0.99296173  0.16101876  0.44505124
   0.66886761  0.00524437  0.54940128
   0.50484899  0.00388347  0.50822952
   0.66830364  0.83227641  0.54411956
   0.67536455  0.66551462  0.52238502
   0.83211404  0.50666912  0.40566699
   0.01584380  0.85299492  0.55859758
   0.84924332  0.85956436  0.57597004
   0.00424175  0.67726383  0.44447513
   0.66753141  0.49127771  0.49374111
   0.50565566  0.50179634  0.47708161
   0.28676550  0.59288202  0.56771515
   0.28676550  0.59288202  0.96638181
   0.23209909  0.52992702  0.02273763

 position of ions in cartesian coordinates  (Angst):
  -0.01585061  2.62560850  6.93851380
   1.29384379  4.88406155  7.04494779
  -1.35138364  4.83578791  6.95160299
   6.09572175  0.70096118  8.19826467
   3.69733762  4.88273669  6.71688861
   1.25705377  0.63115114  7.29176680
  -3.80901422  8.80600091  7.85176401
  -2.35800449 10.97654296  8.12683323
  -4.96382306 11.07774382  8.07792699
   2.55019615  6.70629716  8.13800434
   0.04177590 10.88369793  7.93235688
  -2.70213108  6.70284336  7.80040566
   7.40575841  2.63902646  7.67373546
   8.59011779  4.67310699  6.51586903
   6.06353989  4.76497954  7.08157344
  13.40278195  0.45837503  7.48286701
  10.96816369  4.60156177  6.42042630
   8.65758081  0.68708443  8.29903746
   3.78056937  8.69249975  8.60458936
   5.00695843 10.96370979  8.47152747
   2.39482546 10.94080063  8.44683345
   9.63941345  6.78768645  6.84383549
   7.38838621 10.98556255  8.65889956
   5.04754262  6.75038625  7.94651203
  -0.01521587  4.12486828  6.91568453
   1.23635096  1.96222510  6.85087153
   4.92111916 -0.04559055  8.46004054
   4.92347343  4.26604911  6.39667334
   2.41159641  4.40243028  6.35480448
   6.12332542  2.08873117  7.99884579
  -4.92133830 12.21876182  7.25957283
   0.01783557  0.02267020  7.83491862
  -3.68008521 10.26644202  8.11186084
  -2.76791489  7.97223031  8.39056263
   1.29325561  6.02142025  7.97338864
   1.28387227 10.19743874  7.94433609
  -1.19727582 10.21375238  7.77977599
   2.56804149  7.93269530  8.82059045
  -1.46867074  5.96705904  7.87107981
  10.86490481  5.94847627  7.08994263
   7.37058206  3.95795360  6.98388525
   8.66781593  2.06948396  8.03201337
   4.90243798 12.05888540  7.59653588
  -2.39300856  4.31314241  6.18069259
   9.76405662  3.92511827  6.19223871
  13.38935281  1.79537198  7.07631471
   9.77650524 -0.07022104  8.73548036
   7.37967602 -0.05392985  8.08084943
   3.70028316 10.18252853  8.65150098
   5.02742876  8.11377133  8.30592186
   8.49302721  6.11288679  6.45010521
  -6.02594405 10.57129146  8.88170147
   6.15518521 10.48423140  9.15792369
  -4.90685126  8.39511605  7.06715465
   6.19086380  5.95535709  7.85048367
   3.73831894  6.11848439  7.58559762
  -0.14197875  7.29192097  9.02667085
  -0.14197875  7.29192097 15.36547085
  -0.48225353  6.52252666  0.36152826



--------------------------------------------------------------------------------------------------------


 k-point  1 :   0.0000 0.0000 0.0000  plane waves:   60121
 k-point  2 :   0.3333 0.0000 0.0000  plane waves:   60156
 k-point  3 :   0.0000 0.3333 0.0000  plane waves:   60050
 k-point  4 :   0.3333 0.3333 0.0000  plane waves:   60101
 k-point  5 :  -0.3333 0.3333 0.0000  plane waves:   60131

 maximum and minimum number of plane-waves per node :      5037     4979

 maximum number of plane-waves:     60156
 maximum index in each direction: 
   IXMAX=   25   IYMAX=   24   IZMAX=   27
   IXMIN=  -25   IYMIN=  -24   IZMIN=  -27


 parallel 3D FFT for wavefunctions:
    minimum data exchange during FFTs selected (reduces bandwidth)
 parallel 3D FFT for charge:
    minimum data exchange during FFTs selected (reduces bandwidth)


 total amount of memory used by VASP MPI-rank0   107964. kBytes
=======================================================================

   base      :      30000. kBytes
   nonl-proj :      22847. kBytes
   fftplans  :       4937. kBytes
   grid      :      15075. kBytes
   one-center:        155. kBytes
   wavefun   :      34950. kBytes

     INWAV:  cpu time    0.0001: real time    0.0001
 Broyden mixing: mesh for mixing (old mesh)
   NGX = 51   NGY = 49   NGZ = 55
  (NGX  =160   NGY  =160   NGZ  =168)
  gives a total of 137445 points

 initial charge density was supplied:
 charge density of overlapping atoms calculated
 number of electron     280.0000000 magnetization       2.0000000
 keeping initial charge density in first step


--------------------------------------------------------------------------------------------------------


 Maximum index for augmentation-charges          348 (set IRDMAX)


--------------------------------------------------------------------------------------------------------


 First call to EWALD:  gamma=   0.125
 Maximum number of real-space cells 3x 3x 3
 Maximum number of reciprocal cells 3x 3x 3

    FEWALD:  cpu time    0.0027: real time    0.0027


--------------------------------------- Iteration      1(   1)  ---------------------------------------


    POTLOK:  cpu time    0.1435: real time    0.1643
    SETDIJ:  cpu time    0.0097: real time    0.0099
     EDDAV:  cpu time   14.5570: real time   14.5879
 BZINTS: Fermi energy:  8.230336;280.000000 electrons
         Band energy:***********;  BLOECHL correction: -0.011649
       DOS:  cpu time    0.1322: real time    0.1322
    --------------------------------------------
      LOOP:  cpu time   14.8425: real time   14.8944

 eigenvalue-minimisations  :  3952
 total energy-change (2. order) : 0.2526706E+04  (-0.9969089E+04)
 number of electron     280.0000000 magnetization       2.0000000
 augmentation part      280.0000000 magnetization       2.0000000

 Free energy of the ion-electron system (eV)
  ---------------------------------------------------
  alpha Z        PSCENC =       129.88610169
  Ewald energy   TEWEN  =     24288.71844263
  -Hartree energ DENC   =    -36385.75903075
  -exchange      EXHF   =         0.00000000
  -V(xc)+E(xc)   XCENC  =      1045.74598678
  PAW double counting   =     11453.83848114   -11942.90478952
  entropy T*S    EENTRO =         0.00000000
  eigenvalues    EBANDS =     -1234.55518074
  atomic energy  EATOM  =     15171.73615219
  Solvation  Ediel_sol  =         0.00000000
  ---------------------------------------------------
  free energy    TOTEN  =      2526.70616341 eV

  energy without entropy =     2526.70616341  energy(sigma->0) =     2526.70616341


--------------------------------------------------------------------------------------------------------




--------------------------------------- Iteration      1(   2)  ---------------------------------------


     EDDAV:  cpu time   17.1425: real time   17.1737
 BZINTS: Fermi energy: -0.284071;280.000000 electrons
         Band energy:***********;  BLOECHL correction:  0.000000
       DOS:  cpu time    0.0148: real time    0.0148
    --------------------------------------------
      LOOP:  cpu time   17.1573: real time   17.1885

 eigenvalue-minimisations  :  4864
 total energy-change (2. order) :-0.2460100E+04  (-0.2361460E+04)
 number of electron     280.0000000 magnetization       2.0000000
 augmentation part      280.0000000 magnetization       2.0000000

 Free energy of the ion-electron system (eV)
  ---------------------------------------------------
  alpha Z        PSCENC =       129.88610169
  Ewald energy   TEWEN  =     24288.71844263
  -Hartree energ DENC   =    -36385.75903075
  -exchange      EXHF   =         0.00000000
  -V(xc)+E(xc)   XCENC  =      1045.74598678
  PAW double counting   =     11453.83848114   -11942.90478952
  entropy T*S    EENTRO =         0.00000000
  eigenvalues    EBANDS =     -3694.65514248
  atomic energy  EATOM  =     15171.73615219
  Solvation  Ediel_sol  =         0.00000000
  ---------------------------------------------------
  free energy    TOTEN  =        66.60620166 eV

  energy without entropy =       66.60620166  energy(sigma->0) =       66.60620166


--------------------------------------------------------------------------------------------------------




--------------------------------------- Iteration      1(   3)  ---------------------------------------


     EDDAV:  cpu time   15.2892: real time   15.3177
 BZINTS: Fermi energy: -3.499335;280.000000 electrons
         Band energy:***********;  BLOECHL correction: -0.009399
       DOS:  cpu time    0.0238: real time    0.0238
    --------------------------------------------
      LOOP:  cpu time   15.3129: real time   15.3415

 eigenvalue-minimisations  :  4204
 total energy-change (2. order) :-0.5482539E+03  (-0.5438281E+03)
 number of electron     280.0000000 magnetization       2.0000000
 augmentation part      280.0000000 magnetization       2.0000000

 Free energy of the ion-electron system (eV)
  ---------------------------------------------------
  alpha Z        PSCENC =       129.88610169
  Ewald energy   TEWEN  =     24288.71844263
  -Hartree energ DENC   =    -36385.75903075
  -exchange      EXHF   =         0.00000000
  -V(xc)+E(xc)   XCENC  =      1045.74598678
  PAW double counting   =     11453.83848114   -11942.90478952
  entropy T*S    EENTRO =         0.00000000
  eigenvalues    EBANDS =     -4242.90903235
  atomic energy  EATOM  =     15171.73615219
  Solvation  Ediel_sol  =         0.00000000
  ---------------------------------------------------
  free energy    TOTEN  =      -481.64768821 eV

  energy without entropy =     -481.64768821  energy(sigma->0) =     -481.64768821


--------------------------------------------------------------------------------------------------------




--------------------------------------- Iteration      1(   4)  ---------------------------------------


     EDDAV:  cpu time   15.2512: real time   15.2735
 BZINTS: Fermi energy: -3.946237;280.000000 electrons
         Band energy:***********;  BLOECHL correction:  0.000000
       DOS:  cpu time    0.0163: real time    0.0163
    --------------------------------------------
      LOOP:  cpu time   15.2674: real time   15.2898

 eigenvalue-minimisations  :  4192
 total energy-change (2. order) :-0.2390402E+02  (-0.2330490E+02)
 number of electron     280.0000000 magnetization       2.0000000
 augmentation part      280.0000000 magnetization       2.0000000

 Free energy of the ion-electron system (eV)
  ---------------------------------------------------
  alpha Z        PSCENC =       129.88610169
  Ewald energy   TEWEN  =     24288.71844263
  -Hartree energ DENC   =    -36385.75903075
  -exchange      EXHF   =         0.00000000
  -V(xc)+E(xc)   XCENC  =      1045.74598678
  PAW double counting   =     11453.83848114   -11942.90478952
  entropy T*S    EENTRO =         0.00000000
  eigenvalues    EBANDS =     -4266.81305726
  atomic energy  EATOM  =     15171.73615219
  Solvation  Ediel_sol  =         0.00000000
  ---------------------------------------------------
  free energy    TOTEN  =      -505.55171312 eV

  energy without entropy =     -505.55171312  energy(sigma->0) =     -505.55171312


--------------------------------------------------------------------------------------------------------




--------------------------------------- Iteration      1(   5)  ---------------------------------------


     EDDAV:  cpu time   18.0339: real time   18.0631
 BZINTS: Fermi energy: -3.986247;280.000000 electrons
         Band energy:***********;  BLOECHL correction:  0.000000
       DOS:  cpu time    0.0164: real time    0.0164
    CHARGE:  cpu time    0.2709: real time    0.2710
    MIXING:  cpu time    0.0039: real time    0.0041
    --------------------------------------------
      LOOP:  cpu time   18.3252: real time   18.3547

 eigenvalue-minimisations  :  5168
 total energy-change (2. order) :-0.1206654E+01  (-0.1194713E+01)
 number of electron     279.9999958 magnetization       0.0000001
 augmentation part       18.9956115 magnetization       0.0335214

 Broyden mixing:
  rms(total) = 0.36707E+01    rms(broyden)= 0.36679E+01
  rms(prec ) = 0.40575E+01
  weight for this iteration     100.00

 Free energy of the ion-electron system (eV)
  ---------------------------------------------------
  alpha Z        PSCENC =       129.88610169
  Ewald energy   TEWEN  =     24288.71844263
  -Hartree energ DENC   =    -36385.75903075
  -exchange      EXHF   =         0.00000000
  -V(xc)+E(xc)   XCENC  =      1045.74598678
  PAW double counting   =     11453.83848114   -11942.90478952
  entropy T*S    EENTRO =         0.00000000
  eigenvalues    EBANDS =     -4268.01971150
  atomic energy  EATOM  =     15171.73615219
  Solvation  Ediel_sol  =         0.00000000
  ---------------------------------------------------
  free energy    TOTEN  =      -506.75836735 eV

  energy without entropy =     -506.75836735  energy(sigma->0) =     -506.75836735


--------------------------------------------------------------------------------------------------------




--------------------------------------- Iteration      1(   6)  ---------------------------------------


    POTLOK:  cpu time    0.1476: real time    0.1488
    SETDIJ:  cpu time    0.0088: real time    0.0088
     EDDAV:  cpu time   15.1986: real time   15.2180
 BZINTS: Fermi energy: -3.971243;280.000000 electrons
         Band energy:***********;  BLOECHL correction:  0.000000
       DOS:  cpu time    0.0163: real time    0.0163
    CHARGE:  cpu time    0.2677: real time    0.2694
    MIXING:  cpu time    0.0043: real time    0.0092
    --------------------------------------------
      LOOP:  cpu time   15.6434: real time   15.6705

 eigenvalue-minimisations  :  4152
 total energy-change (2. order) : 0.2121464E+02  (-0.5943581E+01)
 number of electron     279.9999960 magnetization      -0.0000000
 augmentation part       17.7901951 magnetization       0.0166515

 Broyden mixing:
  rms(total) = 0.21599E+01    rms(broyden)= 0.21593E+01
  rms(prec ) = 0.23062E+01
  weight for this iteration     100.00

 eigenvalues of (default mixing * dielectric matrix)
  average eigenvalue GAMMA=   1.2539
  1.2539

 Free energy of the ion-electron system (eV)
  ---------------------------------------------------
  alpha Z        PSCENC =       129.88610169
  Ewald energy   TEWEN  =     24288.71844263
  -Hartree energ DENC   =    -36603.30894493
  -exchange      EXHF   =         0.00000000
  -V(xc)+E(xc)   XCENC  =      1058.12543676
  PAW double counting   =     14185.18778527   -14675.23714345
  entropy T*S    EENTRO =         0.00000000
  eigenvalues    EBANDS =     -4040.65156041
  atomic energy  EATOM  =     15171.73615219
  Solvation  Ediel_sol  =         0.00000000
  ---------------------------------------------------
  free energy    TOTEN  =      -485.54373025 eV

  energy without entropy =     -485.54373025  energy(sigma->0) =     -485.54373025


--------------------------------------------------------------------------------------------------------




--------------------------------------- Iteration      1(   7)  ---------------------------------------


    POTLOK:  cpu time    0.1367: real time    0.1494
    SETDIJ:  cpu time    0.0091: real time    0.0091
     EDDAV:  cpu time   15.6628: real time   15.6922
 BZINTS: Fermi energy: -3.689922;280.000000 electrons
         Band energy:***********;  BLOECHL correction:  0.000000
       DOS:  cpu time    0.0155: real time    0.0155
    CHARGE:  cpu time    0.2689: real time    0.2689
    MIXING:  cpu time    0.0038: real time    0.0038
    --------------------------------------------
      LOOP:  cpu time   16.0967: real time   16.1389

 eigenvalue-minimisations  :  4312
 total energy-change (2. order) : 0.1996990E+01  (-0.3456750E+01)
 number of electron     279.9999963 magnetization      -0.0000000
 augmentation part       17.5395770 magnetization       0.0036012

 Broyden mixing:
  rms(total) = 0.14929E+01    rms(broyden)= 0.14926E+01
  rms(prec ) = 0.16140E+01
  weight for this iteration     100.00

 eigenvalues of (default mixing * dielectric matrix)
  average eigenvalue GAMMA=   1.3519
  0.9157  1.7881

 Free energy of the ion-electron system (eV)
  ---------------------------------------------------
  alpha Z        PSCENC =       129.88610169
  Ewald energy   TEWEN  =     24288.71844263
  -Hartree energ DENC   =    -36763.90714439
  -exchange      EXHF   =         0.00000000
  -V(xc)+E(xc)   XCENC  =      1065.16803109
  PAW double counting   =     17105.92940141   -17597.33703510
  entropy T*S    EENTRO =         0.00000000
  eigenvalues    EBANDS =     -3883.74068994
  atomic energy  EATOM  =     15171.73615219
  Solvation  Ediel_sol  =         0.00000000
  ---------------------------------------------------
  free energy    TOTEN  =      -483.54674042 eV

  energy without entropy =     -483.54674042  energy(sigma->0) =     -483.54674042


--------------------------------------------------------------------------------------------------------




--------------------------------------- Iteration      1(   8)  ---------------------------------------


    POTLOK:  cpu time    0.1483: real time    0.1502
    SETDIJ:  cpu time    0.0090: real time    0.0090
     EDDAV:  cpu time   15.2545: real time   15.2732
 BZINTS: Fermi energy: -3.336084;280.000000 electrons
         Band energy:***********;  BLOECHL correction:  0.000000
       DOS:  cpu time    0.0165: real time    0.0165
    CHARGE:  cpu time    0.2648: real time    0.2648
    MIXING:  cpu time    0.0039: real time    0.0039
    --------------------------------------------
      LOOP:  cpu time   15.6971: real time   15.7177

 eigenvalue-minimisations  :  4160
 total energy-change (2. order) : 0.1399668E+01  (-0.1483199E+01)
 number of electron     279.9999962 magnetization       0.0000000
 augmentation part       17.3331586 magnetization       0.0010779

 Broyden mixing:
  rms(total) = 0.10540E+01    rms(broyden)= 0.10538E+01
  rms(prec ) = 0.11371E+01
  weight for this iteration     100.00

 eigenvalues of (default mixing * dielectric matrix)
  average eigenvalue GAMMA=   1.5713
  2.9184  1.1688  0.6266

 Free energy of the ion-electron system (eV)
  ---------------------------------------------------
  alpha Z        PSCENC =       129.88610169
  Ewald energy   TEWEN  =     24288.71844263
  -Hartree energ DENC   =    -36838.88934061
  -exchange      EXHF   =         0.00000000
  -V(xc)+E(xc)   XCENC  =      1068.61134620
  PAW double counting   =     19333.99693525   -19827.07027705
  entropy T*S    EENTRO =         0.00000000
  eigenvalues    EBANDS =     -3809.13643270
  atomic energy  EATOM  =     15171.73615219
  Solvation  Ediel_sol  =         0.00000000
  ---------------------------------------------------
  free energy    TOTEN  =      -482.14707240 eV

  energy without entropy =     -482.14707240  energy(sigma->0) =     -482.14707240


--------------------------------------------------------------------------------------------------------




--------------------------------------- Iteration      1(   9)  ---------------------------------------


    POTLOK:  cpu time    0.1392: real time    0.1472
    SETDIJ:  cpu time    0.0090: real time    0.0090
     EDDAV:  cpu time   17.2066: real time   17.2263
 BZINTS: Fermi energy: -3.161040;280.000000 electrons
         Band energy:***********;  BLOECHL correction:  0.000000
       DOS:  cpu time    0.0157: real time    0.0157
    CHARGE:  cpu time    0.2698: real time    0.2699
    MIXING:  cpu time    0.0041: real time    0.0042
    --------------------------------------------
      LOOP:  cpu time   17.6444: real time   17.6721

 eigenvalue-minimisations  :  4864
 total energy-change (2. order) :-0.1824227E+00  (-0.1680365E+01)
 number of electron     279.9999963 magnetization       0.0000000
 augmentation part       17.4462708 magnetization      -0.0008714

 Broyden mixing:
  rms(total) = 0.62650E+00    rms(broyden)= 0.62619E+00
  rms(prec ) = 0.79844E+00
  weight for this iteration     100.00

 eigenvalues of (default mixing * dielectric matrix)
  average eigenvalue GAMMA=   1.4997
  3.5210  1.2096  0.6340  0.6340

 Free energy of the ion-electron system (eV)
  ---------------------------------------------------
  alpha Z        PSCENC =       129.88610169
  Ewald energy   TEWEN  =     24288.71844263
  -Hartree energ DENC   =    -36901.94264417
  -exchange      EXHF   =         0.00000000
  -V(xc)+E(xc)   XCENC  =      1071.14763610
  PAW double counting   =     22276.73127856   -22774.02198449
  entropy T*S    EENTRO =         0.00000000
  eigenvalues    EBANDS =     -3744.58447762
  atomic energy  EATOM  =     15171.73615219
  Solvation  Ediel_sol  =         0.00000000
  ---------------------------------------------------
  free energy    TOTEN  =      -482.32949511 eV

  energy without entropy =     -482.32949511  energy(sigma->0) =     -482.32949511


--------------------------------------------------------------------------------------------------------




--------------------------------------- Iteration      1(  10)  ---------------------------------------


    POTLOK:  cpu time    0.1466: real time    0.1472
    SETDIJ:  cpu time    0.0090: real time    0.0090
     EDDAV:  cpu time   16.2700: real time   16.2927
 BZINTS: Fermi energy: -2.810953;280.000000 electrons
         Band energy:***********;  BLOECHL correction:  0.000000
       DOS:  cpu time    0.0157: real time    0.0157
    CHARGE:  cpu time    0.2707: real time    0.2707
    MIXING:  cpu time    0.0043: real time    0.0044
    --------------------------------------------
      LOOP:  cpu time   16.7163: real time   16.7397

 eigenvalue-minimisations  :  4520
 total energy-change (2. order) : 0.7342852E+00  (-0.7384467E+00)
 number of electron     279.9999962 magnetization       0.0000000
 augmentation part       17.4346893 magnetization      -0.0015892

 Broyden mixing:
  rms(total) = 0.32123E+00    rms(broyden)= 0.32040E+00
  rms(prec ) = 0.41884E+00
  weight for this iteration     100.00

 eigenvalues of (default mixing * dielectric matrix)
  average eigenvalue GAMMA=   1.4022
  3.7671  1.2729  0.9224  0.5243  0.5243

 Free energy of the ion-electron system (eV)
  ---------------------------------------------------
  alpha Z        PSCENC =       129.88610169
  Ewald energy   TEWEN  =     24288.71844263
  -Hartree energ DENC   =    -36929.11179429
  -exchange      EXHF   =         0.00000000
  -V(xc)+E(xc)   XCENC  =      1072.67838078
  PAW double counting   =     23923.57145147   -24421.03753697
  entropy T*S    EENTRO =         0.00000000
  eigenvalues    EBANDS =     -3718.03640737
  atomic energy  EATOM  =     15171.73615219
  Solvation  Ediel_sol  =         0.00000000
  ---------------------------------------------------
  free energy    TOTEN  =      -481.59520987 eV

  energy without entropy =     -481.59520987  energy(sigma->0) =     -481.59520987


--------------------------------------------------------------------------------------------------------




--------------------------------------- Iteration      1(  11)  ---------------------------------------


    POTLOK:  cpu time    0.1373: real time    0.1477
    SETDIJ:  cpu time    0.0089: real time    0.0089
     EDDAV:  cpu time   16.1990: real time   16.2163
 BZINTS: Fermi energy: -2.850963;280.000000 electrons
         Band energy:***********;  BLOECHL correction:  0.000000
       DOS:  cpu time    0.0164: real time    0.0164
    CHARGE:  cpu time    0.2697: real time    0.2699
    MIXING:  cpu time    0.0045: real time    0.0045
    --------------------------------------------
      LOOP:  cpu time   16.6357: real time   16.6636

 eigenvalue-minimisations  :  4512
 total energy-change (2. order) : 0.8839729E-01  (-0.3303859E+00)
 number of electron     279.9999962 magnetization       0.0000000
 augmentation part       17.4193564 magnetization      -0.0011416

 Broyden mixing:
  rms(total) = 0.23841E+00    rms(broyden)= 0.23798E+00
  rms(prec ) = 0.32285E+00
  weight for this iteration     100.00

 eigenvalues of (default mixing * dielectric matrix)
  average eigenvalue GAMMA=   1.3275
  3.7718  1.2669  0.9854  0.9854  0.4777  0.4777

 Free energy of the ion-electron system (eV)
  ---------------------------------------------------
  alpha Z        PSCENC =       129.88610169
  Ewald energy   TEWEN  =     24288.71844263
  -Hartree energ DENC   =    -36927.74276028
  -exchange      EXHF   =         0.00000000
  -V(xc)+E(xc)   XCENC  =      1072.78093118
  PAW double counting   =     24541.24381002   -25038.32696750
  entropy T*S    EENTRO =         0.00000000
  eigenvalues    EBANDS =     -3719.80252251
  atomic energy  EATOM  =     15171.73615219
  Solvation  Ediel_sol  =         0.00000000
  ---------------------------------------------------
  free energy    TOTEN  =      -481.50681258 eV

  energy without entropy =     -481.50681258  energy(sigma->0) =     -481.50681258


--------------------------------------------------------------------------------------------------------




--------------------------------------- Iteration      1(  12)  ---------------------------------------


    POTLOK:  cpu time    0.1385: real time    0.1474
    SETDIJ:  cpu time    0.0089: real time    0.0089
     EDDAV:  cpu time   17.1766: real time   17.2064
 BZINTS: Fermi energy: -2.864716;280.000000 electrons
         Band energy:***********;  BLOECHL correction:  0.000000
       DOS:  cpu time    0.0159: real time    0.0159
    CHARGE:  cpu time    0.2684: real time    0.2684
    MIXING:  cpu time    0.0047: real time    0.0047
    --------------------------------------------
      LOOP:  cpu time   17.6133: real time   17.6520

 eigenvalue-minimisations  :  4872
 total energy-change (2. order) : 0.9273145E-01  (-0.1621618E+00)
 number of electron     279.9999962 magnetization      -0.0000000
 augmentation part       17.3764629 magnetization      -0.0005239

 Broyden mixing:
  rms(total) = 0.13848E+00    rms(broyden)= 0.13813E+00
  rms(prec ) = 0.17334E+00
  weight for this iteration     100.00

 eigenvalues of (default mixing * dielectric matrix)
  average eigenvalue GAMMA=   1.3138
  3.7249  1.7675  1.1698  0.7842  0.7842  0.4831  0.4831

 Free energy of the ion-electron system (eV)
  ---------------------------------------------------
  alpha Z        PSCENC =       129.88610169
  Ewald energy   TEWEN  =     24288.71844263
  -Hartree energ DENC   =    -36917.16558739
  -exchange      EXHF   =         0.00000000
  -V(xc)+E(xc)   XCENC  =      1072.45089984
  PAW double counting   =     24694.00023431   -25190.39908362
  entropy T*S    EENTRO =         0.00000000
  eigenvalues    EBANDS =     -3730.64124077
  atomic energy  EATOM  =     15171.73615219
  Solvation  Ediel_sol  =         0.00000000
  ---------------------------------------------------
  free energy    TOTEN  =      -481.41408113 eV

  energy without entropy =     -481.41408113  energy(sigma->0) =     -481.41408113


--------------------------------------------------------------------------------------------------------




--------------------------------------- Iteration      1(  13)  ---------------------------------------


    POTLOK:  cpu time    0.1428: real time    0.1470
    SETDIJ:  cpu time    0.0088: real time    0.0088
     EDDAV:  cpu time   14.6602: real time   14.6810
 BZINTS: Fermi energy: -2.885971;280.000000 electrons
         Band energy:***********;  BLOECHL correction:  0.000000
       DOS:  cpu time    0.0160: real time    0.0160
    CHARGE:  cpu time    0.2674: real time    0.2682
    MIXING:  cpu time    0.0049: real time    0.0049
    --------------------------------------------
      LOOP:  cpu time   15.0997: real time   15.1255

 eigenvalue-minimisations  :  3968
 total energy-change (2. order) : 0.3446997E-01  (-0.2035661E-01)
 number of electron     279.9999962 magnetization      -0.0000000
 augmentation part       17.3948361 magnetization      -0.0000452

 Broyden mixing:
  rms(total) = 0.79885E-01    rms(broyden)= 0.79853E-01
  rms(prec ) = 0.96858E-01
  weight for this iteration     100.00

 eigenvalues of (default mixing * dielectric matrix)
  average eigenvalue GAMMA=   1.3217
  3.7109  2.3438  1.1769  0.8167  0.8167  0.7384  0.4850  0.4850

 Free energy of the ion-electron system (eV)
  ---------------------------------------------------
  alpha Z        PSCENC =       129.88610169
  Ewald energy   TEWEN  =     24288.71844263
  -Hartree energ DENC   =    -36902.41176847
  -exchange      EXHF   =         0.00000000
  -V(xc)+E(xc)   XCENC  =      1071.88919149
  PAW double counting   =     24773.18849993   -25269.47290227
  entropy T*S    EENTRO =         0.00000000
  eigenvalues    EBANDS =     -3744.91332834
  atomic energy  EATOM  =     15171.73615219
  Solvation  Ediel_sol  =         0.00000000
  ---------------------------------------------------
  free energy    TOTEN  =      -481.37961116 eV

  energy without entropy =     -481.37961116  energy(sigma->0) =     -481.37961116


--------------------------------------------------------------------------------------------------------




--------------------------------------- Iteration      1(  14)  ---------------------------------------


    POTLOK:  cpu time    0.1450: real time    0.1457
    SETDIJ:  cpu time    0.0089: real time    0.0089
     EDDAV:  cpu time   15.3079: real time   15.3339
 BZINTS: Fermi energy: -2.929732;280.000000 electrons
         Band energy:***********;  BLOECHL correction:  0.000000
       DOS:  cpu time    0.0157: real time    0.0157
    CHARGE:  cpu time    0.2683: real time    0.2684
    MIXING:  cpu time    0.0053: real time    0.0053
    --------------------------------------------
      LOOP:  cpu time   15.7511: real time   15.7778

 eigenvalue-minimisations  :  4200
 total energy-change (2. order) : 0.5469797E-02  (-0.1298870E-01)
 number of electron     279.9999962 magnetization       0.0000000
 augmentation part       17.4033780 magnetization       0.0001523

 Broyden mixing:
  rms(total) = 0.49121E-01    rms(broyden)= 0.48959E-01
  rms(prec ) = 0.64527E-01
  weight for this iteration     100.00

 eigenvalues of (default mixing * dielectric matrix)
  average eigenvalue GAMMA=   1.3189
  3.7570  2.5252  1.1351  0.8630  0.8630  0.8813  0.8813  0.4819  0.4819

 Free energy of the ion-electron system (eV)
  ---------------------------------------------------
  alpha Z        PSCENC =       129.88610169
  Ewald energy   TEWEN  =     24288.71844263
  -Hartree energ DENC   =    -36894.11712484
  -exchange      EXHF   =         0.00000000
  -V(xc)+E(xc)   XCENC  =      1071.57164229
  PAW double counting   =     24849.66775113   -25345.86568177
  entropy T*S    EENTRO =         0.00000000
  eigenvalues    EBANDS =     -3752.97142469
  atomic energy  EATOM  =     15171.73615219
  Solvation  Ediel_sol  =         0.00000000
  ---------------------------------------------------
  free energy    TOTEN  =      -481.37414136 eV

  energy without entropy =     -481.37414136  energy(sigma->0) =     -481.37414136


--------------------------------------------------------------------------------------------------------




--------------------------------------- Iteration      1(  15)  ---------------------------------------


    POTLOK:  cpu time    0.1426: real time    0.1456
    SETDIJ:  cpu time    0.0089: real time    0.0089
     EDDAV:  cpu time   15.1919: real time   15.2205
 BZINTS: Fermi energy: -2.924731;280.000000 electrons
         Band energy:***********;  BLOECHL correction:  0.000000
       DOS:  cpu time    0.0156: real time    0.0156
    CHARGE:  cpu time    0.2677: real time    0.2677
    MIXING:  cpu time    0.0057: real time    0.0057
    --------------------------------------------
      LOOP:  cpu time   15.6324: real time   15.6639

 eigenvalue-minimisations  :  4176
 total energy-change (2. order) :-0.1874438E-02  (-0.1263723E-01)
 number of electron     279.9999962 magnetization      -0.0000000
 augmentation part       17.4020364 magnetization       0.0001600

 Broyden mixing:
  rms(total) = 0.52473E-01    rms(broyden)= 0.52359E-01
  rms(prec ) = 0.72959E-01
  weight for this iteration     100.00

 eigenvalues of (default mixing * dielectric matrix)
  average eigenvalue GAMMA=   1.3069
  3.7297  2.7017  1.2068  1.1606  1.1606  0.7625  0.7625  0.6339  0.4756  0.4756

 Free energy of the ion-electron system (eV)
  ---------------------------------------------------
  alpha Z        PSCENC =       129.88610169
  Ewald energy   TEWEN  =     24288.71844263
  -Hartree energ DENC   =    -36893.63485739
  -exchange      EXHF   =         0.00000000
  -V(xc)+E(xc)   XCENC  =      1071.54213602
  PAW double counting   =     24891.83287941   -25388.02429219
  entropy T*S    EENTRO =         0.00000000
  eigenvalues    EBANDS =     -3753.43257815
  atomic energy  EATOM  =     15171.73615219
  Solvation  Ediel_sol  =         0.00000000
  ---------------------------------------------------
  free energy    TOTEN  =      -481.37601580 eV

  energy without entropy =     -481.37601580  energy(sigma->0) =     -481.37601580


--------------------------------------------------------------------------------------------------------




--------------------------------------- Iteration      1(  16)  ---------------------------------------


    POTLOK:  cpu time    0.1450: real time    0.1507
    SETDIJ:  cpu time    0.0090: real time    0.0090
     EDDAV:  cpu time   15.4446: real time   15.4672
 BZINTS: Fermi energy: -2.925981;280.000000 electrons
         Band energy:***********;  BLOECHL correction:  0.000000
       DOS:  cpu time    0.0165: real time    0.0165
    CHARGE:  cpu time    0.2689: real time    0.2689
    MIXING:  cpu time    0.0057: real time    0.0057
    --------------------------------------------
      LOOP:  cpu time   15.8896: real time   15.9180

 eigenvalue-minimisations  :  4240
 total energy-change (2. order) : 0.4140763E-02  (-0.6304786E-02)
 number of electron     279.9999962 magnetization      -0.0000000
 augmentation part       17.4022313 magnetization       0.0001099

 Broyden mixing:
  rms(total) = 0.20832E-01    rms(broyden)= 0.20680E-01
  rms(prec ) = 0.26944E-01
  weight for this iteration     100.00

 eigenvalues of (default mixing * dielectric matrix)
  average eigenvalue GAMMA=   1.2975
  3.6849  2.9234  1.4797  1.1521  1.1521  0.7717  0.7717  0.7956  0.5994  0.4711
  0.4711

 Free energy of the ion-electron system (eV)
  ---------------------------------------------------
  alpha Z        PSCENC =       129.88610169
  Ewald energy   TEWEN  =     24288.71844263
  -Hartree energ DENC   =    -36892.93617564
  -exchange      EXHF   =         0.00000000
  -V(xc)+E(xc)   XCENC  =      1071.51150754
  PAW double counting   =     24901.37735486   -25397.60226582
  entropy T*S    EENTRO =         0.00000000
  eigenvalues    EBANDS =     -3754.06299248
  atomic energy  EATOM  =     15171.73615219
  Solvation  Ediel_sol  =         0.00000000
  ---------------------------------------------------
  free energy    TOTEN  =      -481.37187504 eV

  energy without entropy =     -481.37187504  energy(sigma->0) =     -481.37187504


--------------------------------------------------------------------------------------------------------




--------------------------------------- Iteration      1(  17)  ---------------------------------------


    POTLOK:  cpu time    0.1359: real time    0.1459
    SETDIJ:  cpu time    0.0088: real time    0.0088
     EDDAV:  cpu time   14.3467: real time   14.3738
 BZINTS: Fermi energy: -2.925981;280.000000 electrons
         Band energy:***********;  BLOECHL correction:  0.000000
       DOS:  cpu time    0.0159: real time    0.0159
    CHARGE:  cpu time    0.2677: real time    0.2677
    MIXING:  cpu time    0.0059: real time    0.0059
    --------------------------------------------
      LOOP:  cpu time   14.7810: real time   14.8181

 eigenvalue-minimisations  :  3864
 total energy-change (2. order) :-0.1851302E-03  (-0.8262044E-03)
 number of electron     279.9999962 magnetization      -0.0000000
 augmentation part       17.4028184 magnetization       0.0001170

 Broyden mixing:
  rms(total) = 0.11671E-01    rms(broyden)= 0.11661E-01
  rms(prec ) = 0.12688E-01
  weight for this iteration     100.00

 eigenvalues of (default mixing * dielectric matrix)
  average eigenvalue GAMMA=   1.3157
  3.6604  2.8269  1.5309  1.5309  1.2100  0.9734  0.9734  0.7771  0.7771  0.4710
  0.4710  0.5859

 Free energy of the ion-electron system (eV)
  ---------------------------------------------------
  alpha Z        PSCENC =       129.88610169
  Ewald energy   TEWEN  =     24288.71844263
  -Hartree energ DENC   =    -36892.71744927
  -exchange      EXHF   =         0.00000000
  -V(xc)+E(xc)   XCENC  =      1071.50187392
  PAW double counting   =     24904.77213086   -25401.01016174
  entropy T*S    EENTRO =         0.00000000
  eigenvalues    EBANDS =     -3754.25915045
  atomic energy  EATOM  =     15171.73615219
  Solvation  Ediel_sol  =         0.00000000
  ---------------------------------------------------
  free energy    TOTEN  =      -481.37206017 eV

  energy without entropy =     -481.37206017  energy(sigma->0) =     -481.37206017


--------------------------------------------------------------------------------------------------------




--------------------------------------- Iteration      1(  18)  ---------------------------------------


    POTLOK:  cpu time    0.1457: real time    0.1485
    SETDIJ:  cpu time    0.0092: real time    0.0092
     EDDAV:  cpu time   14.6423: real time   14.6689
 BZINTS: Fermi energy: -2.925981;280.000000 electrons
         Band energy:***********;  BLOECHL correction:  0.000000
       DOS:  cpu time    0.0158: real time    0.0158
    CHARGE:  cpu time    0.2681: real time    0.2681
    MIXING:  cpu time    0.0061: real time    0.0061
    --------------------------------------------
      LOOP:  cpu time   15.0872: real time   15.1167

 eigenvalue-minimisations  :  3960
 total energy-change (2. order) :-0.1254226E-03  (-0.2969860E-03)
 number of electron     279.9999962 magnetization       0.0000000
 augmentation part       17.4028981 magnetization       0.0001305

 Broyden mixing:
  rms(total) = 0.11700E-01    rms(broyden)= 0.11686E-01
  rms(prec ) = 0.15084E-01
  weight for this iteration     100.00

 eigenvalues of (default mixing * dielectric matrix)
  average eigenvalue GAMMA=   1.3472
  3.6184  2.6524  2.6524  1.4941  1.1784  1.1784  0.7886  0.7886  0.8246  0.8246
  0.4699  0.4699  0.5738

 Free energy of the ion-electron system (eV)
  ---------------------------------------------------
  alpha Z        PSCENC =       129.88610169
  Ewald energy   TEWEN  =     24288.71844263
  -Hartree energ DENC   =    -36893.01118423
  -exchange      EXHF   =         0.00000000
  -V(xc)+E(xc)   XCENC  =      1071.51687128
  PAW double counting   =     24902.33976552   -25398.58333821
  entropy T*S    EENTRO =         0.00000000
  eigenvalues    EBANDS =     -3753.97499646
  atomic energy  EATOM  =     15171.73615219
  Solvation  Ediel_sol  =         0.00000000
  ---------------------------------------------------
  free energy    TOTEN  =      -481.37218559 eV

  energy without entropy =     -481.37218559  energy(sigma->0) =     -481.37218559


--------------------------------------------------------------------------------------------------------




--------------------------------------- Iteration      1(  19)  ---------------------------------------


    POTLOK:  cpu time    0.1347: real time    0.1451
    SETDIJ:  cpu time    0.0090: real time    0.0090
     EDDAV:  cpu time   12.7568: real time   12.7716
 BZINTS: Fermi energy: -2.924731;280.000000 electrons
         Band energy:***********;  BLOECHL correction:  0.000000
       DOS:  cpu time    0.0155: real time    0.0155
    CHARGE:  cpu time    0.2713: real time    0.2714
    MIXING:  cpu time    0.0064: real time    0.0065
    --------------------------------------------
      LOOP:  cpu time   13.1938: real time   13.2191

 eigenvalue-minimisations  :  3280
 total energy-change (2. order) : 0.4429113E-04  (-0.2584559E-03)
 number of electron     279.9999962 magnetization      -0.0000000
 augmentation part       17.4025312 magnetization       0.0002928

 Broyden mixing:
  rms(total) = 0.62643E-02    rms(broyden)= 0.62359E-02
  rms(prec ) = 0.64826E-02
  weight for this iteration     100.00

 eigenvalues of (default mixing * dielectric matrix)
  average eigenvalue GAMMA=   1.2963
  3.5952  2.7704  2.7704  1.4815  1.1988  1.1988  0.7909  0.7909  0.8307  0.8307
  0.5748  0.4699  0.4699  0.3759

 Free energy of the ion-electron system (eV)
  ---------------------------------------------------
  alpha Z        PSCENC =       129.88610169
  Ewald energy   TEWEN  =     24288.71844263
  -Hartree energ DENC   =    -36893.54974413
  -exchange      EXHF   =         0.00000000
  -V(xc)+E(xc)   XCENC  =      1071.53977465
  PAW double counting   =     24901.61682820   -25397.86294809
  entropy T*S    EENTRO =         0.00000000
  eigenvalues    EBANDS =     -3753.45674844
  atomic energy  EATOM  =     15171.73615219
  Solvation  Ediel_sol  =         0.00000000
  ---------------------------------------------------
  free energy    TOTEN  =      -481.37214130 eV

  energy without entropy =     -481.37214130  energy(sigma->0) =     -481.37214130


--------------------------------------------------------------------------------------------------------




--------------------------------------- Iteration      1(  20)  ---------------------------------------


[...]
   -.140E+02 0.461E+02 0.165E+03   0.147E+02 -.482E+02 -.166E+03   -.485E+00 0.214E+01 0.129E+01   -.383E-02 -.598E-02 -.557E-02
   -.543E+02 -.142E+02 0.796E+02   0.563E+02 0.153E+02 -.801E+02   -.223E+01 -.103E+01 0.785E+00   0.453E-03 -.120E-03 -.952E-03
   0.358E+02 -.272E+02 -.299E+02   -.364E+02 0.235E+02 0.285E+02   0.390E+00 0.269E+01 0.767E+00   0.160E-02 -.400E-02 -.102E-02
   0.251E+02 -.134E+02 -.408E+02   -.210E+02 0.160E+02 0.404E+02   -.294E+01 -.173E+01 0.337E+00   0.196E-02 -.228E-02 0.418E-03
   -.829E+01 0.481E+00 -.502E+02   0.406E+01 0.196E+01 0.498E+02   0.313E+01 -.157E+01 0.178E+00   0.288E-03 -.155E-02 -.678E-03
   -.224E+02 0.156E+02 -.598E+02   0.220E+02 -.138E+02 0.606E+02   0.941E+00 -.161E+01 -.106E+01   -.124E-01 0.624E-02 0.551E-02
   -.311E+01 0.163E+02 0.405E+02   0.305E+01 -.184E+02 -.395E+02   0.388E-01 0.260E+01 -.585E+00   -.263E-02 -.215E-02 0.241E-02
   0.289E+02 0.144E+02 -.558E+02   -.283E+02 -.123E+02 0.560E+02   -.111E+01 -.190E+01 -.823E+00   0.225E-03 -.700E-03 -.743E-03
   -.309E+01 -.168E+02 -.116E+02   0.314E+01 0.122E+02 0.128E+02   -.864E-01 0.342E+01 -.713E+00   0.787E-02 -.471E-02 -.523E-03
   0.365E+02 0.262E+02 0.159E+03   -.325E+02 -.241E+02 -.158E+03   -.283E+01 -.157E+01 -.301E+00   0.145E-01 0.715E-03 0.774E-03
   -.143E+02 0.212E+02 0.720E+02   0.103E+02 -.188E+02 -.711E+02   0.291E+01 -.141E+01 -.551E+00   0.119E-01 -.605E-02 -.205E-02
   0.563E+02 -.130E+02 0.547E+02   -.582E+02 0.141E+02 -.549E+02   0.227E+01 -.106E+01 0.388E+00   -.337E-02 0.298E-02 -.177E-03
   0.470E+01 0.655E+02 0.176E+03   -.511E+01 -.675E+02 -.176E+03   0.843E-01 0.215E+01 0.134E+01   -.350E-02 -.560E-04 0.361E-02
   -.557E+02 -.509E+02 -.823E+02   0.575E+02 0.519E+02 0.825E+02   -.217E+01 -.118E+01 -.366E+00   0.157E-03 0.275E-02 -.209E-02
   -.301E+02 -.264E+02 -.118E+03   0.306E+02 0.226E+02 0.117E+03   -.939E-01 0.262E+01 0.804E+00   -.110E-02 0.786E-02 0.193E-02
   0.114E+02 -.459E+00 -.916E+02   -.703E+01 0.281E+01 0.906E+02   -.311E+01 -.150E+01 0.419E+00   0.177E-02 0.509E-02 -.247E-03
   -.276E+02 -.931E+01 -.743E+02   0.236E+02 0.120E+02 0.731E+02   0.291E+01 -.181E+01 0.769E+00   -.361E-02 0.399E-02 0.244E-03
   0.637E+02 -.604E+02 0.114E+03   -.660E+02 0.614E+02 -.113E+03   0.217E+01 -.153E+01 -.600E-02   0.190E-02 -.761E-02 0.666E-03
   -.894E+01 0.373E+02 -.158E+03   0.893E+01 -.398E+02 0.158E+03   -.163E-01 0.274E+01 -.119E+01   0.156E-02 -.150E-02 0.454E-03
   -.731E+02 -.221E+02 -.509E+02   0.753E+02 0.226E+02 0.516E+02   -.239E+01 -.559E+00 -.876E+00   0.423E-02 0.702E-02 0.399E-02
   -.127E+02 0.344E+02 0.137E+03   0.129E+02 -.354E+02 -.139E+03   -.318E+00 0.711E+00 0.236E+01   -.228E-01 -.826E-05 0.159E-02
   -.168E+03 -.252E+02 0.187E+03   0.196E+03 0.405E+02 -.197E+03   -.302E+02 -.166E+02 0.119E+02   -.728E-02 -.856E-02 0.919E-03
   0.135E+03 -.133E+03 -.200E+03   -.163E+03 0.147E+03 0.210E+03   0.300E+02 -.157E+02 -.112E+02   0.488E-02 -.577E-02 -.288E-02
   0.208E+01 0.148E+03 0.330E+03   0.265E+00 -.174E+03 -.350E+03   -.277E+01 0.283E+02 0.223E+02   0.867E-02 -.123E-01 -.674E-02
   -.348E+02 0.122E+03 0.346E+03   0.321E+02 -.147E+03 -.369E+03   0.268E+01 0.261E+02 0.247E+02   -.985E-02 -.742E-02 -.484E-02
   0.166E+03 -.852E+02 -.952E+02   -.193E+03 0.103E+03 0.951E+02   0.292E+02 -.200E+02 -.223E+00   0.122E-01 -.113E-01 -.740E-03
   -.125E+03 -.692E+02 0.213E+03   0.152E+03 0.775E+02 -.230E+03   -.293E+02 -.891E+01 0.194E+02   -.122E-02 -.476E-02 0.262E-02
   -.392E+01 -.168E+00 -.207E+02   0.407E+01 0.238E+00 0.217E+02   -.183E+00 -.392E-01 -.104E+01   0.436E-03 0.533E-03 -.689E-03
   0.152E+02 -.209E+02 -.811E+02   -.155E+02 0.214E+02 0.850E+02   0.189E+00 -.640E+00 -.427E+01   0.195E-02 -.620E-02 -.124E-02
   0.298E+00 -.539E+02 -.255E+03   0.193E+02 0.656E+02 0.275E+03   -.209E+02 -.127E+02 -.227E+02   0.155E-02 -.244E-02 -.516E-02
   0.610E+01 0.583E+02 -.639E+02   -.237E+02 -.544E+02 0.736E+02   0.193E+02 -.416E+01 -.105E+02   -.166E-01 0.875E-02 0.673E-02
   -.150E+02 0.953E+02 0.105E+03   0.177E+02 -.126E+03 -.114E+03   -.309E+01 0.332E+02 0.998E+01   -.767E-02 0.343E-02 0.437E-02
   0.309E+00 0.924E+02 0.116E+03   -.228E+01 -.123E+03 -.125E+03   0.222E+01 0.330E+02 0.101E+02   -.183E-02 -.242E-02 0.515E-02
   0.327E+02 -.526E+02 -.278E+03   -.563E+02 0.648E+02 0.293E+03   0.252E+02 -.134E+02 -.175E+02   -.103E-01 0.445E-02 -.583E-03
   -.124E+01 0.665E+02 -.913E+02   0.173E+02 -.631E+02 0.104E+03   -.176E+02 -.353E+01 -.142E+02   -.889E-02 -.274E-02 -.423E-02
   0.453E+02 0.159E+02 0.603E+02   -.490E+02 -.186E+02 -.597E+02   0.440E+01 0.301E+01 -.429E+00   -.413E-02 -.106E-01 -.351E-02
   0.127E+02 0.334E+02 0.124E+03   -.145E+02 -.349E+02 -.128E+03   0.193E+01 0.173E+01 0.448E+01   0.278E-01 -.611E-02 -.196E-02
   -.163E+03 -.893E+02 -.104E+03   0.190E+03 0.107E+03 0.104E+03   -.297E+02 -.193E+02 -.747E+00   -.102E-02 0.970E-03 -.467E-02
   0.128E+03 -.586E+02 0.166E+03   -.156E+03 0.665E+02 -.181E+03   0.305E+02 -.851E+01 0.168E+02   0.805E-03 0.496E-02 0.219E-02
   0.123E+02 0.142E+03 0.357E+03   -.745E+01 -.167E+03 -.378E+03   -.495E+01 0.269E+02 0.231E+02   -.472E-02 0.835E-02 0.124E-01
   0.544E+01 0.203E+03 0.299E+03   -.693E+01 -.234E+03 -.308E+03   0.191E+01 0.338E+02 0.108E+02   0.429E-02 0.150E-01 0.916E-02
   0.168E+03 -.262E+02 0.113E+03   -.197E+03 0.426E+02 -.118E+03   0.309E+02 -.178E+02 0.566E+01   -.224E-02 0.446E-02 0.872E-03
   -.123E+03 -.136E+03 -.245E+03   0.149E+03 0.151E+03 0.257E+03   -.285E+02 -.156E+02 -.144E+02   -.430E-02 0.346E-02 -.419E-02
   0.672E+00 -.299E+02 -.104E+02   -.562E+00 0.310E+02 0.825E+01   -.123E+00 -.129E+01 0.239E+01   -.194E-03 0.280E-02 0.112E-02
   -.147E+02 -.230E+02 -.157E+03   0.147E+02 0.247E+02 0.162E+03   0.132E+00 -.193E+01 -.572E+01   -.175E-02 0.544E-02 0.395E-03
   -.195E+03 -.562E+02 -.775E+02   0.222E+03 0.732E+02 0.781E+02   -.300E+02 -.184E+02 -.644E+00   0.326E-03 0.965E-02 0.383E-02
   0.154E+03 -.126E+03 0.255E+03   -.183E+03 0.141E+03 -.260E+03   0.310E+02 -.154E+02 0.711E+01   0.220E-01 -.117E-01 0.287E-02
   0.112E+01 0.127E+03 -.322E+03   0.315E+01 -.153E+03 0.343E+03   -.468E+01 0.278E+02 -.226E+02   0.284E-02 0.220E-03 -.351E-02
   -.306E+02 0.976E+02 -.362E+03   0.291E+02 -.122E+03 0.386E+03   0.166E+01 0.257E+02 -.259E+02   0.323E-02 0.460E-02 -.270E-02
   0.164E+03 -.110E+03 0.196E+03   -.186E+03 0.131E+03 -.208E+03   0.238E+02 -.226E+02 0.126E+02   0.930E-02 -.746E-02 0.357E-02
   -.145E+03 -.626E+02 -.157E+03   0.174E+03 0.706E+02 0.170E+03   -.317E+02 -.848E+01 -.142E+02   0.171E-01 0.156E-02 0.298E-02
   -.424E+02 0.185E+02 0.365E+02   0.450E+02 -.204E+02 -.384E+02   -.310E+01 0.223E+01 0.224E+01   -.450E-02 0.766E-02 0.498E-02
   0.384E+02 -.101E+03 -.823E+03   -.393E+02 0.114E+03 0.837E+03   0.953E+00 -.136E+02 -.156E+02   -.258E-01 0.529E-02 0.531E-03
   -.572E+02 -.130E+03 0.124E+03   0.628E+02 0.143E+03 -.139E+03   -.767E+01 -.173E+02 0.202E+02   -.117E-02 -.309E-03 -.952E-05
   0.485E+02 0.109E+03 -.709E+02   -.614E+02 -.138E+03 0.105E+03   0.149E+02 0.336E+02 -.391E+02   -.733E-03 0.233E-02 -.296E-02
 -----------------------------------------------------------------------------------------------
   -.496E+01 -.219E+02 0.156E+02   0.128E-12 0.199E-12 0.142E-12   0.499E+01 0.219E+02 -.157E+02   -.288E-01 -.110E-01 0.215E-01


 POSITION                                       TOTAL-FORCE (eV/Angst)
 -----------------------------------------------------------------------------------
     -0.01585      2.62561      6.93851        -0.008303     -1.275716      0.528147
      1.29384      4.88406      7.04495         1.362766      0.195079      0.181183
     -1.35138      4.83579      6.95160        -1.390522      0.153748     -0.006321
      6.09572      0.70096      8.19826         0.282781     -0.057655     -0.280428
      3.69734      4.88274      6.71689         0.157520      0.018463      0.454632
      1.25705      0.63115      7.29177        -0.284164      0.026958      0.228578
     -3.80901      8.80600      7.85176        -0.181400     -1.039255     -0.595007
     -2.35800     10.97654      8.12683         1.081402      0.853610     -0.155729
     -4.96382     11.07774      8.07793        -1.094148      0.869192     -0.269812
      2.55020      6.70630      8.13800         0.521369      0.186015     -0.265791
      0.04178     10.88370      7.93236        -0.024194      0.474734      0.381532
     -2.70213      6.70284      7.80041        -0.468313      0.247081     -0.618611
      7.40576      2.63903      7.67374        -0.032070     -1.154982      0.534385
      8.59012      4.67311      6.51587         1.105934      0.534034      0.288799
      6.06354      4.76498      7.08157        -1.075209      0.905431      0.315063
     13.40278      0.45838      7.48287         0.325861      0.069729      0.201410
     10.96816      4.60156      6.42043        -0.321684      0.148365      0.451477
      8.65758      0.68708      8.29904        -0.327777     -0.159500     -0.229796
      3.78057      8.69250      8.60459         0.340578     -1.138671     -0.638390
      5.00696     10.96371      8.47153         1.205382      0.850659     -0.612493
      2.39483     10.94080      8.44683        -1.137182      0.877930     -0.417171
      9.63941      6.78769      6.84384        -0.086986     -0.550923      0.198258
      7.38839     10.98556      8.65890        -0.027374      0.242602     -0.555258
      5.04754      6.75039      7.94651        -0.135458     -0.085554     -0.148413
     -0.01522      4.12487      6.91568        -0.076563     -0.315049      0.209895
      1.23635      1.96223      6.85087        -2.069103     -1.309512      1.046299
      4.92112     -0.04559      8.46004         2.077518     -1.160728     -1.314467
      4.92347      4.26605      6.39667        -0.409399      1.949795      1.947801
      2.41160      4.40243      6.35480         0.013140      1.603686      2.109576
      6.12333      2.08873      7.99885         2.051245     -1.784646     -0.356782
     -4.92134     12.21876      7.25957        -2.085138     -0.671339      1.774897
      0.01784      0.02267      7.83492        -0.039104      0.030140     -0.100277
     -3.68009     10.26644      8.11186        -0.129853     -0.108670     -0.382719
     -2.76791      7.97223      8.39056        -1.279762     -1.052426     -2.170017
      1.29326      6.02142      7.97339         1.705435     -0.213029     -0.857262
      1.28387     10.19744      7.94434        -0.341075      2.356815      0.996875
     -1.19728     10.21375      7.77978         0.250882      2.379515      1.019464
      2.56804      7.93270      8.82059         1.542099     -1.163890     -1.896959
     -1.46867      5.96706      7.87108        -1.512694     -0.104619     -1.258345
     10.86490      5.94848      7.08994         0.680376      0.354042      0.170278
      7.37058      3.95795      6.98389         0.140651      0.189103      0.410270
      8.66782      2.06948      8.03201        -2.145786     -1.634281     -0.253082
      4.90244     12.05889      7.59654         2.183895     -0.589785      1.655886
     -2.39301      4.31314      6.18069        -0.124833      1.721653      2.125436
      9.76406      3.92512      6.19224         0.422084      2.597686      1.248116
     13.38935      1.79537      7.07631         2.163192     -1.444272      0.568385
      9.77651     -0.07022      8.73548        -1.899045     -1.163274     -1.526750
      7.37968     -0.05393      8.08085        -0.012826     -0.179643      0.228348
      3.70028     10.18253      8.65150         0.134364     -0.201327     -0.532712
      5.02743      8.11377      8.30592        -2.290146     -1.358700     -0.094891
      8.49303      6.11289      6.45011         2.491037     -0.824470      1.277848
     -6.02594     10.57129      8.88170        -0.398633      1.903978     -1.918725
      6.15519     10.48423      9.15792         0.141490      1.517166     -2.270097
     -4.90685      8.39512      7.06715         1.884895     -1.561771      1.216872
      6.19086      5.95536      7.85048        -2.435966     -0.484326     -1.351427
      3.73832      6.11848      7.58560        -0.500774      0.303818      0.403855
     -0.14198      7.29192      9.02667         0.081242     -0.774054     -1.091749
     -0.14198      7.29192     15.36547        -2.001431     -4.526339      5.260751
     -0.48225      6.52253      0.36153         1.999781      4.527380     -5.264833
 -----------------------------------------------------------------------------------
    total drift:                                0.000940     -0.000540     -0.009460


--------------------------------------------------------------------------------------------------------



  FREE ENERGIE OF THE ION-ELECTRON SYSTEM (eV)
  ---------------------------------------------------
  free  energy   TOTEN  =      -485.18159925 eV

  energy  without entropy=     -485.18159925  energy(sigma->0) =     -485.18159925



--------------------------------------------------------------------------------------------------------


    POTLOK:  cpu time    0.1463: real time    0.1463


--------------------------------------------------------------------------------------------------------


     LOOP+:  cpu time  357.9006: real time  358.5858
    4ORBIT:  cpu time    0.0000: real time    0.0000



 total charge     

# of ion       s       p       d       tot
------------------------------------------
    1        0.815   1.560   0.000   2.374
    2        0.804   1.550   0.000   2.353
    3        0.806   1.553   0.000   2.360
    4        0.827   1.564   0.000   2.392
    5        0.820   1.563   0.000   2.383
    6        0.830   1.572   0.000   2.402
    7        0.815   1.554   0.000   2.369
    8        0.815   1.549   0.000   2.364
    9        0.819   1.552   0.000   2.371
   10        0.828   1.589   0.000   2.417
   11        0.827   1.567   0.000   2.395
   12        0.831   1.597   0.000   2.428
   13        0.815   1.549   0.000   2.364
   14        0.810   1.555   0.000   2.365
   15        0.808   1.557   0.000   2.366
   16        0.830   1.577   0.000   2.407
   17        0.821   1.571   0.000   2.391
   18        0.825   1.562   0.000   2.387
   19        0.814   1.553   0.000   2.367
   20        0.817   1.549   0.000   2.366
   21        0.813   1.544   0.000   2.356
   22        0.826   1.565   0.000   2.391
   23        0.827   1.553   0.000   2.381
   24        0.827   1.579   0.000   2.406
   25        1.184   2.560   0.000   3.744
   26        1.263   2.495   0.000   3.758
   27        1.260   2.493   0.000   3.753
   28        1.265   2.467   0.000   3.732
   29        1.261   2.486   0.000   3.747
   30        1.260   2.489   0.000   3.750
   31        1.268   2.490   0.000   3.758
   32        1.213   2.585   0.000   3.798
   33        1.191   2.574   0.000   3.764
   34        1.256   2.506   0.000   3.762
   35        1.232   2.511   0.000   3.743
   36        1.258   2.489   0.000   3.747
   37        1.257   2.489   0.000   3.747
   38        1.254   2.498   0.000   3.752
   39        1.232   2.517   0.000   3.749
   40        1.210   2.602   0.000   3.812
   41        1.190   2.559   0.000   3.749
   42        1.260   2.480   0.000   3.741
   43        1.265   2.496   0.000   3.761
   44        1.261   2.487   0.000   3.748
   45        1.263   2.473   0.000   3.736
   46        1.262   2.501   0.000   3.763
   47        1.260   2.486   0.000   3.746
   48        1.210   2.588   0.000   3.798
   49        1.191   2.545   0.000   3.736
   50        1.260   2.499   0.000   3.760
   51        1.260   2.489   0.000   3.749
   52        1.265   2.472   0.000   3.737
   53        1.264   2.475   0.000   3.740
   54        1.260   2.482   0.000   3.742
   55        1.267   2.484   0.000   3.752
   56        1.209   2.597   0.000   3.806
   57        1.354   0.626  10.015  11.995
   58        1.024   1.276   0.000   2.300
   59        1.625   3.419   0.000   5.044
--------------------------------------------------
tot         63.485 123.171  10.015 196.671



 magnetization (x)

# of ion       s       p       d       tot
------------------------------------------
    1        0.000   0.000   0.000   0.000
    2       -0.000  -0.001   0.000  -0.001
    3        0.000   0.001   0.000   0.001
    4        0.000   0.000   0.000   0.000
    5       -0.000  -0.001   0.000  -0.001
    6        0.000   0.000   0.000   0.000
    7        0.000   0.000   0.000   0.000
    8        0.000   0.000   0.000   0.000
    9        0.000   0.000   0.000   0.000
   10        0.000   0.000   0.000   0.000
   11       -0.000  -0.000   0.000  -0.000
   12       -0.000  -0.000   0.000  -0.000
   13        0.000   0.000   0.000   0.000
   14        0.000   0.001   0.000   0.001
   15       -0.000  -0.001   0.000  -0.001
   16       -0.000  -0.000   0.000  -0.000
   17        0.000   0.001   0.000   0.001
   18        0.000   0.000   0.000   0.000
   19       -0.000  -0.000   0.000  -0.000
   20       -0.000  -0.000   0.000  -0.000
   21       -0.000  -0.000   0.000  -0.000
   22        0.000   0.000   0.000   0.000
   23        0.000   0.000   0.000   0.000
   24       -0.000  -0.000   0.000  -0.000
   25       -0.000  -0.000   0.000  -0.000
   26        0.000  -0.000   0.000  -0.000
   27       -0.000   0.000   0.000   0.000
   28        0.000   0.000   0.000   0.000
   29        0.000   0.000   0.000   0.000
   30        0.000   0.000   0.000   0.000
   31        0.000   0.000   0.000   0.000
   32       -0.000   0.000   0.000   0.000
   33       -0.000  -0.000   0.000  -0.000
   34        0.000   0.000   0.000   0.000
   35        0.000  -0.000   0.000  -0.000
   36       -0.000   0.000   0.000   0.000
   37        0.000   0.000   0.000   0.000
   38       -0.000  -0.000   0.000  -0.000
   39        0.000   0.000   0.000   0.000
   40        0.000   0.000   0.000   0.000
   41       -0.000  -0.000   0.000  -0.000
   42       -0.000  -0.000   0.000  -0.000
   43       -0.000  -0.000   0.000  -0.000
   44       -0.000  -0.000   0.000  -0.000
   45        0.000  -0.000   0.000  -0.000
   46       -0.000  -0.000   0.000  -0.000
   47       -0.000  -0.000   0.000  -0.000
   48        0.000   0.000   0.000   0.000
   49        0.000  -0.000   0.000  -0.000
   50       -0.000   0.000   0.000   0.000
   51        0.000   0.000   0.000   0.000
   52        0.000   0.000   0.000   0.000
   53       -0.000  -0.000   0.000  -0.000
   54       -0.000  -0.000   0.000  -0.000
   55       -0.000  -0.000   0.000  -0.000
   56       -0.000  -0.001   0.000  -0.001
   57       -0.000  -0.000  -0.000  -0.000
   58        0.000   0.000   0.000   0.000
   59       -0.000  -0.000   0.000  -0.000
--------------------------------------------------
tot          0.000   0.000  -0.000   0.000

 BZINTS: Fermi energy: -2.924731;280.000000 electrons
         Band energy:***********;  BLOECHL correction:  0.000000

 total amount of memory used by VASP MPI-rank0   107964. kBytes
=======================================================================

   base      :      30000. kBytes
   nonl-proj :      22847. kBytes
   fftplans  :       4937. kBytes
   grid      :      15075. kBytes
   one-center:        155. kBytes
   wavefun   :      34950. kBytes

  
  
 General timing and accounting informations for this job:
 ========================================================
  
                  Total CPU time used (sec):      371.206
                            User time (sec):      369.932
                          System time (sec):        1.274
                         Elapsed time (sec):      372.394
  
                   Maximum memory used (kb):      187672.
                   Average memory used (kb):           0.
  
                          Minor page faults:        86775
                          Major page faults:            0
                 Voluntary context switches:         1190
