       N       E                     dE             d eps       ncg     rms          rms(c)
DAV:   1     0.315893628147E+04    0.31589E+04   -0.12821E+05  4192   0.134E+03
DAV:   2     0.985312805472E+01   -0.31491E+04   -0.30581E+04  4408   0.384E+02
DAV:   3    -0.393497034372E+03   -0.40335E+03   -0.39961E+03  4064   0.158E+02
DAV:   4    -0.406706641280E+03   -0.13210E+02   -0.12848E+02  4184   0.382E+01
DAV:   5    -0.407217700753E+03   -0.51106E+00   -0.50644E+00  4376   0.585E+00    0.716E+01
DAV:   6    -0.323954164381E+03    0.83264E+02   -0.80414E+01  4944   0.467E+01    0.499E+01
DAV:   7    -0.284795866413E+03    0.39158E+02   -0.16139E+02  4200   0.409E+01    0.254E+01
DAV:   8    -0.284207055121E+03    0.58881E+00   -0.17992E+01  4408   0.161E+01    0.172E+01
DAV:   9    -0.283897890300E+03    0.30916E+00   -0.66628E+00  5344   0.169E+01    0.522E+00
DAV:  10    -0.283733042959E+03    0.16485E+00   -0.35161E+00  5576   0.132E+01    0.245E+00
DAV:  11    -0.283641550465E+03    0.91492E-01   -0.63482E-01  3960   0.307E+00    0.141E+00
DAV:  12    -0.283624436851E+03    0.17114E-01   -0.16332E-01  4824   0.170E+00    0.556E-01
DAV:  13    -0.283623595763E+03    0.84109E-03   -0.22176E-02  3976   0.508E-01    0.363E-01
DAV:  14    -0.283623422306E+03    0.17346E-03   -0.35032E-03  4744   0.212E-01    0.252E-01
DAV:  15    -0.283623314575E+03    0.10773E-03   -0.15448E-03  5064   0.263E-01    0.101E-01
DAV:  16    -0.283623350579E+03   -0.36003E-04   -0.38920E-04  3232   0.823E-02
   1 F= -.28886149E+03 E0= -.28886149E+03  d E =0.000000E+00  mag=     0.0000
