 vasp.5.4.4.18Apr17-6-g9f103f2a35 (build Nov  8 2022 18:58:45) complex           
 executed on             LinuxGNU date 2023.04.13  15:54:02
 running on   48 total cores
 distrk:  each k-point on   48 cores,    1 groups
 distr:  one band on NCORES_PER_BAND=  12 cores,    4 groups


--------------------------------------------------------------------------------------------------------


 INCAR:
 POTCAR:    PAW_PBE C 08Apr2002                   
 POTCAR:    PAW_PBE N 08Apr2002                   
 POTCAR:    PAW_PBE Ge_d 03Jul2007                
 POTCAR:    PAW_PBE C 08Apr2002                   
 POTCAR:    PAW_PBE O 08Apr2002                   
 POTCAR:    PAW_PBE C 08Apr2002                   
   SHA256 =  253f7b50bb8d59471dbedb8285d89021f4a42ed1a2c5d38a03a736e69125dd95 C/
   COPYR  = (c) Copyright 08Apr2002 Georg Kresse                                
   COPYR  = This file is part of the software VASP. Any use, copying, and all ot
   COPYR  = If you do not have a valid VASP license, you may not use, copy or di
   VRHFIN =C: s2p2                                                              
   LEXCH  = PE                                                                  
   EATOM  =   147.1560 eV,   10.8157 Ry                                         
                                                                                
   TITEL  = PAW_PBE C 08Apr2002                                                 
   LULTRA =        F    use ultrasoft PP ?                                      
   IUNSCR =        1    unscreen: 0-lin 1-nonlin 2-no                           
   RPACOR =    1.200    partial core radius                                     
   POMASS =   12.011; ZVAL   =    4.000    mass and valenz                      
   RCORE  =    1.500    outmost cutoff radius                                   
   RWIGS  =    1.630; RWIGS  =    0.863    wigner-seitz radius (au A)           
   ENMAX  =  400.000; ENMIN  =  300.000 eV                                      
   ICORE  =        2    local potential                                         
   LCOR   =        T    correct aug charges                                     
   LPAW   =        T    paw PP                                                  
   EAUG   =  644.873                                                            
   DEXC   =    0.000                                                            
   RMAX   =    1.529    core radius for proj-oper                               
   RAUG   =    1.300    factor for augmentation sphere                          
   RDEP   =    1.501    radius for radial grids                                 
   RDEPT  =    1.300    core radius for aug-charge                              
                                                                                
   Atomic configuration                                                         
    4 entries                                                                   
     n  l   j            E        occ.                                          
     1  0  0.50      -273.3789   2.0000                                         
     2  0  0.50       -13.7508   2.0000                                         
     2  1  0.50        -5.2854   2.0000                                         
     3  2  1.50        -5.4423   0.0000                                         
   Description                                                                  
     l       E           TYP  RCUT    TYP  RCUT                                 
     0    -13.7508458     23  1.200                                             
     0     -8.2022199     23  1.200                                             
     1     -5.2854383     23  1.500                                             
     1     34.0145650     23  1.500                                             
     2     -5.4423304      7  1.500                                             
  local pseudopotential read in
  partial core-charges read in
  partial kinetic energy density read in
  atomic valenz-charges read in
  non local Contribution for L=           0  read in
    real space projection operators read in
  non local Contribution for L=           0  read in
    real space projection operators read in
  non local Contribution for L=           1  read in
    real space projection operators read in
  non local Contribution for L=           1  read in
    real space projection operators read in
    PAW grid and wavefunctions read in

   number of l-projection  operators is LMAX  =           4
   number of lm-projection operators is LMMAX =           8

 POTCAR:    PAW_PBE N 08Apr2002                   
   SHA256 =  e053789ff3a61a86a1b75d8a110fcc91f86041011e7b0817c7c99e4e8a6349d7 N/
   COPYR  = (c) Copyright 08Apr2002 Georg Kresse                                
   COPYR  = This file is part of the software VASP. Any use, copying, and all ot
   COPYR  = If you do not have a valid VASP license, you may not use, copy or di
   VRHFIN =N: s2p3                                                              
   LEXCH  = PE                                                                  
   EATOM  =   264.5486 eV,   19.4438 Ry                                         
                                                                                
   TITEL  = PAW_PBE N 08Apr2002                                                 
   LULTRA =        F    use ultrasoft PP ?                                      
   IUNSCR =        1    unscreen: 0-lin 1-nonlin 2-no                           
   RPACOR =    1.200    partial core radius                                     
   POMASS =   14.001; ZVAL   =    5.000    mass and valenz                      
   RCORE  =    1.500    outmost cutoff radius                                   
   RWIGS  =    1.400; RWIGS  =    0.741    wigner-seitz radius (au A)           
   ENMAX  =  400.000; ENMIN  =  300.000 eV                                      
   ICORE  =        2    local potential                                         
   LCOR   =        T    correct aug charges                                     
   LPAW   =        T    paw PP                                                  
   EAUG   =  627.112                                                            
   DEXC   =    0.000                                                            
   RMAX   =    1.529    core radius for proj-oper                               
   RAUG   =    1.300    factor for augmentation sphere                          
   RDEP   =    1.514    radius for radial grids                                 
   RDEPT  =    1.338    core radius for aug-charge                              
                                                                                
   Atomic configuration                                                         
    4 entries                                                                   
     n  l   j            E        occ.                                          
     1  0  0.50      -384.7179   2.0000                                         
     2  0  0.50       -18.5828   2.0000                                         
     2  1  0.50        -7.0898   3.0000                                         
     3  2  1.50        -6.8029   0.0000                                         
   Description                                                                  
     l       E           TYP  RCUT    TYP  RCUT                                 
     0    -18.5828119     23  1.200                                             
     0    -13.5018863     23  1.200                                             
     1     -7.0897853     23  1.500                                             
     1      9.5240782     23  1.500                                             
     2     -6.8029130      7  1.500                                             
  local pseudopotential read in
  partial core-charges read in
  partial kinetic energy density read in
  atomic valenz-charges read in
  non local Contribution for L=           0  read in
    real space projection operators read in
  non local Contribution for L=           0  read in
    real space projection operators read in
  non local Contribution for L=           1  read in
    real space projection operators read in
  non local Contribution for L=           1  read in
    real space projection operators read in
    PAW grid and wavefunctions read in

   number of l-projection  operators is LMAX  =           4
   number of lm-projection operators is LMMAX =           8

 POTCAR:    PAW_PBE Ge_d 03Jul2007                
   SHA256 =  944b26c40d2d7c4f4eb1ff3a2e8dbfdd7129146276cd341854bfd5c0e57780ed Ge
   COPYR  = (c) Copyright 03Jul2007 Georg Kresse                                
   COPYR  = This file is part of the software VASP. Any use, copying, and all ot
   COPYR  = If you do not have a valid VASP license, you may not use, copy or di
   VRHFIN =Ge: 3d4s4p                                                           
   LEXCH  = PE                                                                  
   EATOM  =  2596.2402 eV,  190.8183 Ry                                         
                                                                                
   TITEL  = PAW_PBE Ge_d 03Jul2007                                              
   LULTRA =        F    use ultrasoft PP ?                                      
   IUNSCR =        1    unscreen: 0-lin 1-nonlin 2-no                           
   RPACOR =    2.000    partial core radius                                     
   POMASS =   72.610; ZVAL   =   14.000    mass and valenz                      
   RCORE  =    2.300    outmost cutoff radius                                   
   RWIGS  =    2.300; RWIGS  =    1.217    wigner-seitz radius (au A)           
   ENMAX  =  310.294; ENMIN  =  232.720 eV                                      
   ICORE  =        3    local potential                                         
   LCOR   =        T    correct aug charges                                     
   LPAW   =        T    paw PP                                                  
   EAUG   =  531.356                                                            
   DEXC   =    0.000                                                            
   RMAX   =    2.342    core radius for proj-oper                               
   RAUG   =    1.300    factor for augmentation sphere                          
   RDEP   =    2.318    radius for radial grids                                 
   RDEPT  =    1.783    core radius for aug-charge                              
                                                                                
   Atomic configuration                                                         
    9 entries                                                                   
     n  l   j            E        occ.                                          
     1  0  0.50    -10959.8463   2.0000                                         
     2  0  0.50     -1371.6056   2.0000                                         
     2  1  1.50     -1198.4791   6.0000                                         
     3  0  0.50      -168.4733   2.0000                                         
     3  1  1.50      -115.6019   6.0000                                         
     3  2  2.50       -29.3106  10.0000                                         
     4  0  0.50       -11.7309   2.0000                                         
     4  1  0.50        -3.8952   2.0000                                         
     4  3  2.50        -4.0817   0.0000                                         
   Description                                                                  
     l       E           TYP  RCUT    TYP  RCUT                                 
     2    -29.3105938     23  2.200                                             
     2    -13.6058260     23  2.200                                             
     0    -11.7309493     23  2.300                                             
     0     -7.4578696     23  2.300                                             
     1     -3.8952261     23  2.300                                             
     1      6.1178114     23  2.300                                             
     3     -1.3605826     23  2.300                                             
  local pseudopotential read in
  partial core-charges read in
  partial kinetic energy density read in
  atomic valenz-charges read in
  non local Contribution for L=           2  read in
    real space projection operators read in
  non local Contribution for L=           2  read in
    real space projection operators read in
  non local Contribution for L=           0  read in
    real space projection operators read in
  non local Contribution for L=           0  read in
    real space projection operators read in
  non local Contribution for L=           1  read in
    real space projection operators read in
  non local Contribution for L=           1  read in
    real space projection operators read in
    PAW grid and wavefunctions read in

   number of l-projection  operators is LMAX  =           6
   number of lm-projection operators is LMMAX =          18

 POTCAR:    PAW_PBE C 08Apr2002                   
   SHA256 =  253f7b50bb8d59471dbedb8285d89021f4a42ed1a2c5d38a03a736e69125dd95 C/
   COPYR  = (c) Copyright 08Apr2002 Georg Kresse                                
   COPYR  = This file is part of the software VASP. Any use, copying, and all ot
   COPYR  = If you do not have a valid VASP license, you may not use, copy or di
   VRHFIN =C: s2p2                                                              
   LEXCH  = PE                                                                  
   EATOM  =   147.1560 eV,   10.8157 Ry                                         
                                                                                
   TITEL  = PAW_PBE C 08Apr2002                                                 
   LULTRA =        F    use ultrasoft PP ?                                      
   IUNSCR =        1    unscreen: 0-lin 1-nonlin 2-no                           
   RPACOR =    1.200    partial core radius                                     
   POMASS =   12.011; ZVAL   =    4.000    mass and valenz                      
   RCORE  =    1.500    outmost cutoff radius                                   
   RWIGS  =    1.630; RWIGS  =    0.863    wigner-seitz radius (au A)           
   ENMAX  =  400.000; ENMIN  =  300.000 eV                                      
   ICORE  =        2    local potential                                         
   LCOR   =        T    correct aug charges                                     
   LPAW   =        T    paw PP                                                  
   EAUG   =  644.873                                                            
   DEXC   =    0.000                                                            
   RMAX   =    1.529    core radius for proj-oper                               
   RAUG   =    1.300    factor for augmentation sphere                          
   RDEP   =    1.501    radius for radial grids                                 
   RDEPT  =    1.300    core radius for aug-charge                              
                                                                                
   Atomic configuration                                                         
    4 entries                                                                   
     n  l   j            E        occ.                                          
     1  0  0.50      -273.3789   2.0000                                         
     2  0  0.50       -13.7508   2.0000                                         
     2  1  0.50        -5.2854   2.0000                                         
     3  2  1.50        -5.4423   0.0000                                         
   Description                                                                  
     l       E           TYP  RCUT    TYP  RCUT                                 
     0    -13.7508458     23  1.200                                             
     0     -8.2022199     23  1.200                                             
     1     -5.2854383     23  1.500                                             
     1     34.0145650     23  1.500                                             
     2     -5.4423304      7  1.500                                             
  local pseudopotential read in
  partial core-charges read in
  partial kinetic energy density read in
  atomic valenz-charges read in
  non local Contribution for L=           0  read in
    real space projection operators read in
  non local Contribution for L=           0  read in
    real space projection operators read in
  non local Contribution for L=           1  read in
    real space projection operators read in
  non local Contribution for L=           1  read in
    real space projection operators read in
    PAW grid and wavefunctions read in

   number of l-projection  operators is LMAX  =           4
   number of lm-projection operators is LMMAX =           8

 POTCAR:    PAW_PBE O 08Apr2002                   
   SHA256 =  818f92134a0a090dccd8ba1447fa70422a3b330e708bb4f08108d8ae51209ddf O/
   COPYR  = (c) Copyright 08Apr2002 Georg Kresse                                
   COPYR  = This file is part of the software VASP. Any use, copying, and all ot
   COPYR  = If you do not have a valid VASP license, you may not use, copy or di
   VRHFIN =O: s2p4                                                              
   LEXCH  = PE                                                                  
   EATOM  =   432.3788 eV,   31.7789 Ry                                         
                                                                                
   TITEL  = PAW_PBE O 08Apr2002                                                 
   LULTRA =        F    use ultrasoft PP ?                                      
   IUNSCR =        1    unscreen: 0-lin 1-nonlin 2-no                           
   RPACOR =    1.200    partial core radius                                     
   POMASS =   16.000; ZVAL   =    6.000    mass and valenz                      
   RCORE  =    1.520    outmost cutoff radius                                   
   RWIGS  =    1.550; RWIGS  =    0.820    wigner-seitz radius (au A)           
   ENMAX  =  400.000; ENMIN  =  300.000 eV                                      
   ICORE  =        2    local potential                                         
   LCOR   =        T    correct aug charges                                     
   LPAW   =        T    paw PP                                                  
   EAUG   =  605.392                                                            
   DEXC   =    0.000                                                            
   RMAX   =    1.553    core radius for proj-oper                               
   RAUG   =    1.300    factor for augmentation sphere                          
   RDEP   =    1.550    radius for radial grids                                 
   RDEPT  =    1.329    core radius for aug-charge                              
                                                                                
   Atomic configuration                                                         
    4 entries                                                                   
     n  l   j            E        occ.                                          
     1  0  0.50      -514.6923   2.0000                                         
     2  0  0.50       -23.9615   2.0000                                         
     2  1  0.50        -9.0305   4.0000                                         
     3  2  1.50        -9.5241   0.0000                                         
   Description                                                                  
     l       E           TYP  RCUT    TYP  RCUT                                 
     0    -23.9615318     23  1.200                                             
     0     -9.5240782     23  1.200                                             
     1     -9.0304911     23  1.520                                             
     1      8.1634956     23  1.520                                             
     2     -9.5240782      7  1.500                                             
  local pseudopotential read in
  partial core-charges read in
  partial kinetic energy density read in
  kinetic energy density of atom read in
  atomic valenz-charges read in
  non local Contribution for L=           0  read in
    real space projection operators read in
  non local Contribution for L=           0  read in
    real space projection operators read in
  non local Contribution for L=           1  read in
    real space projection operators read in
  non local Contribution for L=           1  read in
    real space projection operators read in
    PAW grid and wavefunctions read in

   number of l-projection  operators is LMAX  =           4
   number of lm-projection operators is LMMAX =           8


 ----------------------------------------------------------------------------- 
|                                                                             |
|  ADVICE TO THIS USER RUNNING 'VASP/VAMP'   (HEAR YOUR MASTER'S VOICE ...):  |
|                                                                             |
|      You have a (more or less) 'large supercell' and for larger cells       |
|      it might be more efficient to use real space projection opertators     |
|      So try LREAL= Auto  in the INCAR   file.                               |
|      Mind:          For very  accurate calculation you might also keep the  |
|      reciprocal projection scheme          (i.e. LREAL=.FALSE.)             |
|                                                                             |
 ----------------------------------------------------------------------------- 

  PAW_PBE C 08Apr2002                   :
 energy of atom  1       EATOM= -147.1560
 kinetic energy error for atom=    0.0132 (will be added to EATOM!!)
  PAW_PBE N 08Apr2002                   :
 energy of atom  2       EATOM= -264.5486
 kinetic energy error for atom=    0.0298 (will be added to EATOM!!)
  PAW_PBE Ge_d 03Jul2007                :
 energy of atom  3       EATOM=-2596.2402
 kinetic energy error for atom=    0.0090 (will be added to EATOM!!)
  PAW_PBE C 08Apr2002                   :
 energy of atom  4       EATOM= -147.1560
 kinetic energy error for atom=    0.0132 (will be added to EATOM!!)
  PAW_PBE O 08Apr2002                   :
 energy of atom  5       EATOM= -432.3788
 kinetic energy error for atom=    0.0458 (will be added to EATOM!!)


 POSCAR: POSCAR-c3n4                             
  positions in cartesian coordinates
  No initial velocities read in
 exchange correlation table for  LEXCH =        8
   RHO(1)=    0.500       N(1)  =     2000
   RHO(2)=  100.500       N(2)  =     4000



--------------------------------------------------------------------------------------------------------


 ion  position               nearest neighbor table
   1  0.106  0.214  0.436-  26 1.10  46 1.10  25 1.16   6 1.85  16 1.85   3 2.00   2 2.02
   2  0.288  0.399  0.443-  29 1.08  35 1.14  25 1.17   5 1.88  10 1.91   1 2.02   3 2.05
   3  0.104  0.392  0.437-  44 1.08  39 1.13  25 1.17  17 1.87  12 1.90   1 2.00   2 2.05
   4  0.447  0.064  0.516-  30 1.08  27 1.10  48 1.16  13 1.85   8 1.86  18 1.98  11 1.99
   5  0.453  0.401  0.422-  28 1.09  29 1.10  56 1.17  15 1.85   2 1.88  10 2.00  24 2.02
   6  0.112  0.053  0.459-  26 1.08  31 1.09  32 1.15   9 1.84   1 1.85  16 1.96  23 2.00
   7  0.096  0.712  0.494-  54 1.09  34 1.11  33 1.15  12 1.84  22 1.87   9 1.98   8 2.03
   8  0.284  0.890  0.511-  27 1.10  37 1.11  33 1.16   4 1.86  11 1.86   9 2.02   7 2.03
   9  0.109  0.895  0.508-  31 1.09  52 1.10  33 1.18   6 1.84  23 1.85   7 1.98   8 2.02
  10  0.448  0.548  0.512-  38 1.09  56 1.11  35 1.11  19 1.84   2 1.91  24 1.94   5 2.00  57 2.24

  11  0.445  0.885  0.499-  37 1.10  36 1.10  48 1.13  21 1.86   8 1.86  18 1.99   4 1.99
  12  0.087  0.542  0.491-  34 1.08  40 1.10  39 1.11   7 1.84   3 1.90  22 1.96  17 1.98  57 2.24

  13  0.616  0.223  0.483-  42 1.11  30 1.11  41 1.15   4 1.85  18 1.86  15 2.00  14 2.03
  14  0.780  0.390  0.410-  45 1.11  51 1.12  41 1.15  17 1.84  22 1.84  15 2.00  13 2.03
  15  0.610  0.394  0.445-  28 1.10  55 1.10  41 1.19  24 1.85   5 1.85  13 2.00  14 2.00
  16  0.940  0.052  0.471-  46 1.08  43 1.09  32 1.15  20 1.84   1 1.85   6 1.96  23 1.99
  17  0.941  0.387  0.404-  45 1.08  44 1.10  40 1.17  14 1.84   3 1.87  12 1.98  22 2.01
  18  0.623  0.066  0.522-  42 1.09  47 1.10  48 1.16  13 1.86  21 1.86   4 1.98  11 1.99
  19  0.613  0.711  0.541-  50 1.09  38 1.12  49 1.15  10 1.84  24 1.86  20 2.00  21 2.05
  20  0.790  0.897  0.533-  43 1.09  53 1.10  49 1.19  16 1.84  23 1.85  19 2.00  21 2.02
  21  0.609  0.892  0.531-  47 1.10  36 1.10  49 1.18  18 1.86  11 1.86  20 2.02  19 2.05
  22  0.938  0.563  0.430-  51 1.07  54 1.11  40 1.16  14 1.84   7 1.87  12 1.96  17 2.01
  23  0.954  0.902  0.545-  52 1.10  53 1.10  32 1.15  20 1.85   9 1.85  16 1.99   6 2.00
  24  0.621  0.555  0.500-  55 1.08  50 1.09  56 1.16  15 1.85  19 1.86  10 1.94   5 2.02
  25  0.167  0.335  0.435-   1 1.16   3 1.17   2 1.17
  26  0.165  0.161  0.431-   6 1.08   1 1.10
  27  0.336  0.002  0.532-   8 1.10   4 1.10
  28  0.512  0.352  0.402-   5 1.09  15 1.10
  29  0.345  0.361  0.400-   2 1.08   5 1.10
  30  0.506  0.177  0.503-   4 1.08  13 1.11
  31  0.159  0.988  0.457-   9 1.09   6 1.09
  32  0.002  0.002  0.493-  16 1.15  23 1.15   6 1.15
  33  0.165  0.831  0.510-   7 1.15   8 1.16   9 1.18
  34  0.134  0.645  0.528-  12 1.08   7 1.11  57 2.16
  35  0.334  0.491  0.501-  10 1.11   2 1.14  57 1.69
  36  0.503  0.831  0.500-  11 1.10  21 1.10
  37  0.333  0.829  0.489-  11 1.10   8 1.11
  38  0.499  0.648  0.555-  10 1.09  19 1.12  57 2.16
  39  0.142  0.484  0.495-  12 1.11   3 1.13  57 1.70
  40  0.988  0.496  0.446-  12 1.10  22 1.16  17 1.17
  41  0.667  0.330  0.439-  13 1.15  14 1.15  15 1.19
  42  0.680  0.178  0.505-  18 1.09  13 1.11
  43  0.827  0.986  0.478-  20 1.09  16 1.09
  44  0.011  0.348  0.389-   3 1.08  17 1.10
  45  0.830  0.330  0.389-  17 1.08  14 1.11
  46  0.993  0.161  0.445-  16 1.08   1 1.10
  47  0.669  0.005  0.549-  21 1.10  18 1.10
  48  0.505  0.004  0.508-  11 1.13  18 1.16   4 1.16
  49  0.668  0.832  0.544-  19 1.15  21 1.18  20 1.19
  50  0.675  0.666  0.522-  19 1.09  24 1.09
  51  0.832  0.507  0.406-  22 1.07  14 1.12
  52  0.016  0.853  0.559-  23 1.10   9 1.10
  53  0.849  0.860  0.576-  20 1.10  23 1.10
  54  0.004  0.677  0.444-   7 1.09  22 1.11
  55  0.668  0.491  0.494-  24 1.08  15 1.10
  56  0.506  0.502  0.477-  10 1.11  24 1.16   5 1.17
  57  0.287  0.593  0.568-  35 1.69  39 1.70  34 2.16  38 2.16  10 2.24  12 2.24
  58  0.287  0.593  0.966-  59 0.95
  59  0.232  0.530  0.023-  58 0.95


IMPORTANT INFORMATION: All symmetrisations will be switched off!
NOSYMM: (Re-)initialisation of all symmetry stuff for point group C_1.



 KPOINTS: K-Points                                

Automatic generation of k-mesh.
Space group operators:
 irot       det(A)        alpha          n_x          n_y          n_z        tau_x        tau_y        tau_z
    1     1.000000     0.000001     1.000000     0.000000     0.000000     0.000000     0.000000     0.000000
 
 Subroutine IBZKPT returns following result:
 ===========================================
 
 Found      5 irreducible k-points:
 
 Following reciprocal coordinates:
            Coordinates               Weight
  0.000000  0.000000  0.000000      1.000000
  0.333333  0.000000  0.000000      2.000000
  0.000000  0.333333  0.000000      2.000000
  0.333333  0.333333  0.000000      2.000000
 -0.333333  0.333333  0.000000      2.000000
 
 Following cartesian coordinates:
            Coordinates               Weight
  0.000000  0.000000  0.000000      1.000000
  0.024277  0.014368  0.000000      2.000000
  0.000396  0.028736  0.000000      2.000000
  0.024673  0.043104  0.000000      2.000000
 -0.023881  0.014368  0.000000      2.000000
 
 TETIRR: Found     24 inequivalent tetrahedra from       54


--------------------------------------------------------------------------------------------------------




 Dimension of arrays:
   k-points           NKPTS =      5   k-points in BZ     NKDIM =      5   number of bands    NBANDS=    172
   number of dos      NEDOS =   4000   number of ions     NIONS =     59
   non local maximal  LDIM  =      6   non local SUM 2l+1 LMDIM =     18
   total plane-waves  NPLWV = 230400
   max r-space proj   IRMAX =      1   max aug-charges    IRDMAX=   6033
   dimension x,y,z NGX =    60 NGY =   60 NGZ =   64
   dimension x,y,z NGXF=   120 NGYF=  120 NGZF=  128
   support grid    NGXF=   120 NGYF=  120 NGZF=  128
   ions per type =              24  32   1   1   1
   NGX,Y,Z   is equivalent  to a cutoff of   8.79,  8.95,  8.65 a.u.
   NGXF,Y,Z  is equivalent  to a cutoff of  17.57, 17.90, 17.30 a.u.

 SYSTEM =  unknown system                          
 POSCAR =  POSCAR-c3n4                             

 Startparameter for this run:
   NWRITE =      2    write-flag & timer
   PREC   = normal    normal or accurate (medium, high low for compatibility)
   ISTART =      0    job   : 0-new  1-cont  2-samecut
   ICHARG =      2    charge: 1-file 2-atom 10-const
   ISPIN  =      2    spin polarized calculation?
   LNONCOLLINEAR =      F non collinear calculations
   LSORBIT =      F    spin-orbit coupling
   INIWAV =      1    electr: 0-lowe 1-rand  2-diag
   LASPH  =      F    aspherical Exc in radial PAW
   METAGGA=      F    non-selfconsistent MetaGGA calc.

 Electronic Relaxation 1
   ENCUT  =  440.0 eV  32.34 Ry    5.69 a.u.  19.42 19.06 21.04*2*pi/ulx,y,z
   ENINI  =  440.0     initial cutoff
   ENAUG  =  644.9 eV  augmentation charge cutoff
   NELM   =    100;   NELMIN=  2; NELMDL= -5     # of ELM steps 
   EDIFF  = 0.1E-03   stopping-criterion for ELM
   LREAL  =      F    real-space projection
   NLSPLINE    = F    spline interpolate recip. space projectors
   LCOMPAT=      F    compatible to vasp.4.4
   GGA_COMPAT  = T    GGA compatible to vasp.4.4-vasp.4.6
   LMAXPAW     = -100 max onsite density
   LMAXMIX     =    2 max onsite mixed and CHGCAR
   VOSKOWN=      0    Vosko Wilk Nusair interpolation
   ROPT   =    0.00000   0.00000   0.00000   0.00000
   ROPT   =    0.00000
 Ionic relaxation
   EDIFFG = -.1E-01   stopping-criterion for IOM
   NSW    =      0    number of steps for IOM
   NBLOCK =      1;   KBLOCK =      1    inner block; outer block 
   IBRION =     -1    ionic relax: 0-MD 1-quasi-New 2-CG
   NFREE  =      0    steps in history (QN), initial steepest desc. (CG)
   ISIF   =      2    stress and relaxation
   IWAVPR =     10    prediction:  0-non 1-charg 2-wave 3-comb
   ISYM   =      0    0-nonsym 1-usesym 2-fastsym
   LCORR  =      T    Harris-Foulkes like correction to forces

   POTIM  = 0.5000    time-step for ionic-motion
   TEIN   =    0.0    initial temperature
   TEBEG  =    0.0;   TEEND  =   0.0 temperature during run
   SMASS  =  -3.00    Nose mass-parameter (am)
   estimated Nose-frequenzy (Omega)   =  0.10E-29 period in steps =****** mass=  -0.295E-26a.u.
   SCALEE = 1.0000    scale energy and forces
   NPACO  =    256;   APACO  = 16.0  distance and # of slots for P.C.
   PSTRESS=    0.0 pullay stress

  Mass of Ions in am
   POMASS =  12.01 14.00 72.61 12.01 16.00
  Ionic Valenz
   ZVAL   =   4.00  5.00 14.00  4.00  6.00
  Atomic Wigner-Seitz radii
   RWIGS  =  -1.00 -1.00 -1.00 -1.00 -1.00
  virtual crystal weights 
   VCA    =   1.00  1.00  1.00  1.00  1.00
   NELECT =     280.0000    total number of electrons
   NUPDOWN=      -1.0000    fix difference up-down

 DOS related values:
   EMIN   = -14.00;   EMAX   =  6.00  energy-range for DOS
   EFERMI =   0.00
   ISMEAR =    -5;   SIGMA  =   0.20  broadening in eV -4-tet -1-fermi 0-gaus

 Electronic relaxation 2 (details)
   IALGO  =     38    algorithm
   LDIAG  =      T    sub-space diagonalisation (order eigenvalues)
   LSUBROT=      F    optimize rotation matrix (better conditioning)
   TURBO    =      0    0=normal 1=particle mesh
   IRESTART =      0    0=no restart 2=restart with 2 vectors
   NREBOOT  =      0    no. of reboots
   NMIN     =      0    reboot dimension
   EREF     =   0.00    reference energy to select bands
   IMIX   =      4    mixing-type and parameters
     AMIX     =   0.25;   BMIX     =  0.00
     AMIX_MAG =   1.00;   BMIX_MAG =  0.00
     AMIN     =   0.10
     WC   =   100.;   INIMIX=   1;  MIXPRE=   1;  MAXMIX= -45

 Intra band minimization:
   WEIMIN = 0.0000     energy-eigenvalue tresh-hold
   EBREAK =  0.15E-06  absolut break condition
   DEPER  =   0.30     relativ break condition  

   TIME   =   0.40     timestep for ELM

  volume/ion in A,a.u.               =      22.51       151.91
  Fermi-wavevector in a.u.,A,eV,Ry     =   0.974357  1.841269 12.916996  0.949372
  Thomas-Fermi vector in A             =   2.104811

 Write flags
   LWAVE        =      F    write WAVECAR
   LDOWNSAMPLE  =      F    k-point downsampling of WAVECAR
   LCHARG       =      F    write CHGCAR
   LVTOT        =      F    write LOCPOT, total local potential
   LVHAR        =      F    write LOCPOT, Hartree potential only
   LELF         =      F    write electronic localiz. function (ELF)
   LORBIT       =     11    0 simple, 1 ext, 2 COOP (PROOUT), +10 PAW based schemes


 Dipole corrections
   LMONO  =      F    monopole corrections only (constant potential shift)
   LDIPOL =      F    correct potential (dipole corrections)
   IDIPOL =      0    1-x, 2-y, 3-z, 4-all directions 
   EPSILON=  1.0000000 bulk dielectric constant

 Exchange correlation treatment:
   GGA     =    --    GGA type
   LEXCH   =     8    internal setting for exchange type
   VOSKOWN=      0    Vosko Wilk Nusair interpolation
   LHFCALC =     F    Hartree Fock is set to
   LHFONE  =     F    Hartree Fock one center treatment
   AEXX    =    0.0000 exact exchange contribution

 Linear response parameters
   LEPSILON=     F    determine dielectric tensor
   LRPA    =     F    only Hartree local field effects (RPA)
   LNABLA  =     F    use nabla operator in PAW spheres
   LVEL    =     F    velocity operator in full k-point grid
   LINTERFAST=   F  fast interpolation
   KINTER  =     0    interpolate to denser k-point grid
   CSHIFT  =0.1000    complex shift for real part using Kramers Kronig
   OMEGAMAX=  -1.0    maximum frequency
   DEG_THRESHOLD= 0.2000000E-02 threshold for treating states as degnerate
   RTIME   =   -0.100 relaxation time in fs
  (WPLASMAI=    0.000 imaginary part of plasma frequency in eV, 0.658/RTIME)
   DFIELD  = 0.0000000 0.0000000 0.0000000 field for delta impulse in time

 Orbital magnetization related:
   ORBITALMAG=     F  switch on orbital magnetization
   LCHIMAG   =     F  perturbation theory with respect to B field
   DQ        =  0.001000  dq finite difference perturbation B field
   LLRAUG    =     F  two centre corrections for induced B field



--------------------------------------------------------------------------------------------------------


 Static calculation
 charge density and potential will be updated during run
 spin polarized calculation
 Variant of blocked Davidson
 Davidson routine will perform the subspace rotation
 perform sub-space diagonalisation
    after iterative eigenvector-optimisation
 modified Broyden-mixing scheme, WC =      100.0
 initial mixing is a Kerker type mixing with AMIX =  0.2500 and BMIX =      0.0001
 Hartree-type preconditioning will be used
 using additional bands           32
 reciprocal scheme for non local part
 use partial core corrections
 calculate Harris-corrections to forces   (improved forces if not selfconsistent)
 use gradient corrections 
 use of overlap-Matrix (Vanderbilt PP)
 Fermi weights with tetrahedron method with Bloechl corrections


--------------------------------------------------------------------------------------------------------


  energy-cutoff  :      440.00
  volume of cell :     1328.09
      direct lattice vectors                 reciprocal lattice vectors
    11.351607872 -0.156407189  0.000000000     0.088817524  0.052565993 -0.000000000
    -5.675803936  9.590056615  0.000000000     0.001448552  0.105131986 -0.000000000
     0.000000000  0.000000000 12.300000000    -0.000000000 -0.000000000  0.081300813

  length of vectors
    11.352685343 11.143784644 12.300000000     0.103207248  0.105141965  0.081300813



 k-points in units of 2pi/SCALE and weight: K-Points                                
   0.00000000  0.00000000  0.00000000       0.111
   0.02427679  0.01436804  0.00000000       0.222
   0.00039594  0.02873608  0.00000000       0.222
   0.02467273  0.04310411  0.00000000       0.222
  -0.02388085  0.01436804  0.00000000       0.222

 k-points in reciprocal lattice and weights: K-Points                                
   0.00000000  0.00000000  0.00000000       0.111
   0.33333333  0.00000000  0.00000000       0.222
   0.00000000  0.33333333  0.00000000       0.222
   0.33333333  0.33333333  0.00000000       0.222
  -0.33333333  0.33333333  0.00000000       0.222

 position of ions in fractional coordinates (direct lattice) 
   0.10567936  0.21351909  0.43638452
   0.28750403  0.39866334  0.44307848
   0.10379301  0.39177313  0.43720774
   0.44732828  0.06383887  0.51561413
   0.45258916  0.40124889  0.42244582
   0.11203481  0.05273921  0.45860169
   0.09638015  0.71191070  0.49382164
   0.28433946  0.89006364  0.51112159
   0.10941441  0.89537413  0.50804572
   0.44792521  0.54827090  0.51182417
   0.44544784  0.88520183  0.49889037
   0.08690842  0.54210436  0.49059155
   0.61614813  0.22292684  0.48262487
   0.78023735  0.38968276  0.40980308
   0.61037743  0.39432339  0.44538198
   0.93951642  0.05229783  0.47062057
   0.94071854  0.38652888  0.40380040
   0.62278394  0.06558106  0.52195204
   0.61322902  0.71118454  0.54116914
   0.78984871  0.89727295  0.53280047
   0.60944297  0.89248269  0.53124739
   0.93832005  0.56283419  0.43042990
   0.95436023  0.90171878  0.54458488
   0.62130548  0.55465507  0.49978063
   0.16668926  0.33545237  0.43494871
   0.16473950  0.16097029  0.43087242
   0.33626584  0.00180669  0.53207802
   0.51175722  0.35246859  0.40230650
   0.34471728  0.36074551  0.39967324
   0.50565751  0.17673507  0.50307206
   0.15873210  0.98821904  0.45657691
   0.00214731  0.00186372  0.49276218
   0.16462634  0.83083069  0.51017993
   0.13400723  0.64526801  0.52770834
   0.33371346  0.49116238  0.50147098
   0.50288345  0.83078126  0.49964378
   0.33307237  0.82932770  0.48929409
   0.49902190  0.64803204  0.55475412
   0.14173676  0.48364631  0.49503647
   0.98839512  0.49595573  0.44590834
   0.66736443  0.33015381  0.43923807
   0.67970142  0.17802103  0.50515807
   0.82720183  0.98622484  0.47776955
   0.01097216  0.34809993  0.38872280
   0.83047981  0.33016544  0.38944898
   0.99296173  0.16101876  0.44505124
   0.66886761  0.00524437  0.54940128
   0.50484899  0.00388347  0.50822952
   0.66830364  0.83227641  0.54411956
   0.67536455  0.66551462  0.52238502
   0.83211404  0.50666912  0.40566699
   0.01584380  0.85299492  0.55859758
   0.84924332  0.85956436  0.57597004
   0.00424175  0.67726383  0.44447513
   0.66753141  0.49127771  0.49374111
   0.50565566  0.50179634  0.47708161
   0.28676550  0.59288202  0.56771515
   0.28676550  0.59288202  0.96638181
   0.23209909  0.52992702  0.02273763

 position of ions in cartesian coordinates  (Angst):
  -0.01226179  2.03113111  5.36752955
   1.00089802  3.77823629  5.44986527
  -1.04540998  3.74089253  5.37765514
   4.71555833  0.54225299  6.34205380
   2.86020457  3.77721140  5.19608364
   0.97243783  0.48824899  5.64080074
  -2.94659590  6.81218938  6.07400612
  -1.82411668  8.49128795  6.28679552
  -3.83993860  8.56957541  6.24896239
   1.97279325  5.18789026  6.29543732
   0.03231720  8.41946444  6.13635155
  -2.09032782  5.18521845  6.03427608
   5.72898292  2.04151103  5.93628592
   6.64518546  3.61504503  5.04057793
   4.69066294  3.68611625  5.47819832
  10.36818981  0.35459200  5.78863297
   8.48480587  3.55969873  4.96674487
   6.69737384  0.53151815  6.42001011
   2.92459140  6.72438660  6.65638045
   3.87330747  8.48136040  6.55344578
   1.85260083  8.46363822  6.53434286
   7.45690474  5.25085178  5.29428783
   5.71554405  8.49826537  6.69839400
   3.90470278  5.22199691  6.14730176
  -0.01177076  3.19093584  5.34986916
   0.95642244  1.51794772  5.29973080
   3.80690350 -0.03526816  6.54455966
   3.80872473  3.30015120  4.94836994
   1.86557458  3.40565362  4.91598083
   4.73691212  1.61581090  6.18778637
  -3.80707302  9.45224971  5.61589596
   0.01379733  0.01753732  6.06097478
  -2.84685837  7.94196458  6.27521310
  -2.14121718  6.16719703  6.49081260
   1.00044302  4.65807981  6.16809310
   0.99318421  7.88858468  6.14561849
  -0.92619450  7.90120467  6.01831727
   1.98659813  6.13661335  6.82347563
  -1.13614151  4.61602681  6.08894854
   8.40492636  4.60165145  5.48467260
   5.70177103  3.06181316  5.40262821
   6.70529157  1.60092156  6.21344431
   3.79245202  9.32857172  5.87656549
  -1.85119530  3.33658187  4.78129050
   7.55332682  3.03641225  4.79022240
  10.35780123  1.38887266  5.47413025
   7.56295689 -0.05432193  6.75763575
   5.70880598 -0.04171931  6.25122315
   2.86248320  7.87705038  6.69267057
   3.88914301  6.27669103  6.42533578
   6.57007765  4.72883695  4.98970403
  -4.66157936  8.17779151  6.87075020
   4.76155837  8.11044316  7.08443154
  -3.79586607  6.49433506  5.46704416
   4.78915879  4.60697435  6.07301567
   2.89190710  4.73316717  5.86810382
  -0.10983262  5.64092000  6.98289631
  -0.10983262  5.64092000 11.88649631
  -0.37306406  5.04572817  0.27967281



--------------------------------------------------------------------------------------------------------


 k-point  1 :   0.0000 0.0000 0.0000  plane waves:   27841
 k-point  2 :   0.3333 0.0000 0.0000  plane waves:   27805
 k-point  3 :   0.0000 0.3333 0.0000  plane waves:   27830
 k-point  4 :   0.3333 0.3333 0.0000  plane waves:   27844
 k-point  5 :  -0.3333 0.3333 0.0000  plane waves:   27802

 maximum and minimum number of plane-waves per node :      2335     2301

 maximum number of plane-waves:     27844
 maximum index in each direction: 
   IXMAX=   19   IYMAX=   19   IZMAX=   21
   IXMIN=  -19   IYMIN=  -19   IZMIN=  -21


 parallel 3D FFT for wavefunctions:
    minimum data exchange during FFTs selected (reduces bandwidth)
 parallel 3D FFT for charge:
    minimum data exchange during FFTs selected (reduces bandwidth)


 total amount of memory used by VASP MPI-rank0    65629. kBytes
=======================================================================

   base      :      30000. kBytes
   nonl-proj :      10578. kBytes
   fftplans  :       2121. kBytes
   grid      :       6401. kBytes
   one-center:        155. kBytes
   wavefun   :      16374. kBytes

     INWAV:  cpu time    0.0000: real time    0.0000
 Broyden mixing: mesh for mixing (old mesh)
   NGX = 39   NGY = 39   NGZ = 43
  (NGX  =120   NGY  =120   NGZ  =128)
  gives a total of  65403 points

 initial charge density was supplied:
 charge density of overlapping atoms calculated
 number of electron     280.0000000 magnetization       2.0000000
 keeping initial charge density in first step


--------------------------------------------------------------------------------------------------------


 Maximum index for augmentation-charges          179 (set IRDMAX)


--------------------------------------------------------------------------------------------------------


 First call to EWALD:  gamma=   0.161
 Maximum number of real-space cells 3x 3x 3
 Maximum number of reciprocal cells 3x 3x 3

    FEWALD:  cpu time    0.0029: real time    0.0029


--------------------------------------- Iteration      1(   1)  ---------------------------------------


    POTLOK:  cpu time    0.0682: real time    0.0744
    SETDIJ:  cpu time    0.0106: real time    0.0106
     EDDAV:  cpu time    6.9349: real time    6.9604
 BZINTS: Fermi energy: 13.718196;280.000000 electrons
         Band energy:***********;  BLOECHL correction: -0.070053
       DOS:  cpu time    0.4532: real time    0.4533
    --------------------------------------------
      LOOP:  cpu time    7.4669: real time    7.4988

 eigenvalue-minimisations  :  4192
 total energy-change (2. order) : 0.3158936E+04  (-0.1282097E+05)
 number of electron     280.0000000 magnetization       2.0000000
 augmentation part      280.0000000 magnetization       2.0000000

 Free energy of the ion-electron system (eV)
  ---------------------------------------------------
  alpha Z        PSCENC =       280.56837772
  Ewald energy   TEWEN  =     31397.61164535
  -Hartree energ DENC   =    -42262.44409355
  -exchange      EXHF   =         0.00000000
  -V(xc)+E(xc)   XCENC  =      1157.90903030
  PAW double counting   =     11453.83848114   -11942.90478952
  entropy T*S    EENTRO =         0.00000000
  eigenvalues    EBANDS =     -2097.37852216
  atomic energy  EATOM  =     15171.73615219
  Solvation  Ediel_sol  =         0.00000000
  ---------------------------------------------------
  free energy    TOTEN  =      3158.93628147 eV

  energy without entropy =     3158.93628147  energy(sigma->0) =     3158.93628147


--------------------------------------------------------------------------------------------------------




--------------------------------------- Iteration      1(   2)  ---------------------------------------


     EDDAV:  cpu time    7.2510: real time    7.2516
 BZINTS: Fermi energy:  0.393677;280.000000 electrons
         Band energy:***********;  BLOECHL correction:  0.000000
       DOS:  cpu time    0.0144: real time    0.0144
    --------------------------------------------
      LOOP:  cpu time    7.2655: real time    7.2661

 eigenvalue-minimisations  :  4408
 total energy-change (2. order) :-0.3149083E+04  (-0.3058100E+04)
 number of electron     280.0000000 magnetization       2.0000000
 augmentation part      280.0000000 magnetization       2.0000000

 Free energy of the ion-electron system (eV)
  ---------------------------------------------------
  alpha Z        PSCENC =       280.56837772
  Ewald energy   TEWEN  =     31397.61164535
  -Hartree energ DENC   =    -42262.44409355
  -exchange      EXHF   =         0.00000000
  -V(xc)+E(xc)   XCENC  =      1157.90903030
  PAW double counting   =     11453.83848114   -11942.90478952
  entropy T*S    EENTRO =         0.00000000
  eigenvalues    EBANDS =     -5246.46167557
  atomic energy  EATOM  =     15171.73615219
  Solvation  Ediel_sol  =         0.00000000
  ---------------------------------------------------
  free energy    TOTEN  =         9.85312805 eV

  energy without entropy =        9.85312805  energy(sigma->0) =        9.85312805


--------------------------------------------------------------------------------------------------------




--------------------------------------- Iteration      1(   3)  ---------------------------------------


     EDDAV:  cpu time    6.7664: real time    6.7741
 BZINTS: Fermi energy: -3.687109;280.000000 electrons
         Band energy:***********;  BLOECHL correction:  0.000000
       DOS:  cpu time    0.0151: real time    0.0151
    --------------------------------------------
      LOOP:  cpu time    6.7814: real time    6.7892

 eigenvalue-minimisations  :  4064
 total energy-change (2. order) :-0.4033502E+03  (-0.3996052E+03)
 number of electron     280.0000000 magnetization       2.0000000
 augmentation part      280.0000000 magnetization       2.0000000

 Free energy of the ion-electron system (eV)
  ---------------------------------------------------
  alpha Z        PSCENC =       280.56837772
  Ewald energy   TEWEN  =     31397.61164535
  -Hartree energ DENC   =    -42262.44409355
  -exchange      EXHF   =         0.00000000
  -V(xc)+E(xc)   XCENC  =      1157.90903030
  PAW double counting   =     11453.83848114   -11942.90478952
  entropy T*S    EENTRO =         0.00000000
  eigenvalues    EBANDS =     -5649.81183800
  atomic energy  EATOM  =     15171.73615219
  Solvation  Ediel_sol  =         0.00000000
  ---------------------------------------------------
  free energy    TOTEN  =      -393.49703437 eV

  energy without entropy =     -393.49703437  energy(sigma->0) =     -393.49703437


--------------------------------------------------------------------------------------------------------




--------------------------------------- Iteration      1(   4)  ---------------------------------------


     EDDAV:  cpu time    6.9492: real time    6.9498
 BZINTS: Fermi energy: -4.031883;280.000000 electrons
         Band energy:***********;  BLOECHL correction:  0.000000
       DOS:  cpu time    0.0150: real time    0.0150
    --------------------------------------------
      LOOP:  cpu time    6.9642: real time    6.9648

 eigenvalue-minimisations  :  4184
 total energy-change (2. order) :-0.1320961E+02  (-0.1284812E+02)
 number of electron     280.0000000 magnetization       2.0000000
 augmentation part      280.0000000 magnetization       2.0000000

 Free energy of the ion-electron system (eV)
  ---------------------------------------------------
  alpha Z        PSCENC =       280.56837772
  Ewald energy   TEWEN  =     31397.61164535
  -Hartree energ DENC   =    -42262.44409355
  -exchange      EXHF   =         0.00000000
  -V(xc)+E(xc)   XCENC  =      1157.90903030
  PAW double counting   =     11453.83848114   -11942.90478952
  entropy T*S    EENTRO =         0.00000000
  eigenvalues    EBANDS =     -5663.02144491
  atomic energy  EATOM  =     15171.73615219
  Solvation  Ediel_sol  =         0.00000000
  ---------------------------------------------------
  free energy    TOTEN  =      -406.70664128 eV

  energy without entropy =     -406.70664128  energy(sigma->0) =     -406.70664128


--------------------------------------------------------------------------------------------------------




--------------------------------------- Iteration      1(   5)  ---------------------------------------


     EDDAV:  cpu time    7.0724: real time    7.0811
 BZINTS: Fermi energy: -4.051263;280.000000 electrons
         Band energy:***********;  BLOECHL correction:  0.000000
       DOS:  cpu time    0.0151: real time    0.0151
    CHARGE:  cpu time    0.1584: real time    0.1585
    MIXING:  cpu time    0.0021: real time    0.0022
    --------------------------------------------
      LOOP:  cpu time    7.2480: real time    7.2569

 eigenvalue-minimisations  :  4376
 total energy-change (2. order) :-0.5110595E+00  (-0.5064443E+00)
 number of electron     279.9999990 magnetization       0.0000000
 augmentation part       26.0066568 magnetization      -0.0010363

 Broyden mixing:
  rms(total) = 0.71631E+01    rms(broyden)= 0.71608E+01
  rms(prec ) = 0.81075E+01
  weight for this iteration     100.00

 Free energy of the ion-electron system (eV)
  ---------------------------------------------------
  alpha Z        PSCENC =       280.56837772
  Ewald energy   TEWEN  =     31397.61164535
  -Hartree energ DENC   =    -42262.44409355
  -exchange      EXHF   =         0.00000000
  -V(xc)+E(xc)   XCENC  =      1157.90903030
  PAW double counting   =     11453.83848114   -11942.90478952
  entropy T*S    EENTRO =         0.00000000
  eigenvalues    EBANDS =     -5663.53250438
  atomic energy  EATOM  =     15171.73615219
  Solvation  Ediel_sol  =         0.00000000
  ---------------------------------------------------
  free energy    TOTEN  =      -407.21770075 eV

  energy without entropy =     -407.21770075  energy(sigma->0) =     -407.21770075


--------------------------------------------------------------------------------------------------------




--------------------------------------- Iteration      1(   6)  ---------------------------------------


    POTLOK:  cpu time    0.0709: real time    0.0714
    SETDIJ:  cpu time    0.0097: real time    0.0097
     EDDAV:  cpu time    7.8794: real time    7.8798
 BZINTS: Fermi energy: -1.874469;280.000000 electrons
         Band energy:***********;  BLOECHL correction:  0.000000
       DOS:  cpu time    0.0140: real time    0.0140
    CHARGE:  cpu time    0.1567: real time    0.1567
    MIXING:  cpu time    0.0019: real time    0.0049
    --------------------------------------------
      LOOP:  cpu time    8.1326: real time    8.1365

 eigenvalue-minimisations  :  4944
 total energy-change (2. order) : 0.8326354E+02  (-0.8041379E+01)
 number of electron     279.9999988 magnetization      -0.0000001
 augmentation part       24.8156729 magnetization      -0.0157879

 Broyden mixing:
  rms(total) = 0.49901E+01    rms(broyden)= 0.49899E+01
  rms(prec ) = 0.54662E+01
  weight for this iteration     100.00

 eigenvalues of (default mixing * dielectric matrix)
  average eigenvalue GAMMA=   2.0683
  2.0683

 Free energy of the ion-electron system (eV)
  ---------------------------------------------------
  alpha Z        PSCENC =       280.56837772
  Ewald energy   TEWEN  =     31397.61164535
  -Hartree energ DENC   =    -43019.34152178
  -exchange      EXHF   =         0.00000000
  -V(xc)+E(xc)   XCENC  =      1183.34624718
  PAW double counting   =     18897.63658907   -19395.70022861
  entropy T*S    EENTRO =         0.00000000
  eigenvalues    EBANDS =     -4839.81142551
  atomic energy  EATOM  =     15171.73615219
  Solvation  Ediel_sol  =         0.00000000
  ---------------------------------------------------
  free energy    TOTEN  =      -323.95416438 eV

  energy without entropy =     -323.95416438  energy(sigma->0) =     -323.95416438


--------------------------------------------------------------------------------------------------------




--------------------------------------- Iteration      1(   7)  ---------------------------------------


    POTLOK:  cpu time    0.0630: real time    0.0634
    SETDIJ:  cpu time    0.0093: real time    0.0093
     EDDAV:  cpu time    6.9234: real time    6.9239
 BZINTS: Fermi energy:  0.854964;280.000000 electrons
         Band energy:***********;  BLOECHL correction:  0.000000
       DOS:  cpu time    0.0133: real time    0.0133
    CHARGE:  cpu time    0.1519: real time    0.1519
    MIXING:  cpu time    0.0013: real time    0.0019
    --------------------------------------------
      LOOP:  cpu time    7.1622: real time    7.1637

 eigenvalue-minimisations  :  4200
 total energy-change (2. order) : 0.3915830E+02  (-0.1613856E+02)
 number of electron     279.9999984 magnetization       0.0000000
 augmentation part       23.2802479 magnetization      -0.0043097

 Broyden mixing:
  rms(total) = 0.25361E+01    rms(broyden)= 0.25355E+01
  rms(prec ) = 0.26179E+01
  weight for this iteration     100.00

 eigenvalues of (default mixing * dielectric matrix)
  average eigenvalue GAMMA=   1.9542
  1.1309  2.7775

 Free energy of the ion-electron system (eV)
  ---------------------------------------------------
  alpha Z        PSCENC =       280.56837772
  Ewald energy   TEWEN  =     31397.61164535
  -Hartree energ DENC   =    -44082.02662815
  -exchange      EXHF   =         0.00000000
  -V(xc)+E(xc)   XCENC  =      1219.94515529
  PAW double counting   =     38571.91133509   -39088.94480259
  entropy T*S    EENTRO =         0.00000000
  eigenvalues    EBANDS =     -3755.59710132
  atomic energy  EATOM  =     15171.73615219
  Solvation  Ediel_sol  =         0.00000000
  ---------------------------------------------------
  free energy    TOTEN  =      -284.79586641 eV

  energy without entropy =     -284.79586641  energy(sigma->0) =     -284.79586641


--------------------------------------------------------------------------------------------------------




--------------------------------------- Iteration      1(   8)  ---------------------------------------


    POTLOK:  cpu time    0.0677: real time    0.0681
    SETDIJ:  cpu time    0.0100: real time    0.0100
     EDDAV:  cpu time    7.1984: real time    7.1988
 BZINTS: Fermi energy:  1.056264;280.000000 electrons
         Band energy:***********;  BLOECHL correction:  0.000000
       DOS:  cpu time    0.0129: real time    0.0129
    CHARGE:  cpu time    0.1537: real time    0.1537
    MIXING:  cpu time    0.0012: real time    0.0012
    --------------------------------------------
      LOOP:  cpu time    7.4438: real time    7.4447

 eigenvalue-minimisations  :  4408
 total energy-change (2. order) : 0.5888113E+00  (-0.1799231E+01)
 number of electron     279.9999987 magnetization       0.0000000
 augmentation part       23.1074846 magnetization      -0.0015411

 Broyden mixing:
  rms(total) = 0.17157E+01    rms(broyden)= 0.17156E+01
  rms(prec ) = 0.17595E+01
  weight for this iteration     100.00

 eigenvalues of (default mixing * dielectric matrix)
  average eigenvalue GAMMA=   2.0786
  3.5540  0.8830  1.7988

 Free energy of the ion-electron system (eV)
  ---------------------------------------------------
  alpha Z        PSCENC =       280.56837772
  Ewald energy   TEWEN  =     31397.61164535
  -Hartree energ DENC   =    -44121.13658040
  -exchange      EXHF   =         0.00000000
  -V(xc)+E(xc)   XCENC  =      1222.53809201
  PAW double counting   =     47319.85567747   -47841.46644306
  entropy T*S    EENTRO =         0.00000000
  eigenvalues    EBANDS =     -3713.91397639
  atomic energy  EATOM  =     15171.73615219
  Solvation  Ediel_sol  =         0.00000000
  ---------------------------------------------------
  free energy    TOTEN  =      -284.20705512 eV

  energy without entropy =     -284.20705512  energy(sigma->0) =     -284.20705512


--------------------------------------------------------------------------------------------------------




--------------------------------------- Iteration      1(   9)  ---------------------------------------


    POTLOK:  cpu time    0.0697: real time    0.0701
    SETDIJ:  cpu time    0.0100: real time    0.0100
     EDDAV:  cpu time    8.3955: real time    8.3957
 BZINTS: Fermi energy:  0.924981;280.000000 electrons
         Band energy:***********;  BLOECHL correction:  0.000000
       DOS:  cpu time    0.0133: real time    0.0133
    CHARGE:  cpu time    0.1543: real time    0.1543
    MIXING:  cpu time    0.0013: real time    0.0013
    --------------------------------------------
      LOOP:  cpu time    8.6441: real time    8.6448

 eigenvalue-minimisations  :  5344
 total energy-change (2. order) : 0.3091648E+00  (-0.6662754E+00)
 number of electron     279.9999986 magnetization      -0.0000000
 augmentation part       23.2716998 magnetization       0.0023599

 Broyden mixing:
  rms(total) = 0.52188E+00    rms(broyden)= 0.52176E+00
  rms(prec ) = 0.60220E+00
  weight for this iteration     100.00

 eigenvalues of (default mixing * dielectric matrix)
  average eigenvalue GAMMA=   1.9615
  3.9847  1.9948  1.0359  0.8307

 Free energy of the ion-electron system (eV)
  ---------------------------------------------------
  alpha Z        PSCENC =       280.56837772
  Ewald energy   TEWEN  =     31397.61164535
  -Hartree energ DENC   =    -44011.34410497
  -exchange      EXHF   =         0.00000000
  -V(xc)+E(xc)   XCENC  =      1220.69471578
  PAW double counting   =     59411.31686686   -59937.84592667
  entropy T*S    EENTRO =         0.00000000
  eigenvalues    EBANDS =     -3816.63561656
  atomic energy  EATOM  =     15171.73615219
  Solvation  Ediel_sol  =         0.00000000
  ---------------------------------------------------
  free energy    TOTEN  =      -283.89789030 eV

  energy without entropy =     -283.89789030  energy(sigma->0) =     -283.89789030


--------------------------------------------------------------------------------------------------------




--------------------------------------- Iteration      1(  10)  ---------------------------------------


    POTLOK:  cpu time    0.0639: real time    0.0644
    SETDIJ:  cpu time    0.0097: real time    0.0097
     EDDAV:  cpu time    8.6620: real time    8.6640
 BZINTS: Fermi energy:  0.934984;280.000000 electrons
         Band energy:***********;  BLOECHL correction:  0.000000
       DOS:  cpu time    0.0135: real time    0.0135
    CHARGE:  cpu time    0.1540: real time    0.1540
    MIXING:  cpu time    0.0013: real time    0.0013
    --------------------------------------------
      LOOP:  cpu time    8.9045: real time    8.9070

 eigenvalue-minimisations  :  5576
 total energy-change (2. order) : 0.1648473E+00  (-0.3516142E+00)
 number of electron     279.9999984 magnetization      -0.0000000
 augmentation part       23.2296048 magnetization       0.0007609

 Broyden mixing:
  rms(total) = 0.24548E+00    rms(broyden)= 0.24531E+00
  rms(prec ) = 0.30049E+00
  weight for this iteration     100.00

 eigenvalues of (default mixing * dielectric matrix)
  average eigenvalue GAMMA=   1.7830
  3.9918  2.0777  1.1375  0.8540  0.8540

 Free energy of the ion-electron system (eV)
  ---------------------------------------------------
  alpha Z        PSCENC =       280.56837772
  Ewald energy   TEWEN  =     31397.61164535
  -Hartree energ DENC   =    -44016.94593361
  -exchange      EXHF   =         0.00000000
  -V(xc)+E(xc)   XCENC  =      1221.30981106
  PAW double counting   =     62556.28360422   -63082.37491298
  entropy T*S    EENTRO =         0.00000000
  eigenvalues    EBANDS =     -3811.92178692
  atomic energy  EATOM  =     15171.73615219
  Solvation  Ediel_sol  =         0.00000000
  ---------------------------------------------------
  free energy    TOTEN  =      -283.73304296 eV

  energy without entropy =     -283.73304296  energy(sigma->0) =     -283.73304296


--------------------------------------------------------------------------------------------------------




--------------------------------------- Iteration      1(  11)  ---------------------------------------


    POTLOK:  cpu time    0.0669: real time    0.0674
    SETDIJ:  cpu time    0.0100: real time    0.0100
     EDDAV:  cpu time    6.5983: real time    6.5988
 BZINTS: Fermi energy:  0.881220;280.000000 electrons
         Band energy:***********;  BLOECHL correction:  0.000000
       DOS:  cpu time    0.0132: real time    0.0132
    CHARGE:  cpu time    0.1547: real time    0.1547
    MIXING:  cpu time    0.0016: real time    0.0016
    --------------------------------------------
      LOOP:  cpu time    6.8448: real time    6.8457

 eigenvalue-minimisations  :  3960
 total energy-change (2. order) : 0.9149249E-01  (-0.6348206E-01)
 number of electron     279.9999985 magnetization      -0.0000000
 augmentation part       23.2317634 magnetization       0.0002614

 Broyden mixing:
  rms(total) = 0.14124E+00    rms(broyden)= 0.14121E+00
  rms(prec ) = 0.15443E+00
  weight for this iteration     100.00

 eigenvalues of (default mixing * dielectric matrix)
  average eigenvalue GAMMA=   1.7546
  3.8880  2.2832  1.7778  1.0013  0.7887  0.7887

 Free energy of the ion-electron system (eV)
  ---------------------------------------------------
  alpha Z        PSCENC =       280.56837772
  Ewald energy   TEWEN  =     31397.61164535
  -Hartree energ DENC   =    -43997.05786038
  -exchange      EXHF   =         0.00000000
  -V(xc)+E(xc)   XCENC  =      1220.69172635
  PAW double counting   =     63257.20525993   -63783.02745245
  entropy T*S    EENTRO =         0.00000000
  eigenvalues    EBANDS =     -3831.36939917
  atomic energy  EATOM  =     15171.73615219
  Solvation  Ediel_sol  =         0.00000000
  ---------------------------------------------------
  free energy    TOTEN  =      -283.64155046 eV

  energy without entropy =     -283.64155046  energy(sigma->0) =     -283.64155046


--------------------------------------------------------------------------------------------------------




--------------------------------------- Iteration      1(  12)  ---------------------------------------


    POTLOK:  cpu time    0.0664: real time    0.0668
    SETDIJ:  cpu time    0.0104: real time    0.0104
     EDDAV:  cpu time    7.7090: real time    7.7107
 BZINTS: Fermi energy:  0.851213;280.000000 electrons
         Band energy:***********;  BLOECHL correction:  0.000000
       DOS:  cpu time    0.0130: real time    0.0130
    CHARGE:  cpu time    0.1548: real time    0.1548
    MIXING:  cpu time    0.0016: real time    0.0016
    --------------------------------------------
      LOOP:  cpu time    7.9552: real time    7.9573

 eigenvalue-minimisations  :  4824
 total energy-change (2. order) : 0.1711361E-01  (-0.1633249E-01)
 number of electron     279.9999985 magnetization       0.0000000
 augmentation part       23.2356908 magnetization      -0.0001229

 Broyden mixing:
  rms(total) = 0.55576E-01    rms(broyden)= 0.55559E-01
  rms(prec ) = 0.60262E-01
  weight for this iteration     100.00

 eigenvalues of (default mixing * dielectric matrix)
  average eigenvalue GAMMA=   1.6993
  3.7953  2.6564  1.9100  1.0439  0.9044  0.7924  0.7924

 Free energy of the ion-electron system (eV)
  ---------------------------------------------------
  alpha Z        PSCENC =       280.56837772
  Ewald energy   TEWEN  =     31397.61164535
  -Hartree energ DENC   =    -43987.95665588
  -exchange      EXHF   =         0.00000000
  -V(xc)+E(xc)   XCENC  =      1220.29456336
  PAW double counting   =     63331.73941713   -63857.01155936
  entropy T*S    EENTRO =         0.00000000
  eigenvalues    EBANDS =     -3840.60637737
  atomic energy  EATOM  =     15171.73615219
  Solvation  Ediel_sol  =         0.00000000
  ---------------------------------------------------
  free energy    TOTEN  =      -283.62443685 eV

  energy without entropy =     -283.62443685  energy(sigma->0) =     -283.62443685


--------------------------------------------------------------------------------------------------------




--------------------------------------- Iteration      1(  13)  ---------------------------------------


    POTLOK:  cpu time    0.0641: real time    0.0645
    SETDIJ:  cpu time    0.0117: real time    0.0117
     EDDAV:  cpu time    6.6208: real time    6.6212
 BZINTS: Fermi energy:  0.849962;280.000000 electrons
         Band energy:***********;  BLOECHL correction:  0.000000
       DOS:  cpu time    0.0134: real time    0.0134
    CHARGE:  cpu time    0.1555: real time    0.1555
    MIXING:  cpu time    0.0016: real time    0.0017
    --------------------------------------------
      LOOP:  cpu time    6.8671: real time    6.8679

 eigenvalue-minimisations  :  3976
 total energy-change (2. order) : 0.8410881E-03  (-0.2217579E-02)
 number of electron     279.9999985 magnetization      -0.0000000
 augmentation part       23.2379235 magnetization      -0.0000361

 Broyden mixing:
  rms(total) = 0.36253E-01    rms(broyden)= 0.36248E-01
  rms(prec ) = 0.37957E-01
  weight for this iteration     100.00

 eigenvalues of (default mixing * dielectric matrix)
  average eigenvalue GAMMA=   1.6289
  3.7872  2.7231  1.9532  1.0258  1.0151  1.0151  0.7559  0.7559

 Free energy of the ion-electron system (eV)
  ---------------------------------------------------
  alpha Z        PSCENC =       280.56837772
  Ewald energy   TEWEN  =     31397.61164535
  -Hartree energ DENC   =    -43986.14202845
  -exchange      EXHF   =         0.00000000
  -V(xc)+E(xc)   XCENC  =      1220.18258620
  PAW double counting   =     63392.12785284   -63917.36128324
  entropy T*S    EENTRO =         0.00000000
  eigenvalues    EBANDS =     -3842.34689838
  atomic energy  EATOM  =     15171.73615219
  Solvation  Ediel_sol  =         0.00000000
  ---------------------------------------------------
  free energy    TOTEN  =      -283.62359576 eV

  energy without entropy =     -283.62359576  energy(sigma->0) =     -283.62359576


--------------------------------------------------------------------------------------------------------




--------------------------------------- Iteration      1(  14)  ---------------------------------------


    POTLOK:  cpu time    0.0670: real time    0.0673
    SETDIJ:  cpu time    0.0101: real time    0.0101
     EDDAV:  cpu time    7.6334: real time    7.6337
 BZINTS: Fermi energy:  0.854964;280.000000 electrons
         Band energy:***********;  BLOECHL correction:  0.000000
       DOS:  cpu time    0.0137: real time    0.0137
    CHARGE:  cpu time    0.1542: real time    0.1542
    MIXING:  cpu time    0.0016: real time    0.0016
    --------------------------------------------
      LOOP:  cpu time    7.8800: real time    7.8806

 eigenvalue-minimisations  :  4744
 total energy-change (2. order) : 0.1734569E-03  (-0.3503194E-03)
 number of electron     279.9999985 magnetization       0.0000000
 augmentation part       23.2377178 magnetization       0.0000003

 Broyden mixing:
  rms(total) = 0.25219E-01    rms(broyden)= 0.25218E-01
  rms(prec ) = 0.26409E-01
  weight for this iteration     100.00

 eigenvalues of (default mixing * dielectric matrix)
  average eigenvalue GAMMA=   1.6914
  3.7185  3.0110  2.0746  1.4172  1.4172  1.1027  0.7925  0.7925  0.8965

 Free energy of the ion-electron system (eV)
  ---------------------------------------------------
  alpha Z        PSCENC =       280.56837772
  Ewald energy   TEWEN  =     31397.61164535
  -Hartree energ DENC   =    -43987.76429524
  -exchange      EXHF   =         0.00000000
  -V(xc)+E(xc)   XCENC  =      1220.20722011
  PAW double counting   =     63427.89913155   -63953.15444437
  entropy T*S    EENTRO =         0.00000000
  eigenvalues    EBANDS =     -3840.72720961
  atomic energy  EATOM  =     15171.73615219
  Solvation  Ediel_sol  =         0.00000000
  ---------------------------------------------------
  free energy    TOTEN  =      -283.62342231 eV

  energy without entropy =     -283.62342231  energy(sigma->0) =     -283.62342231


--------------------------------------------------------------------------------------------------------




--------------------------------------- Iteration      1(  15)  ---------------------------------------


    POTLOK:  cpu time    0.0649: real time    0.0653
    SETDIJ:  cpu time    0.0102: real time    0.0102
     EDDAV:  cpu time    8.0361: real time    8.0366
 BZINTS: Fermi energy:  0.856214;280.000000 electrons
         Band energy:***********;  BLOECHL correction:  0.000000
       DOS:  cpu time    0.0129: real time    0.0129
    CHARGE:  cpu time    0.1547: real time    0.1547
    MIXING:  cpu time    0.0019: real time    0.0018
    --------------------------------------------
      LOOP:  cpu time    8.2807: real time    8.2815

 eigenvalue-minimisations  :  5064
 total energy-change (2. order) : 0.1077311E-03  (-0.1544752E-03)
 number of electron     279.9999985 magnetization      -0.0000000
 augmentation part       23.2385146 magnetization       0.0000039

 Broyden mixing:
  rms(total) = 0.10122E-01    rms(broyden)= 0.10120E-01
  rms(prec ) = 0.10579E-01
  weight for this iteration     100.00

 eigenvalues of (default mixing * dielectric matrix)
  average eigenvalue GAMMA=   1.7555
  3.7199  3.7199  2.5361  1.7908  0.7902  0.7902  1.1727  1.0341  1.0341  0.9669

 Free energy of the ion-electron system (eV)
  ---------------------------------------------------
  alpha Z        PSCENC =       280.56837772
  Ewald energy   TEWEN  =     31397.61164535
  -Hartree energ DENC   =    -43988.87981771
  -exchange      EXHF   =         0.00000000
  -V(xc)+E(xc)   XCENC  =      1220.22021185
  PAW double counting   =     63458.41862991   -63983.70790756
  entropy T*S    EENTRO =         0.00000000
  eigenvalues    EBANDS =     -3839.59060632
  atomic energy  EATOM  =     15171.73615219
  Solvation  Ediel_sol  =         0.00000000
  ---------------------------------------------------
  free energy    TOTEN  =      -283.62331458 eV

  energy without entropy =     -283.62331458  energy(sigma->0) =     -283.62331458


--------------------------------------------------------------------------------------------------------




--------------------------------------- Iteration      1(  16)  ---------------------------------------


    POTLOK:  cpu time    0.0663: real time    0.0668
    SETDIJ:  cpu time    0.0101: real time    0.0101
     EDDAV:  cpu time    5.6165: real time    5.6182
 BZINTS: Fermi energy:  0.859965;280.000000 electrons
         Band energy:***********;  BLOECHL correction:  0.000000
       DOS:  cpu time    0.0135: real time    0.0135
    --------------------------------------------
      LOOP:  cpu time    5.7065: real time    5.7086

 eigenvalue-minimisations  :  3232
 total energy-change (2. order) :-0.3600337E-04  (-0.3891977E-04)
 number of electron     279.9999985 magnetization      -0.0000000
 augmentation part       23.2385146 magnetization       0.0000039

 Free energy of the ion-electron system (eV)
  ---------------------------------------------------
  alpha Z        PSCENC =       280.56837772
  Ewald energy   TEWEN  =     31397.61164535
  -Hartree energ DENC   =    -43989.87709201
  -exchange      EXHF   =         0.00000000
  -V(xc)+E(xc)   XCENC  =      1220.24376377
  PAW double counting   =     63483.12626108   -64008.41974846
  entropy T*S    EENTRO =         0.00000000
  eigenvalues    EBANDS =     -3838.61271023
  atomic energy  EATOM  =     15171.73615219
  Solvation  Ediel_sol  =         0.00000000
  ---------------------------------------------------
  free energy    TOTEN  =      -283.62335058 eV

  energy without entropy =     -283.62335058  energy(sigma->0) =     -283.62335058


--------------------------------------------------------------------------------------------------------




 average (electrostatic) potential at core
  the test charge radii are     0.6991  0.7089  0.9911  0.6991  0.7215
  (the norm of the test charge is              1.0000)
       1 -58.4918       2 -58.9643       3 -58.9353       4 -58.7212       5 -58.6571
       6 -58.7688       7 -58.6298       8 -58.3972       9 -58.3134      10 -59.7256
      11 -58.9458      12 -59.7194      13 -58.4640      14 -58.5132      15 -58.2039
      16 -58.8311      17 -58.7203      18 -58.6547      19 -58.7731      20 -58.4101
      21 -58.3971      22 -58.8507      23 -58.6779      24 -58.9071      25 -72.8299
      26 -70.1630      27 -70.1718      28 -70.4172      29 -70.4918      30 -70.3557
      31 -70.2173      32 -74.0366      33 -72.2036      34 -70.8127      35 -72.3339
      36 -70.4735      37 -70.4628      38 -70.9038      39 -72.2428      40 -74.2020
      41 -72.5130      42 -70.4716      43 -70.3196      44 -70.5729      45 -70.7149
      46 -70.2617      47 -70.2335      48 -73.9161      49 -72.4368      50 -70.6735
      51 -70.5966      52 -70.1289      53 -70.0556      54 -70.5247      55 -70.5848
      56 -74.2854      57 -78.6124      58 -58.0607      59 -81.4439



 E-fermi :   0.8600     XC(G=0):  -4.4119     alpha+bet : -4.2140


 spin component 1

 k-point     1 :       0.0000    0.0000    0.0000
  band No.  band energies     occupation 
      1     -30.5631      1.00000
      2     -30.4151      1.00000
      3     -30.1098      1.00000
      4     -30.0223      1.00000
      5     -28.6662      1.00000
      6     -28.5226      1.00000
      7     -28.3074      1.00000
      8     -28.1993      1.00000
      9     -27.3199      1.00000
     10     -27.0996      1.00000
     11     -27.0036      1.00000
     12     -26.9394      1.00000
     13     -26.7874      1.00000
     14     -26.7457      1.00000
     15     -25.5142      1.00000
     16     -25.2260      1.00000
     17     -25.1028      1.00000
     18     -24.5889      1.00000
     19     -24.2527      1.00000
     20     -24.0135      1.00000
     21     -23.9636      1.00000
     22     -23.7798      1.00000
     23     -23.5422      1.00000
     24     -23.4729      1.00000
     25     -23.1214      1.00000
     26     -22.9308      1.00000
     27     -22.8616      1.00000
     28     -22.8002      1.00000
     29     -22.6371      1.00000
     30     -22.6213      1.00000
     31     -22.5337      1.00000
     32     -22.4787      1.00000
     33     -22.3640      1.00000
     34     -21.8462      1.00000
     35     -21.6595      1.00000
     36     -21.5635      1.00000
     37     -21.5084      1.00000
     38     -20.6502      1.00000
     39     -19.0175      1.00000
     40     -18.9321      1.00000
     41     -18.7300      1.00000
     42     -18.4615      1.00000
     43     -18.3213      1.00000
     44     -18.1227      1.00000
     45     -17.9486      1.00000
     46     -17.8340      1.00000
     47     -16.5213      1.00000
     48     -16.3712      1.00000
     49     -16.2836      1.00000
     50     -15.9582      1.00000
     51     -15.8971      1.00000
     52     -15.7601      1.00000
     53     -15.5168      1.00000
     54     -15.4253      1.00000
     55     -15.4001      1.00000
     56     -15.2725      1.00000
     57     -15.1750      1.00000
     58     -14.9406      1.00000
     59     -14.7482      1.00000
     60     -14.5829      1.00000
     61     -14.5141      1.00000
     62     -14.3281      1.00000
     63     -14.2143      1.00000
     64     -14.1283      1.00000
     65     -13.9502      1.00000
     66     -13.8937      1.00000
     67     -13.7976      1.00000
     68     -13.2476      1.00000
     69     -12.8582      1.00000
     70     -12.4853      1.00000
     71     -12.3396      1.00000
     72     -12.2045      1.00000
     73     -11.9472      1.00000
     74     -11.8334      1.00000
     75     -11.7583      1.00000
     76     -11.4984      1.00000
     77     -11.4277      1.00000
     78     -11.1134      1.00000
     79     -11.0017      1.00000
     80     -10.9697      1.00000
     81     -10.8184      1.00000
     82     -10.6518      1.00000
     83     -10.5519      1.00000
     84     -10.4923      1.00000
     85     -10.4578      1.00000
     86     -10.3332      1.00000
     87     -10.2844      1.00000
     88     -10.2833      1.00000
     89     -10.1757      1.00000
     90      -9.7643      1.00000
     91      -9.5493      1.00000
     92      -9.1088      1.00000
     93      -8.9450      1.00000
     94      -8.7587      1.00000
     95      -8.5449      1.00000
     96      -8.3069      1.00000
     97      -8.1031      1.00000
     98      -7.9685      1.00000
     99      -7.4710      1.00000
    100      -7.3274      1.00000
    101      -7.1932      1.00000
    102      -7.1410      1.00000
    103      -7.0368      1.00000
    104      -6.9753      1.00000
    105      -6.8891      1.00000
    106      -6.7717      1.00000
    107      -6.5625      1.00000
    108      -6.4489      1.00000
    109      -6.0816      1.00000
    110      -5.7946      1.00000
    111      -5.6303      1.00000
    112      -5.3197      1.00000
    113      -5.0253      1.00000
    114      -4.9624      1.00000
    115      -4.7170      1.00000
    116      -4.5089      1.00000
    117      -4.3160      1.00000
    118      -4.1726      1.00000
    119      -4.1667      1.00000
    120      -4.1189      1.00000
    121      -4.0244      1.00000
    122      -3.8662      1.00000
    123      -3.8298      1.00000
    124      -3.7209      1.00000
    125      -3.5975      1.00000
    126      -3.4049      1.00000
    127      -3.2507      1.00000
    128      -2.9260      1.00000
    129      -2.7441      1.00000
    130      -2.4803      1.00000
    131      -2.2433      1.00000
    132      -2.0504      1.00000
[...]
   -.250E+02 0.787E+02 0.273E+03   0.245E+02 -.805E+02 -.277E+03   -.321E+00 0.447E+01 0.287E+01   0.417E-02 -.526E-02 -.227E-02
   -.906E+02 -.246E+02 0.132E+03   0.941E+02 0.255E+02 -.134E+03   -.403E+01 -.208E+01 0.172E+01   -.103E-01 0.333E-02 -.250E-02
   0.617E+02 -.355E+02 -.444E+02   -.608E+02 0.392E+02 0.477E+02   0.943E+00 0.283E+01 0.856E+00   -.130E-01 0.291E-02 -.718E-02
   0.320E+02 -.302E+02 -.671E+02   -.351E+02 0.267E+02 0.674E+02   -.321E+01 -.233E+01 0.671E+00   -.452E-02 0.599E-02 0.998E-03
   -.361E+01 -.724E+01 -.818E+02   0.679E+01 0.328E+01 0.831E+02   0.367E+01 -.171E+01 0.396E+00   0.355E-02 0.156E-02 -.632E-02
   -.396E+02 0.234E+02 -.992E+02   0.367E+02 -.231E+02 0.101E+03   0.122E+01 -.208E+01 -.157E+01   0.253E-01 -.130E-01 -.325E-02
   -.497E+01 0.259E+02 0.649E+02   0.509E+01 -.308E+02 -.660E+02   0.108E+00 0.434E+01 -.598E+00   -.558E-02 0.264E-01 0.982E-02
   0.501E+02 0.205E+02 -.900E+02   -.473E+02 -.205E+02 0.936E+02   -.131E+01 -.264E+01 -.100E+01   -.257E-01 -.977E-02 -.111E-01
   -.453E+01 -.180E+02 -.241E+02   0.524E+01 0.204E+02 0.215E+02   -.314E+00 0.424E+01 -.910E+00   0.484E-02 0.112E-02 -.889E-02
   0.507E+02 0.386E+02 0.264E+03   -.543E+02 -.403E+02 -.265E+03   -.374E+01 -.145E+01 -.125E+01   0.915E-02 -.202E-02 0.272E-02
   -.133E+02 0.273E+02 0.118E+03   0.172E+02 -.315E+02 -.119E+03   0.379E+01 -.129E+01 -.516E+00   0.395E-02 -.347E-02 -.595E-02
   0.935E+02 -.230E+02 0.902E+02   -.973E+02 0.235E+02 -.917E+02   0.407E+01 -.219E+01 0.906E+00   0.761E-02 0.342E-02 -.192E-02
   0.107E+02 0.111E+03 0.290E+03   -.853E+01 -.113E+03 -.295E+03   -.336E+00 0.419E+01 0.255E+01   -.604E-02 -.903E-03 0.207E-02
   -.920E+02 -.854E+02 -.136E+03   0.961E+02 0.868E+02 0.138E+03   -.400E+01 -.202E+01 -.728E+00   -.111E-01 0.548E-03 -.727E-02
   -.538E+02 -.328E+02 -.192E+03   0.511E+02 0.378E+02 0.195E+03   -.439E+00 0.284E+01 0.811E+00   0.183E-01 0.810E-02 -.111E-02
   0.763E+01 -.856E+01 -.148E+03   -.118E+02 0.470E+01 0.151E+03   -.374E+01 -.161E+01 0.599E+00   -.120E-02 0.723E-02 -.562E-02
   -.353E+02 -.238E+02 -.121E+03   0.394E+02 0.201E+02 0.122E+03   0.303E+01 -.245E+01 0.139E+01   0.609E-02 0.146E-01 0.328E-02
   0.110E+03 -.973E+02 0.189E+03   -.110E+03 0.103E+03 -.190E+03   0.385E+01 -.323E+01 0.535E+00   0.466E-02 -.130E-01 0.145E-02
   -.148E+02 0.624E+02 -.260E+03   0.149E+02 -.665E+02 0.264E+03   -.102E+00 0.462E+01 -.204E+01   -.142E-02 0.130E-01 -.150E-01
   -.124E+03 -.358E+02 -.837E+02   0.126E+03 0.377E+02 0.862E+02   -.444E+01 -.163E+01 -.166E+01   -.212E-02 -.795E-02 -.680E-02
   -.205E+02 0.591E+02 0.227E+03   0.216E+02 -.592E+02 -.232E+03   -.319E+00 0.182E+01 0.365E+01   -.167E-01 -.261E-01 -.127E-01
   -.273E+03 -.386E+02 0.306E+03   0.327E+03 0.677E+02 -.330E+03   -.330E+02 -.167E+02 0.137E+02   -.181E-01 -.338E-02 -.257E-02
   0.219E+03 -.217E+03 -.327E+03   -.272E+03 0.246E+03 0.350E+03   0.320E+02 -.174E+02 -.107E+02   0.117E-01 -.885E-02 -.102E-01
   0.401E+01 0.241E+03 0.543E+03   0.442E+00 -.291E+03 -.585E+03   -.129E+01 0.299E+02 0.226E+02   0.477E-02 0.619E-02 0.373E-02
   -.559E+02 0.200E+03 0.569E+03   0.537E+02 -.245E+03 -.617E+03   0.126E+01 0.290E+02 0.264E+02   0.704E-02 -.125E-01 -.412E-02
   0.270E+03 -.137E+03 -.156E+03   -.322E+03 0.173E+03 0.159E+03   0.309E+02 -.194E+02 -.394E-01   0.203E-01 -.468E-02 -.110E-01
   -.202E+03 -.112E+03 0.348E+03   0.255E+03 0.129E+03 -.385E+03   -.314E+02 -.110E+02 0.200E+02   -.102E-01 -.139E-02 0.519E-02
   -.618E+01 -.898E+00 -.340E+02   0.679E+01 0.398E+00 0.362E+02   -.218E+00 0.273E+00 -.107E+01   -.254E-02 0.981E-02 -.121E-01
   0.260E+02 -.344E+02 -.134E+03   -.259E+02 0.358E+02 0.142E+03   0.323E+00 -.805E+00 -.423E+01   -.380E-02 0.112E-02 -.388E-02
   0.405E+01 -.850E+02 -.415E+03   0.323E+02 0.110E+03 0.460E+03   -.234E+02 -.148E+02 -.248E+02   -.241E-01 0.685E-02 -.413E-02
   0.455E+01 0.960E+02 -.105E+03   -.396E+02 -.909E+02 0.123E+03   0.196E+02 -.403E+01 -.108E+02   0.876E-02 -.223E-01 0.136E-02
   -.245E+02 0.152E+03 0.170E+03   0.296E+02 -.211E+03 -.190E+03   -.198E+01 0.346E+02 0.966E+01   0.383E-03 0.346E-01 0.133E-01
   0.360E-01 0.147E+03 0.190E+03   -.380E+01 -.206E+03 -.210E+03   0.128E+01 0.345E+02 0.974E+01   -.141E-01 0.261E-01 0.132E-01
   0.497E+02 -.828E+02 -.453E+03   -.940E+02 0.108E+03 0.490E+03   0.282E+02 -.152E+02 -.186E+02   0.239E-01 -.157E-02 0.708E-02
   0.305E+01 0.109E+03 -.148E+03   0.289E+02 -.105E+03 0.174E+03   -.180E+02 -.339E+01 -.146E+02   -.205E-01 -.275E-01 -.765E-02
   0.731E+02 0.250E+02 0.991E+02   -.820E+02 -.311E+02 -.997E+02   0.388E+01 0.283E+01 -.197E+00   -.243E-01 -.177E-01 -.167E-01
   0.201E+02 0.557E+02 0.205E+03   -.242E+02 -.584E+02 -.213E+03   0.220E+01 0.174E+01 0.412E+01   0.136E-01 0.143E-02 -.671E-02
   -.266E+03 -.144E+03 -.171E+03   0.318E+03 0.179E+03 0.174E+03   -.309E+02 -.183E+02 -.119E+01   -.146E-01 -.726E-03 -.133E-01
   0.207E+03 -.949E+02 0.269E+03   -.261E+03 0.111E+03 -.302E+03   0.325E+02 -.107E+02 0.168E+02   0.124E-01 0.398E-02 0.738E-02
   0.188E+02 0.232E+03 0.586E+03   -.125E+02 -.279E+03 -.631E+03   -.390E+01 0.301E+02 0.234E+02   -.752E-02 -.730E-03 0.118E-01
   0.799E+01 0.331E+03 0.493E+03   -.116E+02 -.391E+03 -.515E+03   0.258E+00 0.347E+02 0.110E+02   -.357E-02 0.206E-01 0.105E-01
   0.274E+03 -.396E+02 0.184E+03   -.329E+03 0.712E+02 -.197E+03   0.334E+02 -.178E+02 0.704E+01   0.122E-01 0.319E-02 -.468E-02
   -.200E+03 -.223E+03 -.402E+03   0.249E+03 0.252E+03 0.430E+03   -.306E+02 -.171E+02 -.136E+02   -.105E-01 -.961E-03 -.120E-01
   0.108E+01 -.493E+02 -.182E+02   -.938E+00 0.518E+02 0.138E+02   -.182E+00 -.128E+01 0.199E+01   -.654E-03 0.134E-01 0.221E-02
   -.256E+02 -.375E+02 -.260E+03   0.246E+02 0.413E+02 0.271E+03   0.176E+00 -.221E+01 -.572E+01   0.110E-01 0.156E-01 0.537E-03
   -.317E+03 -.910E+02 -.128E+03   0.371E+03 0.122E+03 0.130E+03   -.319E+02 -.187E+02 -.187E+01   -.105E-02 -.915E-02 -.227E-02
   0.250E+03 -.208E+03 0.417E+03   -.305E+03 0.235E+03 -.435E+03   0.313E+02 -.175E+02 0.655E+01   0.160E-01 -.257E-01 0.619E-02
   0.255E+01 0.207E+03 -.531E+03   0.526E+01 -.255E+03 0.573E+03   -.381E+01 0.295E+02 -.231E+02   0.855E-02 0.886E-02 -.179E-01
   -.507E+02 0.159E+03 -.596E+03   0.487E+02 -.203E+03 0.645E+03   0.743E+00 0.284E+02 -.269E+02   -.865E-02 0.135E-01 -.187E-01
   0.267E+03 -.180E+03 0.323E+03   -.311E+03 0.219E+03 -.347E+03   0.253E+02 -.226E+02 0.119E+02   0.892E-02 -.115E-01 0.550E-02
   -.234E+03 -.103E+03 -.256E+03   0.291E+03 0.118E+03 0.284E+03   -.326E+02 -.108E+02 -.143E+02   -.398E-02 -.104E-01 -.150E-01
   -.689E+02 0.291E+02 0.585E+02   0.752E+02 -.342E+02 -.641E+02   -.245E+01 0.219E+01 0.201E+01   0.275E-01 -.119E-01 -.745E-02
   0.632E+02 -.163E+03 -.136E+04   -.656E+02 0.190E+03 0.140E+04   0.168E+01 -.195E+02 -.304E+02   -.434E-01 -.427E-01 0.826E-01
   -.847E+02 -.193E+03 0.180E+03   0.105E+03 0.239E+03 -.233E+03   -.773E+01 -.175E+02 0.203E+02   -.218E-02 -.363E-02 0.171E-02
   0.692E+02 0.156E+03 -.874E+02   -.103E+03 -.231E+03 0.175E+03   0.208E+02 0.472E+02 -.547E+02   -.152E-02 -.131E-02 -.375E-02
 -----------------------------------------------------------------------------------------------
   -.102E+02 -.355E+02 0.441E+02   -.711E-13 -.114E-12 -.102E-11   0.102E+02 0.356E+02 -.439E+02   -.394E-01 -.112E+00 -.123E+00


 POSITION                                       TOTAL-FORCE (eV/Angst)
 -----------------------------------------------------------------------------------
     -0.01226      2.03113      5.36753        -0.000200      8.218110     -2.782491
      1.00090      3.77824      5.44987        -9.689057      1.049447     -0.058886
     -1.04541      3.74089      5.37766         9.427895      1.136285      1.017795
      4.71556      0.54225      6.34205         0.451148     -1.272404      1.681421
      2.86020      3.77721      5.19608        -0.767921      2.668186     -0.930414
      0.97244      0.48825      5.64080        -0.607565     -1.194730     -0.413990
     -2.94660      6.81219      6.07401         1.830650      6.500990      4.087853
     -1.82412      8.49129      6.28680        -6.303012     -5.833134      0.987348
     -3.83994      8.56958      6.24896         6.855183     -5.671979      1.736683
      1.97279      5.18789      6.29544        -1.703073     -1.801828      0.491026
      0.03232      8.41946      6.13635         0.227698     -0.530311     -1.693174
     -2.09033      5.18522      6.03428         1.511087     -2.640623      2.531129
      5.72898      2.04151      5.93629         0.398441      6.573431     -3.562446
      6.64519      3.61505      5.04058        -7.388762     -3.206897     -1.742298
      4.69066      3.68612      5.47820         7.710129     -5.429426     -1.325208
     10.36819      0.35459      5.78863         0.342056     -1.631374     -0.596075
      8.48481      3.55970      4.96674         1.812212      2.077962     -1.853843
      6.69737      0.53152      6.42001         0.101202     -0.652021      1.420915
      2.92459      6.72439      6.65638        -3.153926      7.873136      3.964949
      3.87331      8.48136      6.55345        -7.874588     -5.471186      4.098712
      1.85260      8.46364      6.53434         7.166191     -6.163387      2.884686
      7.45690      5.25085      5.29429         3.196107      2.144650     -0.428676
      5.71554      8.49827      6.69839         0.019174      0.504996      2.052109
      3.90470      5.22200      6.14730        -2.479547      0.270625      0.817787
     -0.01177      3.19094      5.34987         0.743911      1.704608     -2.010080
      0.95642      1.51795      5.29973        20.948508     12.349799    -10.024905
      3.80690     -0.03527      6.54456       -20.626975     11.649352     12.696142
      3.80872      3.30015      4.94837         3.164452    -19.678386    -19.464539
      1.86557      3.40565      4.91598        -0.930493    -16.229638    -21.114583
      4.73691      1.61581      6.18779       -20.754983     16.859119      3.095706
     -3.80707      9.45225      5.61590        20.653736      6.127376    -17.340953
      0.01380      0.01754      6.06097         0.389644     -0.219000      1.098472
     -2.84686      7.94196      6.27521         0.387694      0.624155      3.800664
     -2.14122      6.16720      6.49081        12.935933      9.870852     20.845973
      1.00044      4.65808      6.16809       -15.457600      1.104885      7.596063
      0.99318      7.88858      6.14562         3.191069    -23.668385    -10.127102
     -0.92619      7.90120      6.01832        -2.495198    -23.616342    -10.149732
      1.98660      6.13661      6.82348       -16.069137     10.323358     18.127803
     -1.13614      4.61603      6.08895        13.944825      0.404241     11.674300
      8.40493      4.60165      5.48467        -4.979986     -3.238982     -0.804182
      5.70177      3.06181      5.40263        -1.878579     -0.936951     -4.237602
      6.70529      1.60092      6.21344        21.329649     16.210004      2.086030
      3.79245      9.32857      5.87657       -21.556717      5.476827    -16.095840
     -1.85120      3.33658      4.78129         2.487490    -17.107239    -21.164558
      7.55333      3.03641      4.79022        -3.336118    -25.438098    -11.538346
     10.35780      1.38887      5.47413       -21.747682     13.717168     -5.110442
      7.56296     -0.05432      6.75764        18.913537     11.860739     14.871686
      5.70881     -0.04172      6.25122        -0.037865      1.249752     -2.461605
      2.86248      7.87705      6.69267        -0.779269      1.615287      5.202200
      3.88914      6.27669      6.42534        22.728556     12.748298      0.429022
      6.57008      4.72884      4.98970       -23.931318      9.177917    -11.509636
     -4.66158      8.17779      6.87075         4.004286    -19.130411     19.000015
      4.76156      8.11044      7.08443        -1.349818    -15.512339     22.444570
     -3.79587      6.49434      5.46704       -18.119765     15.982209    -12.013557
      4.78916      4.60697      6.07302        24.107648      3.796273     12.989438
      2.89191      4.73317      5.86810         3.828755     -2.911646     -3.614291
     -0.10983      5.64092      6.98290        -0.796179      7.305386     10.426088
     -0.10983      5.64092     11.88650        12.570521     28.410783    -33.016135
     -0.37306      5.04573      0.27967       -12.564056    -28.399489     33.029003
 -----------------------------------------------------------------------------------
    total drift:                               -0.003568      0.002485      0.006117


--------------------------------------------------------------------------------------------------------



  FREE ENERGIE OF THE ION-ELECTRON SYSTEM (eV)
  ---------------------------------------------------
  free  energy   TOTEN  =      -288.86148540 eV

  energy  without entropy=     -288.86148540  energy(sigma->0) =     -288.86148540



--------------------------------------------------------------------------------------------------------


    POTLOK:  cpu time    0.1325: real time    0.1325


--------------------------------------------------------------------------------------------------------


     LOOP+:  cpu time  125.6686: real time  125.7526
    4ORBIT:  cpu time    0.0000: real time    0.0000



 total charge     

# of ion       s       p       d       tot
------------------------------------------
    1        1.124   2.540   0.000   3.664
    2        1.103   2.511   0.000   3.613
    3        1.107   2.526   0.000   3.633
    4        1.138   2.565   0.000   3.703
    5        1.122   2.553   0.000   3.676
    6        1.145   2.578   0.000   3.723
    7        1.123   2.537   0.000   3.661
    8        1.119   2.530   0.000   3.650
    9        1.129   2.531   0.000   3.660
   10        1.151   2.618   0.000   3.768
   11        1.142   2.570   0.000   3.713
   12        1.159   2.631   0.000   3.790
   13        1.118   2.530   0.000   3.648
   14        1.115   2.528   0.000   3.643
   15        1.112   2.526   0.000   3.638
   16        1.148   2.585   0.000   3.733
   17        1.126   2.568   0.000   3.694
   18        1.133   2.564   0.000   3.696
   19        1.121   2.531   0.000   3.652
   20        1.123   2.525   0.000   3.648
   21        1.114   2.518   0.000   3.632
   22        1.132   2.565   0.000   3.698
   23        1.133   2.551   0.000   3.684
   24        1.142   2.586   0.000   3.728
   25        1.400   3.355   0.000   4.755
   26        1.419   3.222   0.000   4.641
   27        1.415   3.211   0.000   4.626
   28        1.412   3.176   0.000   4.588
   29        1.418   3.207   0.000   4.624
   30        1.412   3.206   0.000   4.618
   31        1.426   3.206   0.000   4.632
   32        1.428   3.400   0.000   4.829
   33        1.418   3.374   0.000   4.791
   34        1.415   3.229   0.000   4.644
   35        1.397   3.262   0.000   4.659
   36        1.408   3.202   0.000   4.610
   37        1.408   3.200   0.000   4.608
   38        1.410   3.217   0.000   4.627
   39        1.400   3.268   0.000   4.668
   40        1.431   3.418   0.000   4.848
   41        1.410   3.353   0.000   4.763
   42        1.407   3.191   0.000   4.599
   43        1.425   3.215   0.000   4.639
   44        1.418   3.205   0.000   4.622
   45        1.413   3.174   0.000   4.588
   46        1.420   3.228   0.000   4.648
   47        1.414   3.199   0.000   4.614
   48        1.424   3.404   0.000   4.829
   49        1.403   3.338   0.000   4.741
   50        1.422   3.215   0.000   4.637
   51        1.415   3.199   0.000   4.614
   52        1.407   3.187   0.000   4.595
   53        1.411   3.193   0.000   4.604
   54        1.408   3.198   0.000   4.605
   55        1.423   3.198   0.000   4.621
   56        1.427   3.407   0.000   4.834
   57        1.286   1.340  10.344  12.971
   58        1.127   1.914   0.000   3.041
   59        1.706   3.862   0.000   5.568
--------------------------------------------------
tot         76.466 172.438  10.344 259.248



 magnetization (x)

# of ion       s       p       d       tot
------------------------------------------
    1        0.000  -0.000   0.000  -0.000
    2       -0.000  -0.000   0.000  -0.000
    3        0.000   0.000   0.000   0.000
    4        0.000   0.000   0.000   0.000
    5       -0.000  -0.000   0.000  -0.000
    6        0.000   0.000   0.000   0.000
    7        0.000   0.000   0.000   0.000
    8        0.000   0.000   0.000   0.000
    9        0.000   0.000   0.000   0.000
   10        0.000   0.000   0.000   0.000
   11       -0.000  -0.000   0.000  -0.000
   12       -0.000   0.000   0.000  -0.000
   13        0.000   0.000   0.000   0.000
   14        0.000   0.000   0.000   0.000
   15        0.000  -0.000   0.000  -0.000
   16        0.000  -0.000   0.000  -0.000
   17        0.000   0.000   0.000   0.000
   18        0.000   0.000   0.000   0.000
   19        0.000  -0.000   0.000  -0.000
   20        0.000  -0.000   0.000  -0.000
   21        0.000  -0.000   0.000  -0.000
   22       -0.000   0.000   0.000   0.000
   23       -0.000  -0.000   0.000  -0.000
   24       -0.000  -0.000   0.000  -0.000
   25        0.000  -0.000   0.000  -0.000
   26        0.000  -0.000   0.000  -0.000
   27       -0.000  -0.000   0.000  -0.000
   28        0.000   0.000   0.000   0.000
   29        0.000   0.000   0.000   0.000
   30        0.000   0.000   0.000   0.000
   31        0.000  -0.000   0.000  -0.000
   32        0.000  -0.000   0.000   0.000
   33       -0.000  -0.000   0.000  -0.000
   34        0.000   0.000   0.000   0.000
   35        0.000   0.000   0.000   0.000
   36       -0.000   0.000   0.000   0.000
   37        0.000   0.000   0.000   0.000
   38        0.000  -0.000   0.000  -0.000
   39        0.000   0.000   0.000   0.000
   40        0.000   0.000   0.000   0.000
   41        0.000  -0.000   0.000  -0.000
   42       -0.000   0.000   0.000   0.000
   43        0.000  -0.000   0.000  -0.000
   44       -0.000  -0.000   0.000  -0.000
   45        0.000  -0.000   0.000  -0.000
   46        0.000   0.000   0.000   0.000
   47       -0.000  -0.000   0.000  -0.000
   48        0.000   0.000   0.000   0.000
   49        0.000  -0.000   0.000  -0.000
   50        0.000   0.000   0.000   0.000
   51        0.000  -0.000   0.000  -0.000
   52       -0.000   0.000   0.000   0.000
   53        0.000  -0.000   0.000   0.000
   54       -0.000   0.000   0.000  -0.000
   55        0.000   0.000   0.000   0.000
   56       -0.000  -0.000   0.000  -0.000
   57        0.000  -0.000  -0.000  -0.000
   58       -0.000  -0.000   0.000  -0.000
   59        0.000   0.000   0.000   0.000
--------------------------------------------------
tot          0.000   0.000  -0.000   0.000

 BZINTS: Fermi energy:  0.859965;280.000000 electrons
         Band energy:***********;  BLOECHL correction:  0.000000

 total amount of memory used by VASP MPI-rank0    65629. kBytes
=======================================================================

   base      :      30000. kBytes
   nonl-proj :      10578. kBytes
   fftplans  :       2121. kBytes
   grid      :       6401. kBytes
   one-center:        155. kBytes
   wavefun   :      16374. kBytes

  
  
 General timing and accounting informations for this job:
 ========================================================
  
                  Total CPU time used (sec):      137.649
                            User time (sec):      136.718
                          System time (sec):        0.932
                         Elapsed time (sec):      138.101
  
                   Maximum memory used (kb):      189704.
                   Average memory used (kb):           0.
  
                          Minor page faults:        41382
                          Major page faults:            0
                 Voluntary context switches:         1028
