 vasp.5.4.4.18Apr17-6-g9f103f2a35 (build Jan 14 2022 15:04:31) complex          
  
 executed on             LinuxIFC date 2023.01.27  22:54:36
 running on   48 total cores
 distrk:  each k-point on   48 cores,    1 groups
 distr:  one band on NCORES_PER_BAND=  12 cores,    4 groups


--------------------------------------------------------------------------------------------------------


 INCAR:
 POTCAR:    PAW_PBE C 08Apr2002                   
 POTCAR:    PAW_PBE N 08Apr2002                   
 POTCAR:    PAW_PBE C 08Apr2002                   
 POTCAR:    PAW_PBE Cr_pv 02Aug2007               
 POTCAR:    PAW_PBE C 08Apr2002                   
 POTCAR:    PAW_PBE O 08Apr2002                   
 POTCAR:    PAW_PBE C 08Apr2002                   
   SHA256 =  253f7b50bb8d59471dbedb8285d89021f4a42ed1a2c5d38a03a736e69125dd95 C/
   COPYR  = (c) Copyright 08Apr2002 Georg Kresse                                
   COPYR  = This file is part of the software VASP. Any use, copying, and all ot
   COPYR  = If you do not have a valid VASP license, you may not use, copy or di
   VRHFIN =C: s2p2                                                              
   LEXCH  = PE                                                                  
   EATOM  =   147.1560 eV,   10.8157 Ry                                         
                                                                                
   TITEL  = PAW_PBE C 08Apr2002                                                 
   LULTRA =        F    use ultrasoft PP ?                                      
   IUNSCR =        1    unscreen: 0-lin 1-nonlin 2-no                           
   RPACOR =    1.200    partial core radius                                     
   POMASS =   12.011; ZVAL   =    4.000    mass and valenz                      
   RCORE  =    1.500    outmost cutoff radius                                   
   RWIGS  =    1.630; RWIGS  =    0.863    wigner-seitz radius (au A)           
   ENMAX  =  400.000; ENMIN  =  300.000 eV                                      
   ICORE  =        2    local potential                                         
   LCOR   =        T    correct aug charges                                     
   LPAW   =        T    paw PP                                                  
   EAUG   =  644.873                                                            
   DEXC   =    0.000                                                            
   RMAX   =    1.529    core radius for proj-oper                               
   RAUG   =    1.300    factor for augmentation sphere                          
   RDEP   =    1.501    radius for radial grids                                 
   RDEPT  =    1.300    core radius for aug-charge                              
                                                                                
   Atomic configuration                                                         
    4 entries                                                                   
     n  l   j            E        occ.                                          
     1  0  0.50      -273.3789   2.0000                                         
     2  0  0.50       -13.7508   2.0000                                         
     2  1  0.50        -5.2854   2.0000                                         
     3  2  1.50        -5.4423   0.0000                                         
   Description                                                                  
     l       E           TYP  RCUT    TYP  RCUT                                 
     0    -13.7508458     23  1.200                                             
     0     -8.2022199     23  1.200                                             
     1     -5.2854383     23  1.500                                             
     1     34.0145650     23  1.500                                             
     2     -5.4423304      7  1.500                                             
  local pseudopotential read in
  partial core-charges read in
  partial kinetic energy density read in
  atomic valenz-charges read in
  non local Contribution for L=           0  read in
    real space projection operators read in
  non local Contribution for L=           0  read in
    real space projection operators read in
  non local Contribution for L=           1  read in
    real space projection operators read in
  non local Contribution for L=           1  read in
    real space projection operators read in
    PAW grid and wavefunctions read in
 
   number of l-projection  operators is LMAX  =           4
   number of lm-projection operators is LMMAX =           8
 
 POTCAR:    PAW_PBE N 08Apr2002                   
   SHA256 =  e053789ff3a61a86a1b75d8a110fcc91f86041011e7b0817c7c99e4e8a6349d7 N/
   COPYR  = (c) Copyright 08Apr2002 Georg Kresse                                
   COPYR  = This file is part of the software VASP. Any use, copying, and all ot
   COPYR  = If you do not have a valid VASP license, you may not use, copy or di
   VRHFIN =N: s2p3                                                              
   LEXCH  = PE                                                                  
   EATOM  =   264.5486 eV,   19.4438 Ry                                         
                                                                                
   TITEL  = PAW_PBE N 08Apr2002                                                 
   LULTRA =        F    use ultrasoft PP ?                                      
   IUNSCR =        1    unscreen: 0-lin 1-nonlin 2-no                           
   RPACOR =    1.200    partial core radius                                     
   POMASS =   14.001; ZVAL   =    5.000    mass and valenz                      
   RCORE  =    1.500    outmost cutoff radius                                   
   RWIGS  =    1.400; RWIGS  =    0.741    wigner-seitz radius (au A)           
   ENMAX  =  400.000; ENMIN  =  300.000 eV                                      
   ICORE  =        2    local potential                                         
   LCOR   =        T    correct aug charges                                     
   LPAW   =        T    paw PP                                                  
   EAUG   =  627.112                                                            
   DEXC   =    0.000                                                            
   RMAX   =    1.529    core radius for proj-oper                               
   RAUG   =    1.300    factor for augmentation sphere                          
   RDEP   =    1.514    radius for radial grids                                 
   RDEPT  =    1.338    core radius for aug-charge                              
                                                                                
   Atomic configuration                                                         
    4 entries                                                                   
     n  l   j            E        occ.                                          
     1  0  0.50      -384.7179   2.0000                                         
     2  0  0.50       -18.5828   2.0000                                         
     2  1  0.50        -7.0898   3.0000                                         
     3  2  1.50        -6.8029   0.0000                                         
   Description                                                                  
     l       E           TYP  RCUT    TYP  RCUT                                 
     0    -18.5828119     23  1.200                                             
     0    -13.5018863     23  1.200                                             
     1     -7.0897853     23  1.500                                             
     1      9.5240782     23  1.500                                             
     2     -6.8029130      7  1.500                                             
  local pseudopotential read in
  partial core-charges read in
  partial kinetic energy density read in
  atomic valenz-charges read in
  non local Contribution for L=           0  read in
    real space projection operators read in
  non local Contribution for L=           0  read in
    real space projection operators read in
  non local Contribution for L=           1  read in
    real space projection operators read in
  non local Contribution for L=           1  read in
    real space projection operators read in
    PAW grid and wavefunctions read in
 
   number of l-projection  operators is LMAX  =           4
   number of lm-projection operators is LMMAX =           8
 
 POTCAR:    PAW_PBE C 08Apr2002                   
   SHA256 =  253f7b50bb8d59471dbedb8285d89021f4a42ed1a2c5d38a03a736e69125dd95 C/
   COPYR  = (c) Copyright 08Apr2002 Georg Kresse                                
   COPYR  = This file is part of the software VASP. Any use, copying, and all ot
   COPYR  = If you do not have a valid VASP license, you may not use, copy or di
   VRHFIN =C: s2p2                                                              
   LEXCH  = PE                                                                  
   EATOM  =   147.1560 eV,   10.8157 Ry                                         
                                                                                
   TITEL  = PAW_PBE C 08Apr2002                                                 
   LULTRA =        F    use ultrasoft PP ?                                      
   IUNSCR =        1    unscreen: 0-lin 1-nonlin 2-no                           
   RPACOR =    1.200    partial core radius                                     
   POMASS =   12.011; ZVAL   =    4.000    mass and valenz                      
   RCORE  =    1.500    outmost cutoff radius                                   
   RWIGS  =    1.630; RWIGS  =    0.863    wigner-seitz radius (au A)           
   ENMAX  =  400.000; ENMIN  =  300.000 eV                                      
   ICORE  =        2    local potential                                         
   LCOR   =        T    correct aug charges                                     
   LPAW   =        T    paw PP                                                  
   EAUG   =  644.873                                                            
   DEXC   =    0.000                                                            
   RMAX   =    1.529    core radius for proj-oper                               
   RAUG   =    1.300    factor for augmentation sphere                          
   RDEP   =    1.501    radius for radial grids                                 
   RDEPT  =    1.300    core radius for aug-charge                              
                                                                                
   Atomic configuration                                                         
    4 entries                                                                   
     n  l   j            E        occ.                                          
     1  0  0.50      -273.3789   2.0000                                         
     2  0  0.50       -13.7508   2.0000                                         
     2  1  0.50        -5.2854   2.0000                                         
     3  2  1.50        -5.4423   0.0000                                         
   Description                                                                  
     l       E           TYP  RCUT    TYP  RCUT                                 
     0    -13.7508458     23  1.200                                             
     0     -8.2022199     23  1.200                                             
     1     -5.2854383     23  1.500                                             
     1     34.0145650     23  1.500                                             
     2     -5.4423304      7  1.500                                             
  local pseudopotential read in
  partial core-charges read in
  partial kinetic energy density read in
  atomic valenz-charges read in
  non local Contribution for L=           0  read in
    real space projection operators read in
  non local Contribution for L=           0  read in
    real space projection operators read in
  non local Contribution for L=           1  read in
    real space projection operators read in
  non local Contribution for L=           1  read in
    real space projection operators read in
    PAW grid and wavefunctions read in
 
   number of l-projection  operators is LMAX  =           4
   number of lm-projection operators is LMMAX =           8
 
 POTCAR:    PAW_PBE Cr_pv 02Aug2007               
   SHA256 =  c9a7df34d3cdbacf1090e328ef39c0b420964e11c23f63548d1ac9dd218cdba0 Cr
   COPYR  = (c) Copyright 02Aug2007 Georg Kresse                                
   COPYR  = This file is part of the software VASP. Any use, copying, and all ot
   COPYR  = If you do not have a valid VASP license, you may not use, copy or di
   VRHFIN =Cr : p6d5s1                                                          
   LEXCH  = PE                                                                  
   EATOM  =  1647.9177 eV,  121.1185 Ry                                         
                                                                                
   TITEL  = PAW_PBE Cr_pv 02Aug2007                                             
   LULTRA =        F    use ultrasoft PP ?                                      
   IUNSCR =        1    unscreen: 0-lin 1-nonlin 2-no                           
   RPACOR =    2.080    partial core radius                                     
   POMASS =   51.996; ZVAL   =   12.000    mass and valenz                      
   RCORE  =    2.300    outmost cutoff radius                                   
   RWIGS  =    2.500; RWIGS  =    1.323    wigner-seitz radius (au A)           
   ENMAX  =  265.681; ENMIN  =  199.261 eV                                      
   ICORE  =        3    local potential                                         
   LCOR   =        T    correct aug charges                                     
   LPAW   =        T    paw PP                                                  
   EAUG   =  519.424                                                            
   DEXC   =    0.000                                                            
   RMAX   =    2.356    core radius for proj-oper                               
   RAUG   =    1.300    factor for augmentation sphere                          
   RDEP   =    2.447    radius for radial grids                                 
   RDEPT  =    1.882    core radius for aug-charge                              
                                                                                
   Atomic configuration                                                         
    8 entries                                                                   
     n  l   j            E        occ.                                          
     1  0  0.50     -5880.4963   2.0000                                         
     2  0  0.50      -667.0865   2.0000                                         
     2  1  1.50      -560.6250   6.0000                                         
     3  0  0.50       -73.9860   2.0000                                         
     3  1  1.50       -45.4378   6.0000                                         
     3  2  2.50        -2.9137   5.0000                                         
     4  0  0.50        -4.0071   1.0000                                         
     4  3  2.50        -1.3606   0.0000                                         
   Description                                                                  
     l       E           TYP  RCUT    TYP  RCUT                                 
     1    -45.4377911     23  2.000                                             
     1      1.3605826     23  2.000                                             
     2     -2.9136672     23  2.300                                             
     2     -4.2742498     23  2.300                                             
     0     -4.0071320     23  2.300                                             
     0      9.4498803     23  2.300                                             
     3      2.7211652     23  2.300                                             
  local pseudopotential read in
  partial core-charges read in
  partial kinetic energy density read in
  atomic valenz-charges read in
  non local Contribution for L=           1  read in
    real space projection operators read in
  non local Contribution for L=           1  read in
    real space projection operators read in
  non local Contribution for L=           2  read in
    real space projection operators read in
  non local Contribution for L=           2  read in
    real space projection operators read in
  non local Contribution for L=           0  read in
    real space projection operators read in
  non local Contribution for L=           0  read in
    real space projection operators read in
    PAW grid and wavefunctions read in
 
   number of l-projection  operators is LMAX  =           6
   number of lm-projection operators is LMMAX =          18
 
 POTCAR:    PAW_PBE C 08Apr2002                   
   SHA256 =  253f7b50bb8d59471dbedb8285d89021f4a42ed1a2c5d38a03a736e69125dd95 C/
   COPYR  = (c) Copyright 08Apr2002 Georg Kresse                                
   COPYR  = This file is part of the software VASP. Any use, copying, and all ot
   COPYR  = If you do not have a valid VASP license, you may not use, copy or di
   VRHFIN =C: s2p2                                                              
   LEXCH  = PE                                                                  
   EATOM  =   147.1560 eV,   10.8157 Ry                                         
                                                                                
   TITEL  = PAW_PBE C 08Apr2002                                                 
   LULTRA =        F    use ultrasoft PP ?                                      
   IUNSCR =        1    unscreen: 0-lin 1-nonlin 2-no                           
   RPACOR =    1.200    partial core radius                                     
   POMASS =   12.011; ZVAL   =    4.000    mass and valenz                      
   RCORE  =    1.500    outmost cutoff radius                                   
   RWIGS  =    1.630; RWIGS  =    0.863    wigner-seitz radius (au A)           
   ENMAX  =  400.000; ENMIN  =  300.000 eV                                      
   ICORE  =        2    local potential                                         
   LCOR   =        T    correct aug charges                                     
   LPAW   =        T    paw PP                                                  
   EAUG   =  644.873                                                            
   DEXC   =    0.000                                                            
   RMAX   =    1.529    core radius for proj-oper                               
   RAUG   =    1.300    factor for augmentation sphere                          
   RDEP   =    1.501    radius for radial grids                                 
   RDEPT  =    1.300    core radius for aug-charge                              
                                                                                
   Atomic configuration                                                         
    4 entries                                                                   
     n  l   j            E        occ.                                          
     1  0  0.50      -273.3789   2.0000                                         
     2  0  0.50       -13.7508   2.0000                                         
     2  1  0.50        -5.2854   2.0000                                         
     3  2  1.50        -5.4423   0.0000                                         
   Description                                                                  
     l       E           TYP  RCUT    TYP  RCUT                                 
     0    -13.7508458     23  1.200                                             
     0     -8.2022199     23  1.200                                             
     1     -5.2854383     23  1.500                                             
     1     34.0145650     23  1.500                                             
     2     -5.4423304      7  1.500                                             
  local pseudopotential read in
  partial core-charges read in
  partial kinetic energy density read in
  atomic valenz-charges read in
  non local Contribution for L=           0  read in
    real space projection operators read in
  non local Contribution for L=           0  read in
    real space projection operators read in
  non local Contribution for L=           1  read in
    real space projection operators read in
  non local Contribution for L=           1  read in
    real space projection operators read in
    PAW grid and wavefunctions read in
 
   number of l-projection  operators is LMAX  =           4
   number of lm-projection operators is LMMAX =           8
 
 POTCAR:    PAW_PBE O 08Apr2002                   
   SHA256 =  818f92134a0a090dccd8ba1447fa70422a3b330e708bb4f08108d8ae51209ddf O/
   COPYR  = (c) Copyright 08Apr2002 Georg Kresse                                
   COPYR  = This file is part of the software VASP. Any use, copying, and all ot
   COPYR  = If you do not have a valid VASP license, you may not use, copy or di
   VRHFIN =O: s2p4                                                              
   LEXCH  = PE                                                                  
   EATOM  =   432.3788 eV,   31.7789 Ry                                         
                                                                                
   TITEL  = PAW_PBE O 08Apr2002                                                 
   LULTRA =        F    use ultrasoft PP ?                                      
   IUNSCR =        1    unscreen: 0-lin 1-nonlin 2-no                           
   RPACOR =    1.200    partial core radius                                     
   POMASS =   16.000; ZVAL   =    6.000    mass and valenz                      
   RCORE  =    1.520    outmost cutoff radius                                   
   RWIGS  =    1.550; RWIGS  =    0.820    wigner-seitz radius (au A)           
   ENMAX  =  400.000; ENMIN  =  300.000 eV                                      
   ICORE  =        2    local potential                                         
   LCOR   =        T    correct aug charges                                     
   LPAW   =        T    paw PP                                                  
   EAUG   =  605.392                                                            
   DEXC   =    0.000                                                            
   RMAX   =    1.553    core radius for proj-oper                               
   RAUG   =    1.300    factor for augmentation sphere                          
   RDEP   =    1.550    radius for radial grids                                 
   RDEPT  =    1.329    core radius for aug-charge                              
                                                                                
   Atomic configuration                                                         
    4 entries                                                                   
     n  l   j            E        occ.                                          
     1  0  0.50      -514.6923   2.0000                                         
     2  0  0.50       -23.9615   2.0000                                         
     2  1  0.50        -9.0305   4.0000                                         
     3  2  1.50        -9.5241   0.0000                                         
   Description                                                                  
     l       E           TYP  RCUT    TYP  RCUT                                 
     0    -23.9615318     23  1.200                                             
     0     -9.5240782     23  1.200                                             
     1     -9.0304911     23  1.520                                             
     1      8.1634956     23  1.520                                             
     2     -9.5240782      7  1.500                                             
  local pseudopotential read in
  partial core-charges read in
  partial kinetic energy density read in
  kinetic energy density of atom read in
  atomic valenz-charges read in
  non local Contribution for L=           0  read in
    real space projection operators read in
  non local Contribution for L=           0  read in
    real space projection operators read in
  non local Contribution for L=           1  read in
    real space projection operators read in
  non local Contribution for L=           1  read in
    real space projection operators read in
    PAW grid and wavefunctions read in
 
   number of l-projection  operators is LMAX  =           4
   number of lm-projection operators is LMMAX =           8
 

 ----------------------------------------------------------------------------- 
|                                                                             |
|  ADVICE TO THIS USER RUNNING 'VASP/VAMP'   (HEAR YOUR MASTER'S VOICE ...):  |
|                                                                             |
|      You have a (more or less) 'large supercell' and for larger cells       |
|      it might be more efficient to use real space projection opertators     |
|      So try LREAL= Auto  in the INCAR   file.                               |
|      Mind:          For very  accurate calculation you might also keep the  |
|      reciprocal projection scheme          (i.e. LREAL=.FALSE.)             |
|                                                                             |
 ----------------------------------------------------------------------------- 

  PAW_PBE C 08Apr2002                   :
 energy of atom  1       EATOM= -147.1560
 kinetic energy error for atom=    0.0132 (will be added to EATOM!!)
  PAW_PBE N 08Apr2002                   :
 energy of atom  2       EATOM= -264.5486
 kinetic energy error for atom=    0.0298 (will be added to EATOM!!)
  PAW_PBE C 08Apr2002                   :
 energy of atom  3       EATOM= -147.1560
 kinetic energy error for atom=    0.0132 (will be added to EATOM!!)
  PAW_PBE Cr_pv 02Aug2007               :
 energy of atom  4       EATOM=-1647.9177
 kinetic energy error for atom=    0.0134 (will be added to EATOM!!)
  PAW_PBE C 08Apr2002                   :
 energy of atom  5       EATOM= -147.1560
 kinetic energy error for atom=    0.0132 (will be added to EATOM!!)
  PAW_PBE O 08Apr2002                   :
 energy of atom  6       EATOM= -432.3788
 kinetic energy error for atom=    0.0458 (will be added to EATOM!!)
 
 
 POSCAR: POSCAR-clean                            
  positions in cartesian coordinates
  No initial velocities read in
 exchange correlation table for  LEXCH =        8
   RHO(1)=    0.500       N(1)  =     2000
   RHO(2)=  100.500       N(2)  =     4000

 VTST: version 3.2, (02/03/18)

 CHAIN: initializing optimizer
 
 OPT: Using VASP Dynamics algorithm
 CHAIN: Read ICHAIN            0
 
 POSCAR: POSCAR-clean                            
  positions in cartesian coordinates
  No initial velocities read in
 


--------------------------------------------------------------------------------------------------------


 ion  position               nearest neighbor table
   1  0.000  1.000  0.484-  60 1.42   2 1.42  70 1.43
   2  0.056  0.112  0.484-  13 1.42   1 1.42  15 1.43
   3  0.169  0.003  0.483-  62 1.42   4 1.43  60 1.43
   4  0.225  0.114  0.484-  17 1.42  15 1.43   3 1.43
   5  0.334  0.003  0.484-  62 1.42   6 1.43  64 1.43
   6  0.390  0.114  0.485-  17 1.42  19 1.43   5 1.43
   7  0.500  1.000  0.484-  64 1.42   8 1.42  66 1.43
   8  0.556  0.112  0.484-  21 1.42   7 1.42  19 1.43
   9  0.666  0.998  0.484-  10 1.42  66 1.43  68 1.43
  10  0.722  0.109  0.483-   9 1.42  23 1.42  21 1.43
  11  0.832  0.998  0.484-  12 1.42  70 1.43  68 1.43
  12  0.888  0.109  0.484-  11 1.42  23 1.42  13 1.43
  13  1.000  0.166  0.484-  14 1.42   2 1.42  12 1.43
  14  0.055  0.277  0.484-  13 1.42  27 1.43  25 1.43
  15  0.168  0.168  0.484-  16 1.42   4 1.43   2 1.43
  16  0.224  0.280  0.486-  15 1.42  27 1.43  29 1.45
  17  0.336  0.171  0.486-  18 1.41   4 1.42   6 1.42
  18  0.391  0.281  0.488-  17 1.41  29 1.42  31 1.42
  19  0.501  0.168  0.484-  20 1.42   6 1.43   8 1.43
  20  0.556  0.280  0.486-  19 1.42  33 1.43  31 1.45
  21  0.667  0.166  0.483-  22 1.42   8 1.42  10 1.43
  22  0.722  0.277  0.484-  21 1.42  33 1.43  35 1.43
  23  0.833  0.165  0.484-  24 1.42  10 1.42  12 1.42
  24  0.888  0.277  0.484-  23 1.42  35 1.42  25 1.42
  25  0.999  0.332  0.484-  26 1.42  24 1.42  14 1.43
  26  0.055  0.444  0.485-  39 1.42  37 1.42  25 1.42
  27  0.166  0.333  0.486-  28 1.41  16 1.43  14 1.43
  28  0.220  0.444  0.488-  41 1.41  27 1.41  39 1.42
  29  0.337  0.338  0.489-  30 1.41  18 1.42  16 1.45
  30  0.390  0.448  0.495-  29 1.41  41 1.42  71 1.99
  31  0.502  0.338  0.489-  32 1.41  18 1.42  20 1.45
  32  0.559  0.448  0.495-  31 1.41  43 1.42  71 1.99
  33  0.667  0.333  0.486-  34 1.42  20 1.43  22 1.43
  34  0.724  0.444  0.487-  43 1.41  33 1.42  45 1.42
  35  0.833  0.332  0.484-  36 1.42  24 1.42  22 1.43
  36  0.889  0.444  0.484-  45 1.42  37 1.42  35 1.42
  37  1.000  0.500  0.484-  36 1.42  26 1.42  38 1.42
  38  0.056  0.611  0.484-  47 1.42  49 1.42  37 1.42
  39  0.165  0.500  0.486-  26 1.42  40 1.42  28 1.42
  40  0.221  0.611  0.486-  51 1.42  39 1.42  49 1.42
  41  0.330  0.499  0.491-  28 1.41  30 1.42  42 1.43
  42  0.385  0.611  0.491-  53 1.41  51 1.41  41 1.43
  43  0.669  0.499  0.491-  34 1.41  32 1.42  44 1.43
  44  0.726  0.611  0.491-  55 1.41  57 1.41  43 1.43
  45  0.835  0.500  0.486-  36 1.42  46 1.42  34 1.42
  46  0.891  0.611  0.486-  57 1.42  45 1.42  47 1.42
  47  0.001  0.667  0.484-  38 1.42  46 1.42  48 1.42
  48  0.057  0.779  0.484-  47 1.42  61 1.42  59 1.43
  49  0.166  0.667  0.485-  38 1.42  40 1.42  50 1.42
  50  0.222  0.779  0.484-  49 1.42  61 1.42  63 1.43
  51  0.331  0.667  0.488-  42 1.41  40 1.42  52 1.42
  52  0.388  0.778  0.486-  51 1.42  65 1.42  63 1.43
  53  0.495  0.662  0.495-  42 1.41  54 1.42  71 1.99
  54  0.553  0.773  0.489-  53 1.42  67 1.43  65 1.45
  55  0.667  0.662  0.495-  44 1.41  56 1.42  71 1.99
  56  0.720  0.773  0.489-  55 1.42  67 1.43  69 1.45
  57  0.836  0.667  0.487-  44 1.41  46 1.42  58 1.42
  58  0.890  0.778  0.486-  57 1.42  69 1.42  59 1.43
  59  0.001  0.835  0.484-  60 1.42  48 1.43  58 1.43
  60  0.057  0.946  0.483-  59 1.42   1 1.42   3 1.43
  61  0.168  0.835  0.484-  48 1.42  50 1.42  62 1.42
  62  0.223  0.947  0.484-   5 1.42   3 1.42  61 1.42
  63  0.333  0.835  0.484-  64 1.42  50 1.43  52 1.43
  64  0.389  0.946  0.484-  63 1.42   7 1.42   5 1.43
  65  0.499  0.831  0.486-  52 1.42  66 1.42  54 1.45
  66  0.555  0.943  0.484-  65 1.42   9 1.43   7 1.43
  67  0.665  0.830  0.488-  68 1.42  54 1.43  56 1.43
  68  0.721  0.941  0.485-  67 1.42  11 1.43   9 1.43
  69  0.833  0.831  0.486-  58 1.42  70 1.42  56 1.45
  70  0.889  0.943  0.484-  69 1.42  11 1.43   1 1.43
  71  0.528  0.556  0.542-  53 1.99  55 1.99  30 1.99  32 1.99
  72  0.528  0.556  0.941-  73 1.16
  73  0.478  0.499  0.997-  72 1.16
 

IMPORTANT INFORMATION: All symmetrisations will be switched off!
NOSYMM: (Re-)initialisation of all symmetry stuff for point group C_1.

 
 
 KPOINTS: K-Points                                

Automatic generation of k-mesh.
Space group operators:
 irot       det(A)        alpha          n_x          n_y          n_z        tau_x        tau_y        tau_z
    1     1.000000     0.000000     1.000000     0.000000     0.000000     0.000000     0.000000     0.000000
 
 Subroutine IBZKPT returns following result:
 ===========================================
 
 Found      5 irreducible k-points:
 
 Following reciprocal coordinates:
            Coordinates               Weight
  0.000000  0.000000  0.000000      1.000000
  0.333333 -0.000000  0.000000      2.000000
  0.000000  0.333333  0.000000      2.000000
  0.333333  0.333333  0.000000      2.000000
 -0.333333  0.333333  0.000000      2.000000
 
 Following cartesian coordinates:
            Coordinates               Weight
  0.000000  0.000000  0.000000      1.000000
  0.022450  0.013075  0.000000      2.000000
  0.000000  0.026149  0.000000      2.000000
  0.022450  0.039224  0.000000      2.000000
 -0.022450  0.013075  0.000000      2.000000
 
 TETIRR: Found     24 inequivalent tetrahedra from       54


--------------------------------------------------------------------------------------------------------




 Dimension of arrays:
   k-points           NKPTS =      5   k-points in BZ     NKDIM =      5   number of bands    NBANDS=    192
   number of dos      NEDOS =   4000   number of ions     NIONS =     73
   non local maximal  LDIM  =      6   non local SUM 2l+1 LMDIM =     18
   total plane-waves  NPLWV = 512000
   max r-space proj   IRMAX =      1   max aug-charges    IRDMAX=   6474
   dimension x,y,z NGX =    80 NGY =   80 NGZ =   80
   dimension x,y,z NGXF=   160 NGYF=  160 NGZF=  160
   support grid    NGXF=   160 NGYF=  160 NGZF=  160
   ions per type =              17   1  52   1   1   1
   NGX,Y,Z   is equivalent  to a cutoff of   8.96,  9.02,  8.87 a.u.
   NGXF,Y,Z  is equivalent  to a cutoff of  17.91, 18.03, 17.73 a.u.

 SYSTEM =  unknown system                          
 POSCAR =  POSCAR-clean                            

 Startparameter for this run:
   NWRITE =      2    write-flag & timer
   PREC   = normal    normal or accurate (medium, high low for compatibility)
   ISTART =      0    job   : 0-new  1-cont  2-samecut
   ICHARG =      2    charge: 1-file 2-atom 10-const
   ISPIN  =      2    spin polarized calculation?
   LNONCOLLINEAR =      F non collinear calculations
   LSORBIT =      F    spin-orbit coupling
   INIWAV =      1    electr: 0-lowe 1-rand  2-diag
   LASPH  =      F    aspherical Exc in radial PAW
   METAGGA=      F    non-selfconsistent MetaGGA calc.

 Electronic Relaxation 1
   ENCUT  =  440.0 eV  32.34 Ry    5.69 a.u.  25.40 25.23 25.66*2*pi/ulx,y,z
   ENINI  =  440.0     initial cutoff
   ENAUG  =  644.9 eV  augmentation charge cutoff
   NELM   =    100;   NELMIN=  2; NELMDL= -5     # of ELM steps 
   EDIFF  = 0.1E-03   stopping-criterion for ELM
   LREAL  =      F    real-space projection
   NLSPLINE    = F    spline interpolate recip. space projectors
   LCOMPAT=      F    compatible to vasp.4.4
   GGA_COMPAT  = T    GGA compatible to vasp.4.4-vasp.4.6
   LMAXPAW     = -100 max onsite density
   LMAXMIX     =    2 max onsite mixed and CHGCAR
   VOSKOWN=      0    Vosko Wilk Nusair interpolation
   ROPT   =    0.00000   0.00000   0.00000   0.00000
   ROPT   =    0.00000   0.00000
 Ionic relaxation
   EDIFFG = -.1E-01   stopping-criterion for IOM
   NSW    =      0    number of steps for IOM
   NBLOCK =      1;   KBLOCK =      1    inner block; outer block 
   IBRION =     -1    ionic relax: 0-MD 1-quasi-New 2-CG
   NFREE  =      0    steps in history (QN), initial steepest desc. (CG)
   ISIF   =      2    stress and relaxation
   IWAVPR =     10    prediction:  0-non 1-charg 2-wave 3-comb
   ISYM   =      0    0-nonsym 1-usesym 2-fastsym
   LCORR  =      T    Harris-Foulkes like correction to forces

   POTIM  = 0.5000    time-step for ionic-motion
   TEIN   =    0.0    initial temperature
   TEBEG  =    0.0;   TEEND  =   0.0 temperature during run
   SMASS  =  -3.00    Nose mass-parameter (am)
   estimated Nose-frequenzy (Omega)   =  0.10E-29 period in steps =****** mass=  -0.504E-26a.u.
   SCALEE = 1.0000    scale energy and forces
   NPACO  =    256;   APACO  = 16.0  distance and # of slots for P.C.
   PSTRESS=    0.0 pullay stress

  Mass of Ions in am
   POMASS =  12.01 14.00 12.01 52.00 12.01 16.00
  Ionic Valenz
   ZVAL   =   4.00  5.00  4.00 12.00  4.00  6.00
  Atomic Wigner-Seitz radii
   RWIGS  =  -1.00 -1.00 -1.00 -1.00 -1.00 -1.00
  virtual crystal weights 
   VCA    =   1.00  1.00  1.00  1.00  1.00  1.00
   NELECT =     303.0000    total number of electrons
   NUPDOWN=      -1.0000    fix difference up-down

 DOS related values:
   EMIN   = -14.00;   EMAX   =  6.00  energy-range for DOS
   EFERMI =   0.00
   ISMEAR =    -5;   SIGMA  =   0.20  broadening in eV -4-tet -1-fermi 0-gaus

 Electronic relaxation 2 (details)
   IALGO  =     38    algorithm
   LDIAG  =      T    sub-space diagonalisation (order eigenvalues)
   LSUBROT=      F    optimize rotation matrix (better conditioning)
   TURBO    =      0    0=normal 1=particle mesh
   IRESTART =      0    0=no restart 2=restart with 2 vectors
   NREBOOT  =      0    no. of reboots
   NMIN     =      0    reboot dimension
   EREF     =   0.00    reference energy to select bands
   IMIX   =      4    mixing-type and parameters
     AMIX     =   0.25;   BMIX     =  0.00
     AMIX_MAG =   1.00;   BMIX_MAG =  0.00
     AMIN     =   0.10
     WC   =   100.;   INIMIX=   1;  MIXPRE=   1;  MAXMIX= -45

 Intra band minimization:
   WEIMIN = 0.0000     energy-eigenvalue tresh-hold
   EBREAK =  0.13E-06  absolut break condition
   DEPER  =   0.30     relativ break condition  

   TIME   =   0.40     timestep for ELM

  volume/ion in A,a.u.               =      38.89       262.46
  Fermi-wavevector in a.u.,A,eV,Ry     =   0.776536  1.467440  8.204419  0.603008
  Thomas-Fermi vector in A             =   1.879034
 
 Write flags
   LWAVE        =      F    write WAVECAR
   LDOWNSAMPLE  =      F    k-point downsampling of WAVECAR
   LCHARG       =      F    write CHGCAR
   LVTOT        =      F    write LOCPOT, total local potential
   LVHAR        =      F    write LOCPOT, Hartree potential only
   LELF         =      F    write electronic localiz. function (ELF)
   LORBIT       =     11    0 simple, 1 ext, 2 COOP (PROOUT), +10 PAW based schemes


 Dipole corrections
   LMONO  =      F    monopole corrections only (constant potential shift)
   LDIPOL =      F    correct potential (dipole corrections)
   IDIPOL =      0    1-x, 2-y, 3-z, 4-all directions 
   EPSILON=  1.0000000 bulk dielectric constant

 Exchange correlation treatment:
   GGA     =    --    GGA type
   LEXCH   =     8    internal setting for exchange type
   VOSKOWN=      0    Vosko Wilk Nusair interpolation
   LHFCALC =     F    Hartree Fock is set to
   LHFONE  =     F    Hartree Fock one center treatment
   AEXX    =    0.0000 exact exchange contribution

 Linear response parameters
   LEPSILON=     F    determine dielectric tensor
   LRPA    =     F    only Hartree local field effects (RPA)
   LNABLA  =     F    use nabla operator in PAW spheres
   LVEL    =     F    velocity operator in full k-point grid
   LINTERFAST=   F  fast interpolation
   KINTER  =     0    interpolate to denser k-point grid
   CSHIFT  =0.1000    complex shift for real part using Kramers Kronig
   OMEGAMAX=  -1.0    maximum frequency
   DEG_THRESHOLD= 0.2000000E-02 threshold for treating states as degnerate
   RTIME   =   -0.100 relaxation time in fs
  (WPLASMAI=    0.000 imaginary part of plasma frequency in eV, 0.658/RTIME)
   DFIELD  = 0.0000000 0.0000000 0.0000000 field for delta impulse in time
 
 Orbital magnetization related:
   ORBITALMAG=     F  switch on orbital magnetization
   LCHIMAG   =     F  perturbation theory with respect to B field
   DQ        =  0.001000  dq finite difference perturbation B field
   LLRAUG    =     F  two centre corrections for induced B field



--------------------------------------------------------------------------------------------------------


 Static calculation
 charge density and potential will be updated during run
 spin polarized calculation
 Variant of blocked Davidson
 Davidson routine will perform the subspace rotation
 perform sub-space diagonalisation
    after iterative eigenvector-optimisation
 modified Broyden-mixing scheme, WC =      100.0
 initial mixing is a Kerker type mixing with AMIX =  0.2500 and BMIX =      0.0001
 Hartree-type preconditioning will be used
 using additional bands           40
 reciprocal scheme for non local part
 use partial core corrections
 calculate Harris-corrections to forces 
   (improved forces if not selfconsistent)
 use gradient corrections 
 use of overlap-Matrix (Vanderbilt PP)
 Fermi weights with tetrahedron method with Bloechl corrections


--------------------------------------------------------------------------------------------------------


  energy-cutoff  :      440.00
  volume of cell :     2839.11
      direct lattice vectors                 reciprocal lattice vectors
    14.848061936 -0.000035172  0.000000000     0.067348950  0.039223679  0.000000000
    -7.424030968 12.747419585  0.000000000     0.000000186  0.078447357  0.000000000
     0.000000000  0.000000000 15.000000000     0.000000000  0.000000000  0.066666667

  length of vectors
    14.848061936 14.751709796 15.000000000     0.077938296  0.078447357  0.066666667


 
 k-points in units of 2pi/SCALE and weight: K-Points                                
   0.00000000  0.00000000  0.00000000       0.111
   0.02244965  0.01307456  0.00000000       0.222
   0.00000006  0.02614912  0.00000000       0.222
   0.02244971  0.03922368  0.00000000       0.222
  -0.02244959  0.01307456  0.00000000       0.222
 
 k-points in reciprocal lattice and weights: K-Points                                
   0.00000000  0.00000000  0.00000000       0.111
   0.33333333 -0.00000000  0.00000000       0.222
   0.00000000  0.33333333  0.00000000       0.222
   0.33333333  0.33333333  0.00000000       0.222
  -0.33333333  0.33333333  0.00000000       0.222
 
 position of ions in fractional coordinates (direct lattice) 
   0.00019158  0.99984579  0.48355699
   0.05617278  0.11160649  0.48363085
   0.16872809  0.00257188  0.48346438
   0.22460677  0.11440939  0.48437688
   0.33408497  0.00256076  0.48365356
   0.39004727  0.11439675  0.48450197
   0.49989333  0.99982744  0.48364237
   0.55567165  0.11158760  0.48356234
   0.66588096  0.99797627  0.48417021
   0.72161561  0.10935448  0.48342187
   0.83235461  0.99798825  0.48428619
   0.88799321  0.10936364  0.48361105
   0.99954344  0.16582240  0.48370009
   0.05509421  0.27683779  0.48441774
   0.16753918  0.16840917  0.48434938
   0.22393644  0.27953199  0.48582548
   0.33558850  0.17092313  0.48569305
   0.39087980  0.28149350  0.48840839
   0.50111223  0.16839353  0.48438378
   0.55584530  0.27952564  0.48576802
   0.66651769  0.16580834  0.48341826
   0.72198014  0.27682541  0.48397957
   0.83265413  0.16506408  0.48350473
   0.88840006  0.27655933  0.48365400
   0.99937161  0.33239089  0.48421159
   0.05462162  0.44378464  0.48463267
   0.16626998  0.33298458  0.48592246
   0.22000151  0.44394541  0.48768327
   0.33671504  0.33797031  0.48891627
   0.38958852  0.44801967  0.49504042
   0.50153392  0.33799300  0.48902559
   0.55871281  0.44804934  0.49530453
   0.66695626  0.33297579  0.48556261
   0.72417672  0.44394366  0.48720768
   0.83325467  0.33238551  0.48383263
   0.88939421  0.44378323  0.48415560
   0.99998274  0.49973509  0.48416364
   0.05580276  0.61137628  0.48411575
   0.16509445  0.49983029  0.48622091
   0.22057715  0.61107916  0.48627778
   0.32953866  0.49875267  0.49101927
   0.38536856  0.61089391  0.49117345
   0.66947560  0.49875371  0.49096503
   0.72578828  0.61089280  0.49111830
   0.83496675  0.49983125  0.48551039
   0.89073045  0.61107701  0.48556709
   0.00130401  0.66741043  0.48411040
   0.05677141  0.77889625  0.48379708
   0.16633554  0.66740739  0.48459600
   0.22235704  0.77888972  0.48418161
   0.33106883  0.66676717  0.48791303
   0.38807424  0.77807312  0.48601243
   0.49529425  0.66203216  0.49514822
   0.55321152  0.77292906  0.48915850
   0.66698711  0.66199654  0.49541101
   0.71996891  0.77290433  0.48928885
   0.83593460  0.66676928  0.48743949
   0.89024849  0.77808289  0.48565604
   0.00140675  0.83459622  0.48393653
   0.05703835  0.94594673  0.48340272
   0.16755238  0.83486827  0.48363759
   0.22343732  0.94663312  0.48351064
   0.33342311  0.83458306  0.48437346
   0.38914607  0.94593063  0.48368823
   0.49889526  0.83129336  0.48593474
   0.55467355  0.94296281  0.48429391
   0.66498551  0.82970385  0.48839345
   0.72073249  0.94120579  0.48535323
   0.83265064  0.83129665  0.48589296
   0.88854737  0.94297517  0.48431961
   0.52792116  0.55593464  0.54208435
   0.52792116  0.55593464  0.94075101
   0.47783094  0.49899406  0.99710683
 
 position of ions in cartesian coordinates  (Angst):
  -7.42004155 12.74545376  7.25335491
   0.00548690  1.42269276  7.25446280
   2.48619134  0.03277892  7.25196563
   2.48559641  1.45841665  7.26565326
   4.94150314  0.03263133  7.25480341
   4.94216091  1.45824969  7.26752949
  -0.00030270 12.74520232  7.25463559
   7.42221733  1.42243438  7.25343504
   2.47803509 12.72159879  7.26255315
   9.90274216  1.39396205  7.25132809
   4.94975722 12.72174564  7.26429278
  12.37305909  1.39407296  7.25416575
  13.61021219  2.11377261  7.25550129
  -1.23721010  3.52896550  7.26626611
   1.23735723  2.14677642  7.26524072
   1.24976797  3.56330372  7.28738223
   3.71390017  2.17881704  7.28539577
   3.71399104  3.58830200  7.32612582
   6.19038670  2.14656533  7.26575670
   6.17801837  3.56321112  7.28652035
   8.66552971  2.11360504  7.25127390
   8.66484541  3.52878428  7.25969354
  11.13785929  2.10411186  7.25257094
  11.13783409  3.52538663  7.25480999
  12.37105131  4.23709098  7.26317388
  -2.48364567  5.65710703  7.26949009
  -0.00330089  4.24468835  7.28883690
  -0.02926836  5.65915069  7.31524900
   2.49046363  4.30823754  7.33374400
   2.45852258  5.71108100  7.42560629
   4.93753623  4.30852101  7.33538383
   4.96947022  5.71145327  7.42956789
   7.43098527  4.24455869  7.28343922
   7.45676927  5.65911070  7.30811515
   9.90457659  4.23702820  7.25748942
   9.91111992  5.65705970  7.26233401
  11.13775694  6.37029772  7.26245461
  -3.71031365  7.79346806  7.26173628
  -1.25942284  6.37154057  7.29331370
  -1.26152744  7.78967475  7.29416666
   1.19025522  6.35779799  7.36528908
   1.18668101  7.78730739  7.36760168
   6.23765224  6.35779928  7.36447546
   6.24126224  7.78728126  7.36677453
   8.68687539  6.37152932  7.28265579
   8.68896627  7.78962375  7.28350636
  -4.93551359  8.50776070  7.26165601
  -4.93960440  9.92891532  7.25695616
  -2.48509280  8.50771620  7.26893993
  -2.48093025  9.92882623  7.26272419
  -0.03436960  8.49954929  7.31869542
  -0.01428855  9.91841089  7.29018647
   2.43921239  8.43918428  7.42722331
   2.47586964  9.85283160  7.33737753
   4.98878302  8.43872422  7.43116515
   4.95207728  9.85251049  7.33933274
   7.46189290  8.49955840  7.31159235
   7.44195320  9.91851774  7.28484060
  -6.17518058 10.63894810  7.25904802
  -6.17582881 12.05837787  7.25104076
  -3.71025973 10.64241019  7.25456392
  -3.71022246 12.06712173  7.25265963
  -1.24528353 10.63876874  7.26560195
  -1.24455340 12.05816097  7.25532351
   1.23608006 10.59682777  7.28902104
   1.23524220 12.02032304  7.26440862
   3.71399906 10.57655967  7.32590178
   3.71393974 11.99791979  7.28029852
   6.19167617 10.59685789  7.28839434
   6.19252953 12.02046892  7.26479419
   3.71133004  7.08671353  8.13126520
   3.71133004  7.08671353 14.11126520
   3.39031610  6.36086984 14.95660238
 


--------------------------------------------------------------------------------------------------------


 k-point  1 :   0.0000 0.0000 0.0000  plane waves:   59493
 k-point  2 :   0.3333-0.0000 0.0000  plane waves:   59471
 k-point  3 :   0.0000 0.3333 0.0000  plane waves:   59532
 k-point  4 :   0.3333 0.3333 0.0000  plane waves:   59542
 k-point  5 :  -0.3333 0.3333 0.0000  plane waves:   59471

 maximum and minimum number of plane-waves per node :      4982     4935

 maximum number of plane-waves:     59542
 maximum index in each direction: 
   IXMAX=   25   IYMAX=   25   IZMAX=   25
   IXMIN=  -25   IYMIN=  -25   IZMIN=  -25


 parallel 3D FFT for wavefunctions:
    minimum data exchange during FFTs selected (reduces bandwidth)
 parallel 3D FFT for charge:
    minimum data exchange during FFTs selected (reduces bandwidth)


 total amount of memory used by VASP MPI-rank0   115989. kBytes
=======================================================================

   base      :      30000. kBytes
   nonl-proj :      27264. kBytes
   fftplans  :       4700. kBytes
   grid      :      15193. kBytes
   one-center:        217. kBytes
   wavefun   :      38615. kBytes
 
     INWAV:  cpu time    0.0000: real time    0.0001
 Broyden mixing: mesh for mixing (old mesh)
   NGX = 51   NGY = 51   NGZ = 51
  (NGX  =160   NGY  =160   NGZ  =160)
  gives a total of 132651 points

 initial charge density was supplied:
 charge density of overlapping atoms calculated
 number of electron     303.0000000 magnetization       2.0000000
 keeping initial charge density in first step


--------------------------------------------------------------------------------------------------------


 Maximum index for augmentation-charges          178 (set IRDMAX)


--------------------------------------------------------------------------------------------------------


 First call to EWALD:  gamma=   0.125
 Maximum number of real-space cells 3x 3x 3
 Maximum number of reciprocal cells 3x 3x 3

    FEWALD:  cpu time    0.0036: real time    0.0038


--------------------------------------- Iteration      1(   1)  ---------------------------------------


    POTLOK:  cpu time    0.2040: real time    0.2285
    SETDIJ:  cpu time    0.0084: real time    0.0093
     EDDAV:  cpu time   11.2538: real time   11.3713
 BZINTS: Fermi energy:  7.951918;303.000000 electrons
         Band energy:***********;  BLOECHL correction: -0.013471
       DOS:  cpu time    0.1097: real time    0.1101
    --------------------------------------------
      LOOP:  cpu time   11.5760: real time   11.7193

 eigenvalue-minimisations  :  4344
 total energy-change (2. order) : 0.2553093E+04  (-0.1115727E+05)
 number of electron     303.0000000 magnetization       2.0000000
 augmentation part      303.0000000 magnetization       2.0000000

 Free energy of the ion-electron system (eV)
  ---------------------------------------------------
  alpha Z        PSCENC =       167.49047206
  Ewald energy   TEWEN  =     28938.17081361
  -Hartree energ DENC   =    -38615.90557390
  -exchange      EXHF   =         0.00000000
  -V(xc)+E(xc)   XCENC  =      1022.33975018
  PAW double counting   =      9455.23336183    -9546.47664214
  entropy T*S    EENTRO =         0.00000000
  eigenvalues    EBANDS =     -1512.51264551
  atomic energy  EATOM  =     12644.75315347
  Solvation  Ediel_sol  =         0.00000000
  ---------------------------------------------------
  free energy    TOTEN  =      2553.09268961 eV

  energy without entropy =     2553.09268961  energy(sigma->0) =     2553.09268961


--------------------------------------------------------------------------------------------------------




--------------------------------------- Iteration      1(   2)  ---------------------------------------


     EDDAV:  cpu time   14.9690: real time   15.2723
 BZINTS: Fermi energy: -1.348043;303.000000 electrons
         Band energy:***********;  BLOECHL correction: -0.066304
       DOS:  cpu time    0.0116: real time    0.0117
    --------------------------------------------
      LOOP:  cpu time   14.9807: real time   15.2840

 eigenvalue-minimisations  :  5480
 total energy-change (2. order) :-0.2790036E+04  (-0.2659373E+04)
 number of electron     303.0000000 magnetization       2.0000000
 augmentation part      303.0000000 magnetization       2.0000000

 Free energy of the ion-electron system (eV)
  ---------------------------------------------------
  alpha Z        PSCENC =       167.49047206
  Ewald energy   TEWEN  =     28938.17081361
  -Hartree energ DENC   =    -38615.90557390
  -exchange      EXHF   =         0.00000000
  -V(xc)+E(xc)   XCENC  =      1022.33975018
  PAW double counting   =      9455.23336183    -9546.47664214
  entropy T*S    EENTRO =         0.00000000
  eigenvalues    EBANDS =     -4302.54890424
  atomic energy  EATOM  =     12644.75315347
  Solvation  Ediel_sol  =         0.00000000
  ---------------------------------------------------
  free energy    TOTEN  =      -236.94356912 eV

  energy without entropy =     -236.94356912  energy(sigma->0) =     -236.94356912


--------------------------------------------------------------------------------------------------------




--------------------------------------- Iteration      1(   3)  ---------------------------------------


     EDDAV:  cpu time   12.6628: real time   12.8580
 BZINTS: Fermi energy: -4.509564;303.000000 electrons
         Band energy:***********;  BLOECHL correction: -0.039326
       DOS:  cpu time    0.0105: real time    0.0105
    --------------------------------------------
      LOOP:  cpu time   12.6734: real time   12.8686

 eigenvalue-minimisations  :  4592
 total energy-change (2. order) :-0.4656461E+03  (-0.4623278E+03)
 number of electron     303.0000000 magnetization       2.0000000
 augmentation part      303.0000000 magnetization       2.0000000

 Free energy of the ion-electron system (eV)
  ---------------------------------------------------
  alpha Z        PSCENC =       167.49047206
  Ewald energy   TEWEN  =     28938.17081361
  -Hartree energ DENC   =    -38615.90557390
  -exchange      EXHF   =         0.00000000
  -V(xc)+E(xc)   XCENC  =      1022.33975018
  PAW double counting   =      9455.23336183    -9546.47664214
  entropy T*S    EENTRO =         0.00000000
  eigenvalues    EBANDS =     -4768.19502511
  atomic energy  EATOM  =     12644.75315347
  Solvation  Ediel_sol  =         0.00000000
  ---------------------------------------------------
  free energy    TOTEN  =      -702.58968999 eV

  energy without entropy =     -702.58968999  energy(sigma->0) =     -702.58968999


--------------------------------------------------------------------------------------------------------




--------------------------------------- Iteration      1(   4)  ---------------------------------------


     EDDAV:  cpu time   13.0315: real time   13.2559
 BZINTS: Fermi energy: -4.667863;303.000000 electrons
         Band energy:***********;  BLOECHL correction: -0.044614
       DOS:  cpu time    0.0115: real time    0.0116
    --------------------------------------------
      LOOP:  cpu time   13.0430: real time   13.2674

 eigenvalue-minimisations  :  4624
 total energy-change (2. order) :-0.1680201E+02  (-0.1666293E+02)
 number of electron     303.0000000 magnetization       2.0000000
 augmentation part      303.0000000 magnetization       2.0000000

 Free energy of the ion-electron system (eV)
  ---------------------------------------------------
  alpha Z        PSCENC =       167.49047206
  Ewald energy   TEWEN  =     28938.17081361
  -Hartree energ DENC   =    -38615.90557390
  -exchange      EXHF   =         0.00000000
  -V(xc)+E(xc)   XCENC  =      1022.33975018
  PAW double counting   =      9455.23336183    -9546.47664214
  entropy T*S    EENTRO =         0.00000000
  eigenvalues    EBANDS =     -4784.99703163
  atomic energy  EATOM  =     12644.75315347
  Solvation  Ediel_sol  =         0.00000000
  ---------------------------------------------------
  free energy    TOTEN  =      -719.39169650 eV

  energy without entropy =     -719.39169650  energy(sigma->0) =     -719.39169650


--------------------------------------------------------------------------------------------------------




--------------------------------------- Iteration      1(   5)  ---------------------------------------


     EDDAV:  cpu time   13.9840: real time   14.1679
 BZINTS: Fermi energy: -4.676474;303.000000 electrons
         Band energy:***********;  BLOECHL correction: -0.045020
       DOS:  cpu time    0.0118: real time    0.0119
    CHARGE:  cpu time    0.1647: real time    0.1691
    MIXING:  cpu time    0.0049: real time    0.0049
    --------------------------------------------
      LOOP:  cpu time   14.1653: real time   14.3538

 eigenvalue-minimisations  :  5272
 total energy-change (2. order) :-0.5554685E+00  (-0.5536038E+00)
 number of electron     302.9999972 magnetization       0.0117514
 augmentation part       12.3947134 magnetization       0.0677975

 Broyden mixing:
  rms(total) = 0.47716E+01    rms(broyden)= 0.47710E+01
  rms(prec ) = 0.55269E+01
  weight for this iteration     100.00

 Free energy of the ion-electron system (eV)
  ---------------------------------------------------
  alpha Z        PSCENC =       167.49047206
  Ewald energy   TEWEN  =     28938.17081361
  -Hartree energ DENC   =    -38615.90557390
  -exchange      EXHF   =         0.00000000
  -V(xc)+E(xc)   XCENC  =      1022.33975018
  PAW double counting   =      9455.23336183    -9546.47664214
  entropy T*S    EENTRO =         0.00000000
  eigenvalues    EBANDS =     -4785.55250015
  atomic energy  EATOM  =     12644.75315347
  Solvation  Ediel_sol  =         0.00000000
  ---------------------------------------------------
  free energy    TOTEN  =      -719.94716503 eV

  energy without entropy =     -719.94716503  energy(sigma->0) =     -719.94716503


--------------------------------------------------------------------------------------------------------




--------------------------------------- Iteration      1(   6)  ---------------------------------------


    POTLOK:  cpu time    0.1386: real time    0.1407
    SETDIJ:  cpu time    0.0104: real time    0.0104
     EDDAV:  cpu time   12.7230: real time   12.8398
 BZINTS: Fermi energy: -5.542378;303.000000 electrons
         Band energy:***********;  BLOECHL correction: -0.009324
       DOS:  cpu time    0.0122: real time    0.0127
    CHARGE:  cpu time    0.2091: real time    0.2160
    MIXING:  cpu time    0.0031: real time    0.0037
    --------------------------------------------
      LOOP:  cpu time   13.0963: real time   13.2234

 eigenvalue-minimisations  :  4864
 total energy-change (2. order) :-0.1077864E+01  (-0.8891098E+01)
 number of electron     302.9999974 magnetization       0.0046578
 augmentation part       18.0284826 magnetization       0.0343001

 Broyden mixing:
  rms(total) = 0.75313E+01    rms(broyden)= 0.75310E+01
  rms(prec ) = 0.86133E+01
  weight for this iteration     100.00

 eigenvalues of (default mixing * dielectric matrix)
  average eigenvalue GAMMA=   0.2772
  0.2772

 Free energy of the ion-electron system (eV)
  ---------------------------------------------------
  alpha Z        PSCENC =       167.49047206
  Ewald energy   TEWEN  =     28938.17081361
  -Hartree energ DENC   =    -38992.20000961
  -exchange      EXHF   =         0.00000000
  -V(xc)+E(xc)   XCENC  =      1035.17207030
  PAW double counting   =     13248.22982434   -13339.45554744
  entropy T*S    EENTRO =         0.00000000
  eigenvalues    EBANDS =     -4423.18580621
  atomic energy  EATOM  =     12644.75315347
  Solvation  Ediel_sol  =         0.00000000
  ---------------------------------------------------
  free energy    TOTEN  =      -721.02502948 eV

  energy without entropy =     -721.02502948  energy(sigma->0) =     -721.02502948


--------------------------------------------------------------------------------------------------------




--------------------------------------- Iteration      1(   7)  ---------------------------------------


    POTLOK:  cpu time    0.1362: real time    0.1423
    SETDIJ:  cpu time    0.0089: real time    0.0089
     EDDAV:  cpu time   12.6633: real time   12.8337
 BZINTS: Fermi energy: -4.384648;303.000000 electrons
         Band energy:***********;  BLOECHL correction: -0.059704
       DOS:  cpu time    0.0119: real time    0.0120
    CHARGE:  cpu time    0.1636: real time    0.1672
    MIXING:  cpu time    0.0038: real time    0.0041
    --------------------------------------------
      LOOP:  cpu time   12.9876: real time   13.1682

 eigenvalue-minimisations  :  4896
 total energy-change (2. order) : 0.4683918E+02  (-0.6015101E+01)
 number of electron     302.9999969 magnetization       0.2554319
 augmentation part       14.6694133 magnetization       0.1813814

 Broyden mixing:
  rms(total) = 0.27125E+01    rms(broyden)= 0.27120E+01
  rms(prec ) = 0.30153E+01
  weight for this iteration     100.00

 eigenvalues of (default mixing * dielectric matrix)
  average eigenvalue GAMMA=   0.6426
  0.9658  0.3195

 Free energy of the ion-electron system (eV)
  ---------------------------------------------------
  alpha Z        PSCENC =       167.49047206
  Ewald energy   TEWEN  =     28938.17081361
  -Hartree energ DENC   =    -39132.96389485
  -exchange      EXHF   =         0.00000000
  -V(xc)+E(xc)   XCENC  =      1039.59329425
  PAW double counting   =     14462.02512335   -14557.73599789
  entropy T*S    EENTRO =         0.00000000
  eigenvalues    EBANDS =     -4235.51881412
  atomic energy  EATOM  =     12644.75315347
  Solvation  Ediel_sol  =         0.00000000
  ---------------------------------------------------
  free energy    TOTEN  =      -674.18585012 eV

  energy without entropy =     -674.18585012  energy(sigma->0) =     -674.18585012


--------------------------------------------------------------------------------------------------------




--------------------------------------- Iteration      1(   8)  ---------------------------------------


    POTLOK:  cpu time    0.1609: real time    0.1641
    SETDIJ:  cpu time    0.0084: real time    0.0084
     EDDAV:  cpu time   12.8160: real time   12.9098
 BZINTS: Fermi energy: -2.318890;303.000000 electrons
         Band energy:***********;  BLOECHL correction: -0.031250
       DOS:  cpu time    0.0118: real time    0.0119
    CHARGE:  cpu time    0.1648: real time    0.1659
    MIXING:  cpu time    0.0034: real time    0.0036
    --------------------------------------------
      LOOP:  cpu time   13.1653: real time   13.2637

 eigenvalue-minimisations  :  5016
 total energy-change (2. order) : 0.2530062E+01  (-0.4318913E+01)
 number of electron     302.9999976 magnetization       0.1273575
 augmentation part       12.1636548 magnetization       0.0908227

 Broyden mixing:
  rms(total) = 0.27096E+01    rms(broyden)= 0.27087E+01
  rms(prec ) = 0.32214E+01
  weight for this iteration     100.00

 eigenvalues of (default mixing * dielectric matrix)
  average eigenvalue GAMMA=   1.1301
  2.6007  0.3948  0.3948

 Free energy of the ion-electron system (eV)
  ---------------------------------------------------
  alpha Z        PSCENC =       167.49047206
  Ewald energy   TEWEN  =     28938.17081361
  -Hartree energ DENC   =    -39416.92879327
  -exchange      EXHF   =         0.00000000
  -V(xc)+E(xc)   XCENC  =      1049.11951201
  PAW double counting   =     18002.40640341   -18101.38000287
  entropy T*S    EENTRO =         0.00000000
  eigenvalues    EBANDS =     -3955.28734650
  atomic energy  EATOM  =     12644.75315347
  Solvation  Ediel_sol  =         0.00000000
  ---------------------------------------------------
  free energy    TOTEN  =      -671.65578808 eV

  energy without entropy =     -671.65578808  energy(sigma->0) =     -671.65578808


--------------------------------------------------------------------------------------------------------




--------------------------------------- Iteration      1(   9)  ---------------------------------------


    POTLOK:  cpu time    0.1349: real time    0.1368
    SETDIJ:  cpu time    0.0097: real time    0.0099
     EDDAV:  cpu time   12.1856: real time   12.3008
 BZINTS: Fermi energy: -2.762356;303.000000 electrons
         Band energy:***********;  BLOECHL correction: -0.076914
       DOS:  cpu time    0.0111: real time    0.0111
    CHARGE:  cpu time    0.1663: real time    0.1673
    MIXING:  cpu time    0.0036: real time    0.0037
    --------------------------------------------
      LOOP:  cpu time   12.5112: real time   12.6296

 eigenvalue-minimisations  :  4584
 total energy-change (2. order) : 0.7552654E+01  (-0.2484516E+01)
 number of electron     302.9999973 magnetization      -0.0545370
 augmentation part       14.8652430 magnetization      -0.0836067

 Broyden mixing:
  rms(total) = 0.19417E+01    rms(broyden)= 0.19400E+01
  rms(prec ) = 0.24681E+01
  weight for this iteration     100.00

 eigenvalues of (default mixing * dielectric matrix)
  average eigenvalue GAMMA=   1.1989
  3.1503  0.9449  0.3502  0.3502

 Free energy of the ion-electron system (eV)
  ---------------------------------------------------
  alpha Z        PSCENC =       167.49047206
  Ewald energy   TEWEN  =     28938.17081361
  -Hartree energ DENC   =    -39849.27495035
  -exchange      EXHF   =         0.00000000
  -V(xc)+E(xc)   XCENC  =      1064.85151932
  PAW double counting   =     25974.62832974   -26077.02793324
  entropy T*S    EENTRO =         0.00000000
  eigenvalues    EBANDS =     -3527.69453891
  atomic energy  EATOM  =     12644.75315347
  Solvation  Ediel_sol  =         0.00000000
  ---------------------------------------------------
  free energy    TOTEN  =      -664.10313429 eV

  energy without entropy =     -664.10313429  energy(sigma->0) =     -664.10313429


--------------------------------------------------------------------------------------------------------




--------------------------------------- Iteration      1(  10)  ---------------------------------------


    POTLOK:  cpu time    0.1460: real time    0.1481
    SETDIJ:  cpu time    0.0103: real time    0.0103
     EDDAV:  cpu time   13.8080: real time   14.0565
 BZINTS: Fermi energy: -1.174666;303.000000 electrons
         Band energy:***********;  BLOECHL correction: -0.071901
       DOS:  cpu time    0.0116: real time    0.0116
    CHARGE:  cpu time    0.1616: real time    0.1626
    MIXING:  cpu time    0.0038: real time    0.0038
    --------------------------------------------
      LOOP:  cpu time   14.1413: real time   14.3929

 eigenvalue-minimisations  :  5248
 total energy-change (2. order) : 0.1182570E+01  (-0.2352673E+01)
 number of electron     302.9999979 magnetization      -0.1860858
 augmentation part       12.5233479 magnetization      -0.0936570

 Broyden mixing:
  rms(total) = 0.12117E+01    rms(broyden)= 0.12097E+01
  rms(prec ) = 0.14687E+01
  weight for this iteration     100.00

 eigenvalues of (default mixing * dielectric matrix)
  average eigenvalue GAMMA=   1.2272
  3.4332  1.3066  0.7203  0.3379  0.3379

 Free energy of the ion-electron system (eV)
  ---------------------------------------------------
  alpha Z        PSCENC =       167.49047206
  Ewald energy   TEWEN  =     28938.17081361
  -Hartree energ DENC   =    -39888.16916612
  -exchange      EXHF   =         0.00000000
  -V(xc)+E(xc)   XCENC  =      1066.41802595
  PAW double counting   =     28457.55159172   -28560.44541036
  entropy T*S    EENTRO =         0.00000000
  eigenvalues    EBANDS =     -3488.69004414
  atomic energy  EATOM  =     12644.75315347
  Solvation  Ediel_sol  =         0.00000000
  ---------------------------------------------------
  free energy    TOTEN  =      -662.92056381 eV

  energy without entropy =     -662.92056381  energy(sigma->0) =     -662.92056381


--------------------------------------------------------------------------------------------------------




--------------------------------------- Iteration      1(  11)  ---------------------------------------


    POTLOK:  cpu time    0.1383: real time    0.1405
    SETDIJ:  cpu time    0.0080: real time    0.0081
     EDDAV:  cpu time   13.2719: real time   13.3942
 BZINTS: Fermi energy: -1.859540;303.000000 electrons
         Band energy:***********;  BLOECHL correction: -0.005183
       DOS:  cpu time    0.0129: real time    0.0129
    CHARGE:  cpu time    0.1608: real time    0.1619
    MIXING:  cpu time    0.0039: real time    0.0039
    --------------------------------------------
      LOOP:  cpu time   13.5958: real time   13.7215

 eigenvalue-minimisations  :  5208
 total energy-change (2. order) : 0.1099730E+01  (-0.2582041E+00)
 number of electron     302.9999977 magnetization      -0.6042194
 augmentation part       13.4372820 magnetization      -0.2226399

 Broyden mixing:
  rms(total) = 0.70652E+00    rms(broyden)= 0.70528E+00
  rms(prec ) = 0.72027E+00
  weight for this iteration     100.00

 eigenvalues of (default mixing * dielectric matrix)
  average eigenvalue GAMMA=   1.1376
  3.4521  1.4445  0.9843  0.3450  0.3450  0.2549

 Free energy of the ion-electron system (eV)
  ---------------------------------------------------
  alpha Z        PSCENC =       167.49047206
  Ewald energy   TEWEN  =     28938.17081361
  -Hartree energ DENC   =    -39847.16292978
  -exchange      EXHF   =         0.00000000
  -V(xc)+E(xc)   XCENC  =      1065.32820904
  PAW double counting   =     30004.57286462   -30106.67899973
  entropy T*S    EENTRO =         0.00000000
  eigenvalues    EBANDS =     -3528.29441759
  atomic energy  EATOM  =     12644.75315347
  Solvation  Ediel_sol  =         0.00000000
  ---------------------------------------------------
  free energy    TOTEN  =      -661.82083430 eV

  energy without entropy =     -661.82083430  energy(sigma->0) =     -661.82083430


--------------------------------------------------------------------------------------------------------




--------------------------------------- Iteration      1(  12)  ---------------------------------------


    POTLOK:  cpu time    0.1355: real time    0.1378
    SETDIJ:  cpu time    0.0106: real time    0.0112
     EDDAV:  cpu time   12.9880: real time   13.1497
 BZINTS: Fermi energy: -2.052013;303.000000 electrons
         Band energy:***********;  BLOECHL correction:  0.000000
       DOS:  cpu time    0.0084: real time    0.0085
    CHARGE:  cpu time    0.1631: real time    0.1643
    MIXING:  cpu time    0.0035: real time    0.0035
    --------------------------------------------
      LOOP:  cpu time   13.3092: real time   13.4750

 eigenvalue-minimisations  :  4976
 total energy-change (2. order) :-0.3571558E+00  (-0.3362553E-01)
 number of electron     302.9999976 magnetization      -0.9810513
 augmentation part       13.7118193 magnetization      -0.6427921

 Broyden mixing:
  rms(total) = 0.71737E+00    rms(broyden)= 0.71708E+00
  rms(prec ) = 0.79618E+00
  weight for this iteration     100.00

 eigenvalues of (default mixing * dielectric matrix)
  average eigenvalue GAMMA=   1.2413
  3.5320  1.5237  1.5237  0.7164  0.7164  0.3383  0.3383

 Free energy of the ion-electron system (eV)
  ---------------------------------------------------
  alpha Z        PSCENC =       167.49047206
  Ewald energy   TEWEN  =     28938.17081361
  -Hartree energ DENC   =    -39822.89511777
  -exchange      EXHF   =         0.00000000
  -V(xc)+E(xc)   XCENC  =      1064.66784738
  PAW double counting   =     30645.63464001   -30747.30003896
  entropy T*S    EENTRO =         0.00000000
  eigenvalues    EBANDS =     -3552.69975994
  atomic energy  EATOM  =     12644.75315347
  Solvation  Ediel_sol  =         0.00000000
  ---------------------------------------------------
  free energy    TOTEN  =      -662.17799013 eV

  energy without entropy =     -662.17799013  energy(sigma->0) =     -662.17799013


--------------------------------------------------------------------------------------------------------




--------------------------------------- Iteration      1(  13)  ---------------------------------------


    POTLOK:  cpu time    0.1335: real time    0.1360
    SETDIJ:  cpu time    0.0083: real time    0.0083
     EDDAV:  cpu time   12.5034: real time   12.6688
 BZINTS: Fermi energy: -2.128594;303.000000 electrons
         Band energy:***********;  BLOECHL correction: -0.002816
       DOS:  cpu time    0.0120: real time    0.0120
    CHARGE:  cpu time    0.1891: real time    0.1904
    MIXING:  cpu time    0.0038: real time    0.0038
    --------------------------------------------
      LOOP:  cpu time   12.8501: real time   13.0193

 eigenvalue-minimisations  :  4776
 total energy-change (2. order) :-0.1545881E+00  (-0.4818826E-01)
 number of electron     302.9999976 magnetization      -0.9565893
 augmentation part       13.6286650 magnetization      -0.8956196

 Broyden mixing:
  rms(total) = 0.41117E+00    rms(broyden)= 0.41104E+00
  rms(prec ) = 0.47353E+00
  weight for this iteration     100.00

 eigenvalues of (default mixing * dielectric matrix)
  average eigenvalue GAMMA=   1.2175
  3.6021  1.6195  1.6195  0.8420  0.8420  0.3387  0.3387  0.5376

 Free energy of the ion-electron system (eV)
  ---------------------------------------------------
  alpha Z        PSCENC =       167.49047206
  Ewald energy   TEWEN  =     28938.17081361
  -Hartree energ DENC   =    -39790.20611181
  -exchange      EXHF   =         0.00000000
  -V(xc)+E(xc)   XCENC  =      1063.94962940
  PAW double counting   =     31609.02342012   -31710.17040076
  entropy T*S    EENTRO =         0.00000000
  eigenvalues    EBANDS =     -3585.34355437
  atomic energy  EATOM  =     12644.75315347
  Solvation  Ediel_sol  =         0.00000000
  ---------------------------------------------------
  free energy    TOTEN  =      -662.33257827 eV

  energy without entropy =     -662.33257827  energy(sigma->0) =     -662.33257827


--------------------------------------------------------------------------------------------------------




--------------------------------------- Iteration      1(  14)  ---------------------------------------


    POTLOK:  cpu time    0.1346: real time    0.1377
    SETDIJ:  cpu time    0.0081: real time    0.0085
     EDDAV:  cpu time   12.1417: real time   12.2440
 BZINTS: Fermi energy: -2.114568;303.000000 electrons
         Band energy:***********;  BLOECHL correction: -0.003672
       DOS:  cpu time    0.0111: real time    0.0112
    CHARGE:  cpu time    0.1606: real time    0.1612
    MIXING:  cpu time    0.0042: real time    0.0042
    --------------------------------------------
      LOOP:  cpu time   12.4603: real time   12.5669

 eigenvalue-minimisations  :  4528
 total energy-change (2. order) :-0.1644819E-01  (-0.1123698E-01)
 number of electron     302.9999976 magnetization      -0.9097835
 augmentation part       13.5955438 magnetization      -0.9138230

 Broyden mixing:
  rms(total) = 0.35225E+00    rms(broyden)= 0.35220E+00
  rms(prec ) = 0.40398E+00
  weight for this iteration     100.00

 eigenvalues of (default mixing * dielectric matrix)
  average eigenvalue GAMMA=   1.3276
  3.5885  2.0192  2.0192  1.1583  1.1583  0.3384  0.3384  0.6641  0.6641

 Free energy of the ion-electron system (eV)
  ---------------------------------------------------
  alpha Z        PSCENC =       167.49047206
  Ewald energy   TEWEN  =     28938.17081361
  -Hartree energ DENC   =    -39791.93112517
  -exchange      EXHF   =         0.00000000
  -V(xc)+E(xc)   XCENC  =      1064.04148324
  PAW double counting   =     31761.96408761   -31863.05722460
  entropy T*S    EENTRO =         0.00000000
  eigenvalues    EBANDS =     -3583.78068670
  atomic energy  EATOM  =     12644.75315347
  Solvation  Ediel_sol  =         0.00000000
  ---------------------------------------------------
  free energy    TOTEN  =      -662.34902646 eV

  energy without entropy =     -662.34902646  energy(sigma->0) =     -662.34902646


--------------------------------------------------------------------------------------------------------




--------------------------------------- Iteration      1(  15)  ---------------------------------------


    POTLOK:  cpu time    0.1383: real time    0.1407
    SETDIJ:  cpu time    0.0084: real time    0.0085
     EDDAV:  cpu time   12.6446: real time   12.7699
 BZINTS: Fermi energy: -2.105253;303.000000 electrons
         Band energy:***********;  BLOECHL correction: -0.004047
       DOS:  cpu time    0.0113: real time    0.0113
    CHARGE:  cpu time    0.1625: real time    0.1631
    MIXING:  cpu time    0.0045: real time    0.0045
    --------------------------------------------
      LOOP:  cpu time   12.9696: real time   13.0980

 eigenvalue-minimisations  :  4792
 total energy-change (2. order) :-0.1460408E-01  (-0.1193121E-01)
 number of electron     302.9999975 magnetization      -0.9615175
 augmentation part       13.5818733 magnetization      -1.0592601

 Broyden mixing:
  rms(total) = 0.29600E+00    rms(broyden)= 0.29596E+00
  rms(prec ) = 0.34707E+00
  weight for this iteration     100.00

 eigenvalues of (default mixing * dielectric matrix)
  average eigenvalue GAMMA=   1.3136
  3.5847  2.0308  2.0308  1.3388  1.3388  0.3385  0.3385  0.7639  0.7639  0.6073

 Free energy of the ion-electron system (eV)
  ---------------------------------------------------
  alpha Z        PSCENC =       167.49047206
  Ewald energy   TEWEN  =     28938.17081361
  -Hartree energ DENC   =    -39793.56346797
  -exchange      EXHF   =         0.00000000
  -V(xc)+E(xc)   XCENC  =      1064.15946961
  PAW double counting   =     31791.03542364   -31892.06604256
  entropy T*S    EENTRO =         0.00000000
  eigenvalues    EBANDS =     -3582.34345241
  atomic energy  EATOM  =     12644.75315347
  Solvation  Ediel_sol  =         0.00000000
  ---------------------------------------------------
  free energy    TOTEN  =      -662.36363054 eV

  energy without entropy =     -662.36363054  energy(sigma->0) =     -662.36363054


--------------------------------------------------------------------------------------------------------




--------------------------------------- Iteration      1(  16)  ---------------------------------------


    POTLOK:  cpu time    0.1681: real time    0.1710
    SETDIJ:  cpu time    0.0101: real time    0.0101
     EDDAV:  cpu time   12.4491: real time   12.5732
 BZINTS: Fermi energy: -2.112500;303.000000 electrons
         Band energy:***********;  BLOECHL correction: -0.004081
       DOS:  cpu time    0.0112: real time    0.0113
    CHARGE:  cpu time    0.1656: real time    0.1693
    MIXING:  cpu time    0.0042: real time    0.0046
    --------------------------------------------
      LOOP:  cpu time   12.8084: real time   12.9394

 eigenvalue-minimisations  :  4736
 total energy-change (2. order) : 0.1223630E-01  (-0.3580406E-02)
 number of electron     302.9999975 magnetization      -0.9868711
 augmentation part       13.5388385 magnetization      -1.1253528

 Broyden mixing:
  rms(total) = 0.21198E+00    rms(broyden)= 0.21197E+00
  rms(prec ) = 0.25305E+00
  weight for this iteration     100.00

 eigenvalues of (default mixing * dielectric matrix)
  average eigenvalue GAMMA=   1.3370
  3.6626  2.0878  2.0878  1.9471  1.1429  0.3385  0.3385  0.8687  0.8687  0.6823
  0.6823

 Free energy of the ion-electron system (eV)
  ---------------------------------------------------
  alpha Z        PSCENC =       167.49047206
  Ewald energy   TEWEN  =     28938.17081361
  -Hartree energ DENC   =    -39790.29569341
  -exchange      EXHF   =         0.00000000
  -V(xc)+E(xc)   XCENC  =      1064.12063962
  PAW double counting   =     31845.06515616   -31946.03041105
  entropy T*S    EENTRO =         0.00000000
  eigenvalues    EBANDS =     -3585.62552470
  atomic energy  EATOM  =     12644.75315347
  Solvation  Ediel_sol  =         0.00000000
  ---------------------------------------------------
  free energy    TOTEN  =      -662.35139424 eV

  energy without entropy =     -662.35139424  energy(sigma->0) =     -662.35139424


[...]
   0.103E+02 -.287E+01 0.433E+01   -.102E+02 0.291E+01 -.427E+01   -.684E-01 -.515E-02 -.490E-01   -.202E-01 -.586E-02 -.441E-02
   0.287E+02 0.859E+01 0.158E+02   -.282E+02 -.875E+01 -.165E+02   -.430E+00 0.191E+00 0.655E+00   -.551E-01 -.185E-01 -.214E-01
   0.304E+02 -.141E+02 0.153E+02   -.296E+02 0.146E+02 -.160E+02   -.763E+00 -.512E+00 0.707E+00   -.557E-01 0.299E-02 -.225E-01
   -.287E+02 0.849E+01 0.153E+02   0.281E+02 -.864E+01 -.159E+02   0.447E+00 0.182E+00 0.618E+00   0.560E-01 -.156E-01 -.214E-01
   -.304E+02 -.139E+02 0.148E+02   0.295E+02 0.144E+02 -.155E+02   0.780E+00 -.505E+00 0.669E+00   0.539E-01 0.603E-02 -.219E-01
   -.971E+01 0.138E+01 0.703E+01   0.973E+01 -.132E+01 -.699E+01   0.189E-01 -.695E-01 -.231E-01   0.168E-01 -.135E-02 -.414E-02
   -.989E+01 -.275E+01 0.682E+01   0.981E+01 0.279E+01 -.676E+01   0.729E-01 -.429E-02 -.394E-01   0.190E-01 -.760E-02 -.436E-02
   -.365E+01 -.386E+01 0.813E+01   0.362E+01 0.380E+01 -.817E+01   0.267E-01 -.193E-01 0.471E-01   0.182E-02 0.670E-02 -.217E-02
   -.158E+01 -.312E+01 0.699E+01   0.151E+01 0.312E+01 -.696E+01   0.407E-01 0.345E-01 -.235E-01   -.132E-02 -.179E-02 -.168E-02
   0.406E+01 -.393E+01 0.635E+01   -.404E+01 0.388E+01 -.639E+01   -.233E-01 -.188E-01 0.364E-01   -.141E-02 0.599E-02 -.213E-02
   0.188E+01 -.327E+01 0.565E+01   -.180E+01 0.327E+01 -.563E+01   -.384E-01 0.350E-01 -.269E-01   0.439E-03 -.383E-02 -.164E-02
   0.145E+02 -.979E+01 0.484E+01   -.143E+02 0.972E+01 -.491E+01   -.207E+00 0.841E-01 0.814E-01   -.255E-01 0.701E-05 -.664E-02
   0.734E+01 -.112E+02 0.703E+01   -.710E+01 0.112E+02 -.700E+01   -.215E+00 -.588E-02 -.220E-01   -.152E-01 0.175E-01 -.508E-02
   -.270E+01 -.406E+02 0.310E+02   0.878E+01 0.371E+02 -.302E+02   -.598E+01 0.334E+01 -.797E+00   -.842E-01 0.795E-01 -.599E-01
   0.255E+01 -.229E+02 0.144E+02   -.223E+01 0.220E+02 -.146E+02   -.307E+00 0.931E+00 0.235E+00   -.282E-01 0.392E-01 -.209E-01
   0.210E+01 -.402E+02 0.289E+02   -.817E+01 0.368E+02 -.280E+02   0.597E+01 0.335E+01 -.841E+00   0.853E-01 0.784E-01 -.583E-01
   -.293E+01 -.227E+02 0.135E+02   0.262E+01 0.218E+02 -.137E+02   0.303E+00 0.944E+00 0.230E+00   0.283E-01 0.360E-01 -.204E-01
   -.143E+02 -.956E+01 0.629E+01   0.141E+02 0.949E+01 -.636E+01   0.216E+00 0.864E-01 0.872E-01   0.231E-01 0.181E-03 -.646E-02
   -.727E+01 -.109E+02 0.797E+01   0.702E+01 0.109E+02 -.794E+01   0.215E+00 -.499E-02 -.248E-01   0.166E-01 0.173E-01 -.494E-02
   -.265E+01 -.295E+01 0.839E+01   0.255E+01 0.285E+01 -.842E+01   0.108E+00 0.468E-01 0.317E-01   0.127E-01 0.959E-02 -.221E-02
   -.242E+01 -.198E+01 0.835E+01   0.229E+01 0.186E+01 -.836E+01   0.132E+00 0.120E+00 0.102E-01   0.969E-02 -.486E-02 -.127E-02
   0.105E+00 -.196E+01 0.635E+01   -.104E+00 0.180E+01 -.638E+01   0.143E-02 0.112E+00 0.195E-01   -.607E-03 -.415E-02 -.118E-02
   0.314E-01 0.429E+01 0.645E+01   -.334E-01 -.452E+01 -.643E+01   0.631E-03 0.193E+00 -.148E-01   0.108E-02 0.694E-02 -.124E-02
   0.282E+01 -.319E+01 0.695E+01   -.272E+01 0.309E+01 -.697E+01   -.106E+00 0.464E-01 0.244E-01   -.129E-01 0.104E-01 -.227E-02
   0.248E+01 -.224E+01 0.742E+01   -.235E+01 0.212E+01 -.743E+01   -.131E+00 0.120E+00 0.876E-02   -.111E-01 -.330E-02 -.128E-02
   -.835E+00 -.983E+01 0.110E+02   0.133E+01 0.950E+01 -.111E+02   -.455E+00 0.270E+00 0.110E+00   -.926E-02 0.231E-01 -.716E-02
   0.165E+01 -.633E+01 0.895E+01   -.151E+01 0.614E+01 -.898E+01   -.111E+00 0.226E+00 0.328E-01   0.114E-03 0.595E-02 -.249E-02
   -.210E+00 -.136E+02 0.679E+01   0.215E+00 0.129E+02 -.645E+01   -.444E-02 0.623E+00 -.334E+00   -.329E-03 0.332E-01 -.156E-01
   -.651E-01 -.849E+01 0.740E+01   0.637E-01 0.807E+01 -.742E+01   -.105E-02 0.428E+00 0.268E-01   0.153E-02 0.268E-01 -.510E-02
   0.787E+00 -.955E+01 0.107E+02   -.128E+01 0.922E+01 -.109E+02   0.456E+00 0.271E+00 0.104E+00   0.967E-02 0.236E-01 -.700E-02
   -.168E+01 -.604E+01 0.863E+01   0.155E+01 0.584E+01 -.866E+01   0.109E+00 0.226E+00 0.288E-01   -.741E-03 0.835E-02 -.235E-02
   -.167E+01 -.184E+02 -.635E+03   0.178E+01 0.188E+02 0.616E+03   -.117E+00 -.319E+00 0.189E+02   0.176E-02 -.344E-01 -.898E-01
   -.637E+02 -.145E+03 0.108E+03   0.710E+02 0.161E+03 -.127E+03   -.774E+01 -.175E+02 0.204E+02   -.817E-04 -.812E-03 0.102E-01
   0.558E+02 0.125E+03 -.137E+03   -.714E+02 -.161E+03 0.179E+03   0.162E+02 0.365E+02 -.426E+02   -.587E-03 -.203E-02 0.792E-02
 -----------------------------------------------------------------------------------------------
   -.835E+01 -.185E+02 0.315E+01   0.213E-12 0.966E-12 0.171E-12   0.835E+01 0.186E+02 -.248E+01   -.407E-03 -.335E-01 -.666E+00
 
 
 POSITION                                       TOTAL-FORCE (eV/Angst)
 -----------------------------------------------------------------------------------
     -7.42004     12.74545      7.25335        -0.006139      0.012150      0.005542
      0.00549      1.42269      7.25446        -0.023878     -0.030986      0.003611
      2.48619      0.03278      7.25197        -0.027713     -0.040132      0.005815
      2.48560      1.45842      7.26565        -0.016127      0.019490      0.008825
      4.94150      0.03263      7.25480         0.028263     -0.039777      0.003540
      4.94216      1.45825      7.26753         0.016025      0.020694      0.006278
     -0.00030     12.74520      7.25464         0.006010      0.013443      0.005099
      7.42222      1.42243      7.25344         0.022544     -0.028941      0.003137
      2.47804     12.72160      7.26255        -0.010716     -0.017828      0.003244
      9.90274      1.39396      7.25133        -0.027587      0.023565     -0.000973
      4.94976     12.72175      7.26429         0.011630     -0.018483      0.000747
     12.37306      1.39407      7.25417         0.026295      0.024226     -0.004430
     13.61021      2.11377      7.25550        -0.030431     -0.022931     -0.001888
     -1.23721      3.52897      7.26627        -0.043251      0.026649     -0.004062
      1.23736      2.14678      7.26524         0.036223     -0.027511     -0.000156
      1.24977      3.56330      7.28738         0.026715      0.022583     -0.006580
      3.71390      2.17882      7.28540         0.001283     -0.030910     -0.000606
      3.71399      3.58830      7.32613        -0.001447      0.003014     -0.018529
      6.19039      2.14657      7.26576        -0.036262     -0.024533     -0.002937
      6.17802      3.56321      7.28652        -0.027971      0.023332     -0.009561
      8.66553      2.11361      7.25127         0.031719     -0.022666      0.001606
      8.66485      3.52878      7.25969         0.042859      0.028023      0.000584
     11.13786      2.10411      7.25257         0.000857      0.002511     -0.003859
     11.13783      3.52539      7.25481        -0.000833     -0.002839     -0.005011
     12.37105      4.23709      7.26317         0.025961     -0.027115     -0.003070
     -2.48365      5.65711      7.26949         0.026747      0.038402     -0.001526
     -0.00330      4.24469      7.28884         0.029042      0.002068     -0.005810
     -0.02927      5.65915      7.31525        -0.003878      0.009473     -0.001020
      2.49046      4.30824      7.33374        -0.012522     -0.030693     -0.004553
      2.45852      5.71108      7.42561         0.026606      0.054062     -0.009691
      4.93754      4.30852      7.33538         0.011759     -0.027947     -0.007777
      4.96947      5.71145      7.42957        -0.026460      0.055388     -0.014572
      7.43099      4.24456      7.28344        -0.028969      0.002940     -0.004919
      7.45677      5.65911      7.30812         0.003893      0.009274      0.000136
      9.90458      4.23703      7.25749        -0.024400     -0.026814      0.001291
      9.91112      5.65706      7.26233        -0.026705      0.037290      0.004408
     11.13776      6.37030      7.26245         0.001093      0.019964     -0.008633
     -3.71031      7.79347      7.26174         0.000181      0.009280     -0.007782
     -1.25942      6.37154      7.29331        -0.052650     -0.015450      0.002647
     -1.26153      7.78967      7.29417        -0.007770      0.036422      0.003478
      1.19026      6.35780      7.36529         0.033870      0.012906      0.010099
      1.18668      7.78731      7.36760         0.050177      0.011879      0.017004
      6.23765      6.35780      7.36448        -0.033808      0.013978      0.004934
      6.24126      7.78728      7.36677        -0.051199      0.010231      0.012326
      8.68688      6.37153      7.28266         0.053078     -0.015148      0.010110
      8.68897      7.78962      7.28351         0.008555      0.037829      0.010753
     -4.93551      8.50776      7.26166         0.004668     -0.070322      0.003885
     -4.93960      9.92892      7.25696        -0.038211      0.033465     -0.001238
     -2.48509      8.50772      7.26894        -0.004010     -0.069623     -0.002921
     -2.48093      9.92883      7.26272         0.038725      0.034939     -0.005843
     -0.03437      8.49955      7.31870         0.004550      0.019075      0.006923
     -0.01429      9.91841      7.29019         0.011930      0.004823      0.004125
      2.43921      8.43918      7.42722         0.030506     -0.060034     -0.015257
      2.47587      9.85283      7.33738        -0.006296      0.071624      0.000091
      4.98878      8.43872      7.43117        -0.030228     -0.061418     -0.021309
      4.95208      9.85251      7.33933         0.004372      0.070514     -0.003564
      7.46189      8.49956      7.31159        -0.003110      0.018916      0.008176
      7.44195      9.91852      7.28484        -0.013077      0.002879      0.005973
     -6.17518     10.63895      7.25905         0.022002     -0.042477      0.004361
     -6.17583     12.05838      7.25104         0.013110      0.002530      0.002087
     -3.71026     10.64241      7.25456         0.000873     -0.047001     -0.007889
     -3.71022     12.06712      7.25266        -0.000221     -0.033814     -0.000105
     -1.24528     10.63877      7.26560        -0.021533     -0.042768      0.001145
     -1.24455     12.05816      7.25532        -0.012985      0.003723     -0.000915
      1.23608     10.59683      7.28902         0.033343     -0.032911     -0.000882
      1.23524     12.02032      7.26441         0.026095      0.038541     -0.001511
      3.71400     10.57656      7.32590         0.000584     -0.010227     -0.014880
      3.71394     11.99792      7.28030        -0.000855      0.033045     -0.001331
      6.19168     10.59686      7.28839        -0.033759     -0.034057     -0.003297
      6.19253     12.02047      7.26479        -0.027314      0.035173     -0.003721
      3.71133      7.08671      8.13127         0.000858      0.006425      0.060129
      3.71133      7.08671     14.11127        -0.489828     -1.107416      1.269348
      3.39032      6.36087     14.95660         0.489141      1.106035     -1.278851
 -----------------------------------------------------------------------------------
    total drift:                                0.000621     -0.003562      0.001091


--------------------------------------------------------------------------------------------------------



  FREE ENERGIE OF THE ION-ELECTRON SYSTEM (eV)
  ---------------------------------------------------
  free  energy   TOTEN  =      -668.74224205 eV

  energy  without entropy=     -668.74224205  energy(sigma->0) =     -668.74224205
 


--------------------------------------------------------------------------------------------------------


    POTLOK:  cpu time    0.1535: real time    0.1539


--------------------------------------------------------------------------------------------------------


 stress matrix after NEB project (eV)
     -2.75205     -0.34289      0.39969
     -0.34289     -1.71260      0.92010
      0.39969      0.92010     -4.54822
  FORCES: max atom, RMS     1.760122    0.293791
  FORCE total and by dimension    2.510151    1.278851
  Stress total and by dimension    5.782809    4.548219
     LOOP+:  cpu time  352.1523: real time  356.4212
    4ORBIT:  cpu time    0.0000: real time    0.0000
 


 total charge     
 
# of ion       s       p       d       tot
------------------------------------------
    1        0.864   1.782   0.000   2.646
    2        0.864   1.786   0.000   2.650
    3        0.863   1.783   0.000   2.646
    4        0.862   1.792   0.000   2.653
    5        0.863   1.783   0.000   2.646
    6        0.862   1.792   0.000   2.653
    7        0.864   1.782   0.000   2.646
    8        0.864   1.786   0.000   2.650
    9        0.864   1.782   0.000   2.646
   10        0.864   1.785   0.000   2.649
   11        0.864   1.782   0.000   2.646
   12        0.864   1.785   0.000   2.649
   13        0.866   1.789   0.000   2.655
   14        0.865   1.789   0.000   2.654
   15        0.865   1.785   0.000   2.650
   16        0.861   1.777   0.000   2.638
   17        0.851   1.745   0.000   2.597
   18        1.209   2.693   0.000   3.903
   19        0.865   1.785   0.000   2.650
   20        0.861   1.777   0.000   2.638
   21        0.866   1.789   0.000   2.654
   22        0.865   1.789   0.000   2.654
   23        0.865   1.789   0.000   2.654
   24        0.866   1.789   0.000   2.654
   25        0.865   1.789   0.000   2.654
   26        0.868   1.796   0.000   2.664
   27        0.866   1.790   0.000   2.656
   28        0.871   1.807   0.000   2.678
   29        0.850   1.728   0.000   2.578
   30        0.870   1.691   0.000   2.561
   31        0.850   1.727   0.000   2.578
   32        0.869   1.691   0.000   2.560
   33        0.866   1.790   0.000   2.656
   34        0.871   1.807   0.000   2.678
   35        0.865   1.789   0.000   2.654
   36        0.868   1.796   0.000   2.664
   37        0.867   1.796   0.000   2.663
   38        0.867   1.796   0.000   2.663
   39        0.868   1.798   0.000   2.665
   40        0.868   1.798   0.000   2.667
   41        0.874   1.783   0.000   2.657
   42        0.876   1.785   0.000   2.660
   43        0.874   1.783   0.000   2.657
   44        0.876   1.785   0.000   2.661
   45        0.868   1.798   0.000   2.665
   46        0.868   1.798   0.000   2.667
   47        0.868   1.796   0.000   2.664
   48        0.866   1.790   0.000   2.656
   49        0.868   1.796   0.000   2.664
   50        0.866   1.790   0.000   2.656
   51        0.870   1.801   0.000   2.671
   52        0.866   1.789   0.000   2.656
   53        0.874   1.684   0.000   2.558
   54        0.862   1.760   0.000   2.621
   55        0.874   1.684   0.000   2.558
   56        0.862   1.759   0.000   2.621
   57        0.870   1.801   0.000   2.671
   58        0.866   1.789   0.000   2.656
   59        0.865   1.788   0.000   2.653
   60        0.864   1.787   0.000   2.651
   61        0.866   1.790   0.000   2.656
   62        0.866   1.794   0.000   2.659
   63        0.865   1.788   0.000   2.653
   64        0.864   1.787   0.000   2.651
   65        0.863   1.771   0.000   2.634
   66        0.863   1.780   0.000   2.643
   67        0.864   1.774   0.000   2.638
   68        0.863   1.776   0.000   2.639
   69        0.863   1.771   0.000   2.634
   70        0.863   1.780   0.000   2.643
   71        0.386   6.288   4.300  10.973
   72        1.036   1.403   0.000   2.439
   73        1.637   3.515   0.000   5.152
--------------------------------------------------
tot         63.993 136.665   4.300 204.958
 


 magnetization (x)
 
# of ion       s       p       d       tot
------------------------------------------
    1        0.001   0.012   0.000   0.013
    2       -0.000  -0.003   0.000  -0.004
    3        0.000   0.005   0.000   0.006
    4       -0.000  -0.002   0.000  -0.003
    5        0.000   0.005   0.000   0.006
    6       -0.000  -0.002   0.000  -0.003
    7        0.001   0.012   0.000   0.013
    8       -0.000  -0.003   0.000  -0.004
    9        0.001   0.015   0.000   0.016
   10       -0.001  -0.005   0.000  -0.005
   11        0.001   0.015   0.000   0.016
   12       -0.001  -0.005   0.000  -0.005
   13        0.000   0.004   0.000   0.005
   14       -0.000  -0.003   0.000  -0.004
   15        0.001   0.015   0.000   0.016
   16        0.000  -0.001   0.000  -0.001
   17        0.001   0.016   0.000   0.017
   18        0.001   0.026   0.000   0.027
   19        0.001   0.015   0.000   0.016
   20        0.000  -0.001   0.000  -0.001
   21        0.000   0.004   0.000   0.005
   22       -0.000  -0.003   0.000  -0.004
   23        0.001   0.013   0.000   0.014
   24       -0.001  -0.005   0.000  -0.005
   25        0.001   0.015   0.000   0.016
   26       -0.000  -0.004   0.000  -0.005
   27        0.000   0.005   0.000   0.006
   28       -0.000  -0.002   0.000  -0.002
   29       -0.001  -0.002   0.000  -0.003
   30        0.014   0.066   0.000   0.079
   31       -0.001  -0.002   0.000  -0.003
   32        0.014   0.065   0.000   0.079
   33        0.000   0.005   0.000   0.006
   34       -0.000  -0.002   0.000  -0.002
   35        0.001   0.015   0.000   0.016
   36       -0.000  -0.004   0.000  -0.005
   37        0.000   0.008   0.000   0.008
   38       -0.000  -0.002   0.000  -0.002
   39        0.001   0.013   0.000   0.013
   40       -0.000  -0.001   0.000  -0.001
   41        0.000   0.021   0.000   0.021
   42       -0.001   0.000   0.000  -0.001
   43        0.000   0.021   0.000   0.021
   44       -0.001   0.000   0.000  -0.001
   45        0.001   0.013   0.000   0.013
   46       -0.000  -0.001   0.000  -0.001
   47        0.000   0.006   0.000   0.006
   48       -0.000  -0.000   0.000  -0.000
   49        0.000   0.006   0.000   0.006
   50       -0.000  -0.000   0.000  -0.000
   51        0.001   0.010   0.000   0.010
   52       -0.000  -0.003   0.000  -0.003
   53        0.015   0.094   0.000   0.109
   54       -0.002  -0.012   0.000  -0.013
   55        0.015   0.093   0.000   0.109
   56       -0.002  -0.012   0.000  -0.013
   57        0.001   0.010   0.000   0.010
   58       -0.000  -0.003   0.000  -0.003
   59        0.000   0.008   0.000   0.009
   60       -0.000  -0.004   0.000  -0.004
   61        0.000   0.008   0.000   0.008
   62       -0.000  -0.000   0.000  -0.001
   63        0.000   0.008   0.000   0.009
   64       -0.000  -0.004   0.000  -0.005
   65        0.001   0.009   0.000   0.010
   66       -0.000  -0.005   0.000  -0.005
   67        0.003   0.042   0.000   0.044
   68       -0.001  -0.009   0.000  -0.010
   69        0.001   0.009   0.000   0.010
   70       -0.000  -0.005   0.000  -0.005
   71       -0.034   0.011  -1.903  -1.925
   72        0.000   0.000   0.000   0.000
   73       -0.000  -0.000   0.000  -0.000
--------------------------------------------------
tot          0.030   0.603  -1.903  -1.270
 
 BZINTS: Fermi energy: -2.098390;303.000000 electrons
         Band energy:***********;  BLOECHL correction: -0.002017

 total amount of memory used by VASP MPI-rank0   115989. kBytes
=======================================================================

   base      :      30000. kBytes
   nonl-proj :      27264. kBytes
   fftplans  :       4700. kBytes
   grid      :      15193. kBytes
   one-center:        217. kBytes
   wavefun   :      38615. kBytes
 
  
  
 General timing and accounting informations for this job:
 ========================================================
  
                  Total CPU time used (sec):      369.288
                            User time (sec):      359.269
                          System time (sec):       10.020
                         Elapsed time (sec):      382.998
  
                   Maximum memory used (kb):      477784.
                   Average memory used (kb):           0.
  
                          Minor page faults:      1891304
                          Major page faults:            0
                 Voluntary context switches:         9076
