       N       E                     dE             d eps       ncg     rms          rms(c)
DAV:   1     0.252493219847E+04    0.25249E+04   -0.11225E+05  4384   0.107E+03
DAV:   2    -0.241865760167E+03   -0.27668E+04   -0.26421E+04  5464   0.280E+02
DAV:   3    -0.700074898905E+03   -0.45821E+03   -0.45412E+03  4568   0.120E+02
DAV:   4    -0.716731117043E+03   -0.16656E+02   -0.16514E+02  4664   0.282E+01
DAV:   5    -0.717275427914E+03   -0.54431E+00   -0.54249E+00  5288   0.423E+00    0.479E+01
DAV:   6    -0.711401461799E+03    0.58740E+01   -0.73486E+01  4792   0.302E+01    0.722E+01
DAV:   7    -0.675373005915E+03    0.36028E+02   -0.75945E+01  5272   0.591E+01    0.254E+01
DAV:   8    -0.668389929792E+03    0.69831E+01   -0.29778E+01  4760   0.125E+01    0.221E+01
DAV:   9    -0.664466414341E+03    0.39235E+01   -0.23728E+01  4600   0.134E+01    0.144E+01
DAV:  10    -0.663421940837E+03    0.10445E+01   -0.76944E+00  5232   0.101E+01    0.762E+00
DAV:  11    -0.663306671321E+03    0.11527E+00   -0.99262E-01  4944   0.285E+00    0.508E+00
DAV:  12    -0.663206220974E+03    0.10045E+00   -0.39163E-01  4616   0.216E+00    0.271E+00
DAV:  13    -0.663218080880E+03   -0.11860E-01   -0.16913E-01  4776   0.113E+00    0.198E+00
DAV:  14    -0.663221888500E+03   -0.38076E-02   -0.34504E-02  4408   0.457E-01    0.167E+00
DAV:  15    -0.663222594648E+03   -0.70615E-03   -0.75199E-03  4832   0.222E-01    0.130E+00
DAV:  16    -0.663221236349E+03    0.13583E-02   -0.31040E-03  4864   0.152E-01    0.944E-01
DAV:  17    -0.663220826103E+03    0.41025E-03   -0.19404E-03  4872   0.980E-02    0.685E-01
DAV:  18    -0.663220794648E+03    0.31455E-04   -0.34628E-04  3472   0.461E-02
   1 F= -.66979226E+03 E0= -.66979226E+03  d E =0.000000E+00  mag=     0.9993
