       N       E                     dE             d eps       ncg     rms          rms(c)
DAV:   1     0.249367832318E+04    0.24937E+04   -0.98029E+04  3944   0.111E+03
DAV:   2     0.881419639207E+02   -0.24055E+04   -0.23082E+04  4896   0.271E+02
DAV:   3    -0.470548709826E+03   -0.55869E+03   -0.55413E+03  4212   0.143E+02
DAV:   4    -0.496008135441E+03   -0.25459E+02   -0.24776E+02  4152   0.410E+01
DAV:   5    -0.497386495202E+03   -0.13784E+01   -0.13634E+01  5176   0.824E+00    0.356E+01
DAV:   6    -0.477321517374E+03    0.20065E+02   -0.62808E+01  4336   0.192E+01    0.206E+01
DAV:   7    -0.475849187832E+03    0.14723E+01   -0.31510E+01  4248   0.146E+01    0.145E+01
DAV:   8    -0.474657862324E+03    0.11913E+01   -0.15175E+01  4160   0.105E+01    0.103E+01
DAV:   9    -0.474856311917E+03   -0.19845E+00   -0.17613E+01  4864   0.810E+00    0.631E+00
DAV:  10    -0.474086137508E+03    0.77017E+00   -0.74436E+00  4520   0.663E+00    0.322E+00
DAV:  11    -0.473988600946E+03    0.97537E-01   -0.33551E+00  4424   0.390E+00    0.242E+00
DAV:  12    -0.473890872538E+03    0.97728E-01   -0.16215E+00  4752   0.242E+00    0.137E+00
DAV:  13    -0.473860188882E+03    0.30684E-01   -0.19168E-01  3992   0.113E+00    0.785E-01
DAV:  14    -0.473854922336E+03    0.52665E-02   -0.11314E-01  4208   0.686E-01    0.496E-01
DAV:  15    -0.473857221492E+03   -0.22992E-02   -0.12932E-01  4184   0.571E-01    0.558E-01
DAV:  16    -0.473852682716E+03    0.45388E-02   -0.68912E-02  4200   0.400E-01    0.221E-01
DAV:  17    -0.473852925330E+03   -0.24261E-03   -0.87595E-03  3888   0.167E-01    0.118E-01
DAV:  18    -0.473853098451E+03   -0.17312E-03   -0.29863E-03  4032   0.903E-02    0.121E-01
DAV:  19    -0.473853299486E+03   -0.20104E-03   -0.25086E-03  3376   0.570E-02    0.125E-01
DAV:  20    -0.473852831705E+03    0.46778E-03   -0.22744E-03  2768   0.504E-02    0.853E-02
DAV:  21    -0.473852690342E+03    0.14136E-03   -0.33975E-03  3544   0.547E-02    0.343E-02
DAV:  22    -0.473852899610E+03   -0.20927E-03   -0.30334E-04  2272   0.370E-02    0.197E-02
DAV:  23    -0.473852898862E+03    0.74728E-06   -0.12487E-04  2072   0.235E-02
   1 F= -.47753503E+03 E0= -.47753503E+03  d E =0.000000E+00  mag=    -0.0000
