       N       E                     dE             d eps       ncg     rms          rms(c)
DAV:   1     0.242361142861E+04    0.24236E+04   -0.93635E+04  3864   0.109E+03
DAV:   2     0.946984318263E+02   -0.23289E+04   -0.22249E+04  4792   0.266E+02
DAV:   3    -0.456650254227E+03   -0.55135E+03   -0.54674E+03  4232   0.142E+02
DAV:   4    -0.481594711204E+03   -0.24944E+02   -0.24217E+02  4096   0.404E+01
DAV:   5    -0.482840271310E+03   -0.12456E+01   -0.12321E+01  5096   0.787E+00    0.347E+01
DAV:   6    -0.462927591011E+03    0.19913E+02   -0.58333E+01  4216   0.190E+01    0.203E+01
DAV:   7    -0.461607430732E+03    0.13202E+01   -0.21746E+01  4256   0.150E+01    0.143E+01
DAV:   8    -0.460380068224E+03    0.12274E+01   -0.88865E+00  4032   0.106E+01    0.103E+01
DAV:   9    -0.460654791889E+03   -0.27472E+00   -0.17223E+01  4760   0.835E+00    0.648E+00
DAV:  10    -0.459856640679E+03    0.79815E+00   -0.69123E+00  4312   0.678E+00    0.327E+00
DAV:  11    -0.459750726177E+03    0.10591E+00   -0.20468E+00  4344   0.404E+00    0.254E+00
DAV:  12    -0.459631229946E+03    0.11950E+00   -0.14490E+00  4672   0.254E+00    0.136E+00
DAV:  13    -0.459603066236E+03    0.28164E-01   -0.13145E-01  3824   0.117E+00    0.772E-01
DAV:  14    -0.459597018821E+03    0.60474E-02   -0.76783E-02  4160   0.665E-01    0.430E-01
DAV:  15    -0.459597441660E+03   -0.42284E-03   -0.58219E-02  4040   0.458E-01    0.396E-01
DAV:  16    -0.459596256161E+03    0.11855E-02   -0.46034E-02  4064   0.346E-01    0.277E-01
DAV:  17    -0.459595655901E+03    0.60026E-03   -0.14735E-02  3984   0.194E-01    0.121E-01
DAV:  18    -0.459595750968E+03   -0.95067E-04   -0.24856E-03  3584   0.967E-02    0.766E-02
DAV:  19    -0.459595710415E+03    0.40553E-04   -0.70273E-04  2288   0.523E-02
   1 F= -.46325793E+03 E0= -.46325793E+03  d E =0.000000E+00  mag=    -0.0000
