 vasp.5.4.4.18Apr17-6-g9f103f2a35 (build Jan 14 2022 15:04:31) complex          
  
 executed on             LinuxIFC date 2023.04.05  11:31:18
 running on   48 total cores
 distrk:  each k-point on   48 cores,    1 groups
 distr:  one band on NCORES_PER_BAND=  12 cores,    4 groups


--------------------------------------------------------------------------------------------------------


 INCAR:
 POTCAR:    PAW_PBE C 08Apr2002                   
 POTCAR:    PAW_PBE N 08Apr2002                   
 POTCAR:    PAW_PBE Ge_d 03Jul2007                
 POTCAR:    PAW_PBE C 08Apr2002                   
   SHA256 =  253f7b50bb8d59471dbedb8285d89021f4a42ed1a2c5d38a03a736e69125dd95 C/
   COPYR  = (c) Copyright 08Apr2002 Georg Kresse                                
   COPYR  = This file is part of the software VASP. Any use, copying, and all ot
   COPYR  = If you do not have a valid VASP license, you may not use, copy or di
   VRHFIN =C: s2p2                                                              
   LEXCH  = PE                                                                  
   EATOM  =   147.1560 eV,   10.8157 Ry                                         
                                                                                
   TITEL  = PAW_PBE C 08Apr2002                                                 
   LULTRA =        F    use ultrasoft PP ?                                      
   IUNSCR =        1    unscreen: 0-lin 1-nonlin 2-no                           
   RPACOR =    1.200    partial core radius                                     
   POMASS =   12.011; ZVAL   =    4.000    mass and valenz                      
   RCORE  =    1.500    outmost cutoff radius                                   
   RWIGS  =    1.630; RWIGS  =    0.863    wigner-seitz radius (au A)           
   ENMAX  =  400.000; ENMIN  =  300.000 eV                                      
   ICORE  =        2    local potential                                         
   LCOR   =        T    correct aug charges                                     
   LPAW   =        T    paw PP                                                  
   EAUG   =  644.873                                                            
   DEXC   =    0.000                                                            
   RMAX   =    1.529    core radius for proj-oper                               
   RAUG   =    1.300    factor for augmentation sphere                          
   RDEP   =    1.501    radius for radial grids                                 
   RDEPT  =    1.300    core radius for aug-charge                              
                                                                                
   Atomic configuration                                                         
    4 entries                                                                   
     n  l   j            E        occ.                                          
     1  0  0.50      -273.3789   2.0000                                         
     2  0  0.50       -13.7508   2.0000                                         
     2  1  0.50        -5.2854   2.0000                                         
     3  2  1.50        -5.4423   0.0000                                         
   Description                                                                  
     l       E           TYP  RCUT    TYP  RCUT                                 
     0    -13.7508458     23  1.200                                             
     0     -8.2022199     23  1.200                                             
     1     -5.2854383     23  1.500                                             
     1     34.0145650     23  1.500                                             
     2     -5.4423304      7  1.500                                             
  local pseudopotential read in
  partial core-charges read in
  partial kinetic energy density read in
  atomic valenz-charges read in
  non local Contribution for L=           0  read in
    real space projection operators read in
  non local Contribution for L=           0  read in
    real space projection operators read in
  non local Contribution for L=           1  read in
    real space projection operators read in
  non local Contribution for L=           1  read in
    real space projection operators read in
    PAW grid and wavefunctions read in
 
   number of l-projection  operators is LMAX  =           4
   number of lm-projection operators is LMMAX =           8
 
 POTCAR:    PAW_PBE N 08Apr2002                   
   SHA256 =  e053789ff3a61a86a1b75d8a110fcc91f86041011e7b0817c7c99e4e8a6349d7 N/
   COPYR  = (c) Copyright 08Apr2002 Georg Kresse                                
   COPYR  = This file is part of the software VASP. Any use, copying, and all ot
   COPYR  = If you do not have a valid VASP license, you may not use, copy or di
   VRHFIN =N: s2p3                                                              
   LEXCH  = PE                                                                  
   EATOM  =   264.5486 eV,   19.4438 Ry                                         
                                                                                
   TITEL  = PAW_PBE N 08Apr2002                                                 
   LULTRA =        F    use ultrasoft PP ?                                      
   IUNSCR =        1    unscreen: 0-lin 1-nonlin 2-no                           
   RPACOR =    1.200    partial core radius                                     
   POMASS =   14.001; ZVAL   =    5.000    mass and valenz                      
   RCORE  =    1.500    outmost cutoff radius                                   
   RWIGS  =    1.400; RWIGS  =    0.741    wigner-seitz radius (au A)           
   ENMAX  =  400.000; ENMIN  =  300.000 eV                                      
   ICORE  =        2    local potential                                         
   LCOR   =        T    correct aug charges                                     
   LPAW   =        T    paw PP                                                  
   EAUG   =  627.112                                                            
   DEXC   =    0.000                                                            
   RMAX   =    1.529    core radius for proj-oper                               
   RAUG   =    1.300    factor for augmentation sphere                          
   RDEP   =    1.514    radius for radial grids                                 
   RDEPT  =    1.338    core radius for aug-charge                              
                                                                                
   Atomic configuration                                                         
    4 entries                                                                   
     n  l   j            E        occ.                                          
     1  0  0.50      -384.7179   2.0000                                         
     2  0  0.50       -18.5828   2.0000                                         
     2  1  0.50        -7.0898   3.0000                                         
     3  2  1.50        -6.8029   0.0000                                         
   Description                                                                  
     l       E           TYP  RCUT    TYP  RCUT                                 
     0    -18.5828119     23  1.200                                             
     0    -13.5018863     23  1.200                                             
     1     -7.0897853     23  1.500                                             
     1      9.5240782     23  1.500                                             
     2     -6.8029130      7  1.500                                             
  local pseudopotential read in
  partial core-charges read in
  partial kinetic energy density read in
  atomic valenz-charges read in
  non local Contribution for L=           0  read in
    real space projection operators read in
  non local Contribution for L=           0  read in
    real space projection operators read in
  non local Contribution for L=           1  read in
    real space projection operators read in
  non local Contribution for L=           1  read in
    real space projection operators read in
    PAW grid and wavefunctions read in
 
   number of l-projection  operators is LMAX  =           4
   number of lm-projection operators is LMMAX =           8
 
 POTCAR:    PAW_PBE Ge_d 03Jul2007                
   SHA256 =  944b26c40d2d7c4f4eb1ff3a2e8dbfdd7129146276cd341854bfd5c0e57780ed Ge
   COPYR  = (c) Copyright 03Jul2007 Georg Kresse                                
   COPYR  = This file is part of the software VASP. Any use, copying, and all ot
   COPYR  = If you do not have a valid VASP license, you may not use, copy or di
   VRHFIN =Ge: 3d4s4p                                                           
   LEXCH  = PE                                                                  
   EATOM  =  2596.2402 eV,  190.8183 Ry                                         
                                                                                
   TITEL  = PAW_PBE Ge_d 03Jul2007                                              
   LULTRA =        F    use ultrasoft PP ?                                      
   IUNSCR =        1    unscreen: 0-lin 1-nonlin 2-no                           
   RPACOR =    2.000    partial core radius                                     
   POMASS =   72.610; ZVAL   =   14.000    mass and valenz                      
   RCORE  =    2.300    outmost cutoff radius                                   
   RWIGS  =    2.300; RWIGS  =    1.217    wigner-seitz radius (au A)           
   ENMAX  =  310.294; ENMIN  =  232.720 eV                                      
   ICORE  =        3    local potential                                         
   LCOR   =        T    correct aug charges                                     
   LPAW   =        T    paw PP                                                  
   EAUG   =  531.356                                                            
   DEXC   =    0.000                                                            
   RMAX   =    2.342    core radius for proj-oper                               
   RAUG   =    1.300    factor for augmentation sphere                          
   RDEP   =    2.318    radius for radial grids                                 
   RDEPT  =    1.783    core radius for aug-charge                              
                                                                                
   Atomic configuration                                                         
    9 entries                                                                   
     n  l   j            E        occ.                                          
     1  0  0.50    -10959.8463   2.0000                                         
     2  0  0.50     -1371.6056   2.0000                                         
     2  1  1.50     -1198.4791   6.0000                                         
     3  0  0.50      -168.4733   2.0000                                         
     3  1  1.50      -115.6019   6.0000                                         
     3  2  2.50       -29.3106  10.0000                                         
     4  0  0.50       -11.7309   2.0000                                         
     4  1  0.50        -3.8952   2.0000                                         
     4  3  2.50        -4.0817   0.0000                                         
   Description                                                                  
     l       E           TYP  RCUT    TYP  RCUT                                 
     2    -29.3105938     23  2.200                                             
     2    -13.6058260     23  2.200                                             
     0    -11.7309493     23  2.300                                             
     0     -7.4578696     23  2.300                                             
     1     -3.8952261     23  2.300                                             
     1      6.1178114     23  2.300                                             
     3     -1.3605826     23  2.300                                             
  local pseudopotential read in
  partial core-charges read in
  partial kinetic energy density read in
  atomic valenz-charges read in
  non local Contribution for L=           2  read in
    real space projection operators read in
  non local Contribution for L=           2  read in
    real space projection operators read in
  non local Contribution for L=           0  read in
    real space projection operators read in
  non local Contribution for L=           0  read in
    real space projection operators read in
  non local Contribution for L=           1  read in
    real space projection operators read in
  non local Contribution for L=           1  read in
    real space projection operators read in
    PAW grid and wavefunctions read in
 
   number of l-projection  operators is LMAX  =           6
   number of lm-projection operators is LMMAX =          18
 

 ----------------------------------------------------------------------------- 
|                                                                             |
|  ADVICE TO THIS USER RUNNING 'VASP/VAMP'   (HEAR YOUR MASTER'S VOICE ...):  |
|                                                                             |
|      You have a (more or less) 'large supercell' and for larger cells       |
|      it might be more efficient to use real space projection opertators     |
|      So try LREAL= Auto  in the INCAR   file.                               |
|      Mind:          For very  accurate calculation you might also keep the  |
|      reciprocal projection scheme          (i.e. LREAL=.FALSE.)             |
|                                                                             |
 ----------------------------------------------------------------------------- 

  PAW_PBE C 08Apr2002                   :
 energy of atom  1       EATOM= -147.1560
 kinetic energy error for atom=    0.0132 (will be added to EATOM!!)
  PAW_PBE N 08Apr2002                   :
 energy of atom  2       EATOM= -264.5486
 kinetic energy error for atom=    0.0298 (will be added to EATOM!!)
  PAW_PBE Ge_d 03Jul2007                :
 energy of atom  3       EATOM=-2596.2402
 kinetic energy error for atom=    0.0090 (will be added to EATOM!!)
 
 
 POSCAR: POSCAR-c3n4                             
  positions in cartesian coordinates
  No initial velocities read in
 exchange correlation table for  LEXCH =        8
   RHO(1)=    0.500       N(1)  =     2000
   RHO(2)=  100.500       N(2)  =     4000

 VTST: version 3.2, (02/03/18)

 CHAIN: initializing optimizer
 
 OPT: Using VASP Dynamics algorithm
 CHAIN: Read ICHAIN            0
 
 POSCAR: POSCAR-c3n4                             
  positions in cartesian coordinates
  No initial velocities read in
 


--------------------------------------------------------------------------------------------------------


 ion  position               nearest neighbor table
   1  0.106  0.214  0.426-  26 1.45  46 1.45  25 1.53
   2  0.288  0.399  0.433-  29 1.43  35 1.50  25 1.55
   3  0.104  0.392  0.427-  44 1.42  39 1.49  25 1.54
   4  0.447  0.064  0.506-  30 1.43  27 1.44  48 1.52
   5  0.453  0.401  0.413-  28 1.44  29 1.45  56 1.54
   6  0.112  0.053  0.449-  26 1.43  31 1.44  32 1.51
   7  0.096  0.712  0.484-  54 1.44  34 1.47  33 1.52
   8  0.284  0.890  0.501-  27 1.44  37 1.46  33 1.53
   9  0.109  0.895  0.498-  31 1.43  52 1.45  33 1.55
  10  0.448  0.548  0.502-  38 1.43  56 1.46  35 1.47
  11  0.445  0.885  0.489-  37 1.44  36 1.45  48 1.49
  12  0.087  0.542  0.481-  34 1.43  40 1.45  39 1.47
  13  0.616  0.223  0.473-  42 1.46  30 1.46  41 1.52
  14  0.780  0.390  0.400-  45 1.46  51 1.47  41 1.52
  15  0.610  0.394  0.435-  28 1.45  55 1.45  41 1.57
  16  0.940  0.052  0.461-  46 1.42  43 1.44  32 1.51
  17  0.941  0.387  0.394-  45 1.43  44 1.45  40 1.54
  18  0.623  0.066  0.512-  42 1.43  47 1.45  48 1.52
  19  0.613  0.711  0.531-  50 1.43  38 1.47  49 1.52
  20  0.790  0.897  0.523-  43 1.43  53 1.45  49 1.56
  21  0.609  0.892  0.521-  47 1.44  36 1.45  49 1.55
  22  0.938  0.563  0.421-  51 1.41  54 1.46  40 1.53
  23  0.954  0.902  0.535-  52 1.45  53 1.45  32 1.51
  24  0.621  0.555  0.490-  55 1.42  50 1.44  56 1.53
  25  0.167  0.335  0.425-   1 1.53   3 1.54   2 1.55
  26  0.165  0.161  0.421-   6 1.43   1 1.45
  27  0.336  0.002  0.522-   8 1.44   4 1.44
  28  0.512  0.352  0.392-   5 1.44  15 1.45
  29  0.345  0.361  0.390-   2 1.43   5 1.45
  30  0.506  0.177  0.493-   4 1.43  13 1.46
  31  0.159  0.988  0.447-   9 1.43   6 1.44
  32  0.002  0.002  0.483-  16 1.51  23 1.51   6 1.51
  33  0.165  0.831  0.500-   7 1.52   8 1.53   9 1.55
  34  0.134  0.645  0.518-  12 1.43   7 1.47
  35  0.334  0.491  0.492-  10 1.47   2 1.50  57 2.23
  36  0.503  0.831  0.490-  11 1.45  21 1.45
  37  0.333  0.829  0.479-  11 1.44   8 1.46
  38  0.499  0.648  0.545-  10 1.43  19 1.47
  39  0.142  0.484  0.485-  12 1.47   3 1.49  57 2.24
  40  0.988  0.496  0.436-  12 1.45  22 1.53  17 1.54
  41  0.667  0.330  0.429-  13 1.52  14 1.52  15 1.57
  42  0.680  0.178  0.495-  18 1.43  13 1.46
  43  0.827  0.986  0.468-  20 1.43  16 1.44
  44  0.011  0.348  0.379-   3 1.42  17 1.45
  45  0.830  0.330  0.380-  17 1.43  14 1.46
  46  0.993  0.161  0.435-  16 1.42   1 1.45
  47  0.669  0.005  0.539-  21 1.44  18 1.45
  48  0.505  0.004  0.498-  11 1.49  18 1.52   4 1.52
  49  0.668  0.832  0.534-  19 1.52  21 1.55  20 1.56
  50  0.675  0.666  0.512-  19 1.43  24 1.44
  51  0.832  0.507  0.396-  22 1.41  14 1.47
  52  0.016  0.853  0.549-  23 1.45   9 1.45
  53  0.849  0.860  0.566-  20 1.45  23 1.45
  54  0.004  0.677  0.435-   7 1.44  22 1.46
  55  0.668  0.491  0.484-  24 1.42  15 1.45
  56  0.506  0.502  0.467-  10 1.46  24 1.53   5 1.54
  57  0.287  0.593  0.558-  35 2.23  39 2.24
 

IMPORTANT INFORMATION: All symmetrisations will be switched off!
NOSYMM: (Re-)initialisation of all symmetry stuff for point group C_1.

 
 
 KPOINTS: K-Points                                

Automatic generation of k-mesh.
Space group operators:
 irot       det(A)        alpha          n_x          n_y          n_z        tau_x        tau_y        tau_z
    1     1.000000     0.000001     1.000000     0.000000     0.000000     0.000000     0.000000     0.000000
 
 Subroutine IBZKPT returns following result:
 ===========================================
 
 Found      5 irreducible k-points:
 
 Following reciprocal coordinates:
            Coordinates               Weight
  0.000000  0.000000  0.000000      1.000000
  0.333333  0.000000  0.000000      2.000000
 -0.000000  0.333333  0.000000      2.000000
  0.333333  0.333333  0.000000      2.000000
 -0.333333  0.333333  0.000000      2.000000
 
 Following cartesian coordinates:
            Coordinates               Weight
  0.000000  0.000000  0.000000      1.000000
  0.024277  0.014368  0.000000      2.000000
  0.000396  0.028736  0.000000      2.000000
  0.024673  0.043104  0.000000      2.000000
 -0.023881  0.014368  0.000000      2.000000
 
 TETIRR: Found     24 inequivalent tetrahedra from       54


--------------------------------------------------------------------------------------------------------




 Dimension of arrays:
   k-points           NKPTS =      5   k-points in BZ     NKDIM =      5   number of bands    NBANDS=    168
   number of dos      NEDOS =   4000   number of ions     NIONS =     57
   non local maximal  LDIM  =      6   non local SUM 2l+1 LMDIM =     18
   total plane-waves  NPLWV = 537600
   max r-space proj   IRMAX =      1   max aug-charges    IRDMAX=   6157
   dimension x,y,z NGX =    80 NGY =   80 NGZ =   84
   dimension x,y,z NGXF=   160 NGYF=  160 NGZF=  168
   support grid    NGXF=   160 NGYF=  160 NGZF=  168
   ions per type =              24  32   1
   NGX,Y,Z   is equivalent  to a cutoff of   8.89,  9.06,  8.62 a.u.
   NGXF,Y,Z  is equivalent  to a cutoff of  17.79, 18.12, 17.24 a.u.

 SYSTEM =  unknown system                          
 POSCAR =  POSCAR-c3n4                             

 Startparameter for this run:
   NWRITE =      2    write-flag & timer
   PREC   = normal    normal or accurate (medium, high low for compatibility)
   ISTART =      0    job   : 0-new  1-cont  2-samecut
   ICHARG =      2    charge: 1-file 2-atom 10-const
   ISPIN  =      2    spin polarized calculation?
   LNONCOLLINEAR =      F non collinear calculations
   LSORBIT =      F    spin-orbit coupling
   INIWAV =      1    electr: 0-lowe 1-rand  2-diag
   LASPH  =      F    aspherical Exc in radial PAW
   METAGGA=      F    non-selfconsistent MetaGGA calc.

 Electronic Relaxation 1
   ENCUT  =  440.0 eV  32.34 Ry    5.69 a.u.  25.57 25.10 27.71*2*pi/ulx,y,z
   ENINI  =  440.0     initial cutoff
   ENAUG  =  644.9 eV  augmentation charge cutoff
   NELM   =    100;   NELMIN=  2; NELMDL= -5     # of ELM steps 
   EDIFF  = 0.1E-03   stopping-criterion for ELM
   LREAL  =      F    real-space projection
   NLSPLINE    = F    spline interpolate recip. space projectors
   LCOMPAT=      F    compatible to vasp.4.4
   GGA_COMPAT  = T    GGA compatible to vasp.4.4-vasp.4.6
   LMAXPAW     = -100 max onsite density
   LMAXMIX     =    2 max onsite mixed and CHGCAR
   VOSKOWN=      0    Vosko Wilk Nusair interpolation
   ROPT   =    0.00000   0.00000   0.00000
 Ionic relaxation
   EDIFFG = -.1E-01   stopping-criterion for IOM
   NSW    =      0    number of steps for IOM
   NBLOCK =      1;   KBLOCK =      1    inner block; outer block 
   IBRION =     -1    ionic relax: 0-MD 1-quasi-New 2-CG
   NFREE  =      0    steps in history (QN), initial steepest desc. (CG)
   ISIF   =      2    stress and relaxation
   IWAVPR =     10    prediction:  0-non 1-charg 2-wave 3-comb
   ISYM   =      0    0-nonsym 1-usesym 2-fastsym
   LCORR  =      T    Harris-Foulkes like correction to forces

   POTIM  = 0.5000    time-step for ionic-motion
   TEIN   =    0.0    initial temperature
   TEBEG  =    0.0;   TEEND  =   0.0 temperature during run
   SMASS  =  -3.00    Nose mass-parameter (am)
   estimated Nose-frequenzy (Omega)   =  0.10E-29 period in steps =****** mass=  -0.511E-26a.u.
   SCALEE = 1.0000    scale energy and forces
   NPACO  =    256;   APACO  = 16.0  distance and # of slots for P.C.
   PSTRESS=    0.0 pullay stress

  Mass of Ions in am
   POMASS =  12.01 14.00 72.61
  Ionic Valenz
   ZVAL   =   4.00  5.00 14.00
  Atomic Wigner-Seitz radii
   RWIGS  =  -1.00 -1.00 -1.00
  virtual crystal weights 
   VCA    =   1.00  1.00  1.00
   NELECT =     270.0000    total number of electrons
   NUPDOWN=      -1.0000    fix difference up-down

 DOS related values:
   EMIN   = -14.00;   EMAX   =  6.00  energy-range for DOS
   EFERMI =   0.00
   ISMEAR =    -5;   SIGMA  =   0.20  broadening in eV -4-tet -1-fermi 0-gaus

 Electronic relaxation 2 (details)
   IALGO  =     38    algorithm
   LDIAG  =      T    sub-space diagonalisation (order eigenvalues)
   LSUBROT=      F    optimize rotation matrix (better conditioning)
   TURBO    =      0    0=normal 1=particle mesh
   IRESTART =      0    0=no restart 2=restart with 2 vectors
   NREBOOT  =      0    no. of reboots
   NMIN     =      0    reboot dimension
   EREF     =   0.00    reference energy to select bands
   IMIX   =      4    mixing-type and parameters
     AMIX     =   0.25;   BMIX     =  0.00
     AMIX_MAG =   1.00;   BMIX_MAG =  0.00
     AMIN     =   0.10
     WC   =   100.;   INIMIX=   1;  MIXPRE=   1;  MAXMIX= -45

 Intra band minimization:
   WEIMIN = 0.0000     energy-eigenvalue tresh-hold
   EBREAK =  0.15E-06  absolut break condition
   DEPER  =   0.30     relativ break condition  

   TIME   =   0.40     timestep for ELM

  volume/ion in A,a.u.               =      53.23       359.24
  Fermi-wavevector in a.u.,A,eV,Ry     =   0.730876  1.381155  7.267954  0.534180
  Thomas-Fermi vector in A             =   1.822954
 
 Write flags
   LWAVE        =      F    write WAVECAR
   LDOWNSAMPLE  =      F    k-point downsampling of WAVECAR
   LCHARG       =      F    write CHGCAR
   LVTOT        =      F    write LOCPOT, total local potential
   LVHAR        =      F    write LOCPOT, Hartree potential only
   LELF         =      F    write electronic localiz. function (ELF)
   LORBIT       =     11    0 simple, 1 ext, 2 COOP (PROOUT), +10 PAW based schemes


 Dipole corrections
   LMONO  =      F    monopole corrections only (constant potential shift)
   LDIPOL =      F    correct potential (dipole corrections)
   IDIPOL =      0    1-x, 2-y, 3-z, 4-all directions 
   EPSILON=  1.0000000 bulk dielectric constant

 Exchange correlation treatment:
   GGA     =    --    GGA type
   LEXCH   =     8    internal setting for exchange type
   VOSKOWN=      0    Vosko Wilk Nusair interpolation
   LHFCALC =     F    Hartree Fock is set to
   LHFONE  =     F    Hartree Fock one center treatment
   AEXX    =    0.0000 exact exchange contribution

 Linear response parameters
   LEPSILON=     F    determine dielectric tensor
   LRPA    =     F    only Hartree local field effects (RPA)
   LNABLA  =     F    use nabla operator in PAW spheres
   LVEL    =     F    velocity operator in full k-point grid
   LINTERFAST=   F  fast interpolation
   KINTER  =     0    interpolate to denser k-point grid
   CSHIFT  =0.1000    complex shift for real part using Kramers Kronig
   OMEGAMAX=  -1.0    maximum frequency
   DEG_THRESHOLD= 0.2000000E-02 threshold for treating states as degnerate
   RTIME   =   -0.100 relaxation time in fs
  (WPLASMAI=    0.000 imaginary part of plasma frequency in eV, 0.658/RTIME)
   DFIELD  = 0.0000000 0.0000000 0.0000000 field for delta impulse in time
 
 Orbital magnetization related:
   ORBITALMAG=     F  switch on orbital magnetization
   LCHIMAG   =     F  perturbation theory with respect to B field
   DQ        =  0.001000  dq finite difference perturbation B field
   LLRAUG    =     F  two centre corrections for induced B field



--------------------------------------------------------------------------------------------------------


 Static calculation
 charge density and potential will be updated during run
 spin polarized calculation
 Variant of blocked Davidson
 Davidson routine will perform the subspace rotation
 perform sub-space diagonalisation
    after iterative eigenvector-optimisation
 modified Broyden-mixing scheme, WC =      100.0
 initial mixing is a Kerker type mixing with AMIX =  0.2500 and BMIX =      0.0001
 Hartree-type preconditioning will be used
 using additional bands           33
 reciprocal scheme for non local part
 use partial core corrections
 calculate Harris-corrections to forces 
   (improved forces if not selfconsistent)
 use gradient corrections 
 use of overlap-Matrix (Vanderbilt PP)
 Fermi weights with tetrahedron method with Bloechl corrections


--------------------------------------------------------------------------------------------------------


  energy-cutoff  :      440.00
  volume of cell :     3034.29
      direct lattice vectors                 reciprocal lattice vectors
    14.950898173 -0.205999712  0.000000000     0.067435527  0.039911217  0.000000000
    -7.475449087 12.630806273  0.000000000     0.001099827  0.079822434  0.000000000
     0.000000000  0.000000000 16.200000000     0.000000000  0.000000000  0.061728395

  length of vectors
    14.952317281 14.677179776 16.200000000     0.078361059  0.079830011  0.061728395


 
 k-points in units of 2pi/SCALE and weight: K-Points                                
   0.00000000  0.00000000  0.00000000       0.111
   0.02427679  0.01436804  0.00000000       0.222
   0.00039594  0.02873608  0.00000000       0.222
   0.02467273  0.04310411  0.00000000       0.222
  -0.02388085  0.01436804  0.00000000       0.222
 
 k-points in reciprocal lattice and weights: K-Points                                
   0.00000000  0.00000000  0.00000000       0.111
   0.33333333  0.00000000  0.00000000       0.222
  -0.00000000  0.33333333  0.00000000       0.222
   0.33333333  0.33333333  0.00000000       0.222
  -0.33333333  0.33333333  0.00000000       0.222
 
 position of ions in fractional coordinates (direct lattice) 
   0.10567936  0.21351909  0.42646415
   0.28750403  0.39866334  0.43315811
   0.10379301  0.39177313  0.42728737
   0.44732828  0.06383887  0.50569377
   0.45258916  0.40124889  0.41252546
   0.11203481  0.05273921  0.44868132
   0.09638015  0.71191070  0.48390127
   0.28433946  0.89006364  0.50120122
   0.10941441  0.89537413  0.49812536
   0.44792521  0.54827090  0.50190381
   0.44544784  0.88520183  0.48897001
   0.08690842  0.54210436  0.48067119
   0.61614813  0.22292684  0.47270451
   0.78023735  0.38968276  0.39988272
   0.61037743  0.39432339  0.43546161
   0.93951642  0.05229783  0.46070020
   0.94071854  0.38652888  0.39388003
   0.62278394  0.06558106  0.51203168
   0.61322902  0.71118454  0.53124878
   0.78984871  0.89727295  0.52288011
   0.60944297  0.89248269  0.52132702
   0.93832005  0.56283419  0.42050954
   0.95436023  0.90171878  0.53466451
   0.62130548  0.55465507  0.48986027
   0.16668926  0.33545237  0.42502835
   0.16473950  0.16097029  0.42095206
   0.33626584  0.00180669  0.52215766
   0.51175722  0.35246859  0.39238613
   0.34471728  0.36074551  0.38975287
   0.50565751  0.17673507  0.49315170
   0.15873210  0.98821904  0.44665654
   0.00214731  0.00186372  0.48284181
   0.16462634  0.83083069  0.50025956
   0.13400723  0.64526801  0.51778798
   0.33371346  0.49116238  0.49155062
   0.50288345  0.83078126  0.48972341
   0.33307237  0.82932770  0.47937372
   0.49902190  0.64803204  0.54483375
   0.14173676  0.48364631  0.48511610
   0.98839512  0.49595573  0.43598798
   0.66736443  0.33015381  0.42931770
   0.67970142  0.17802103  0.49523771
   0.82720183  0.98622484  0.46784919
   0.01097216  0.34809993  0.37880244
   0.83047981  0.33016544  0.37952861
   0.99296173  0.16101876  0.43513088
   0.66886761  0.00524437  0.53948092
   0.50484899  0.00388347  0.49830916
   0.66830364  0.83227641  0.53419919
   0.67536455  0.66551462  0.51246466
   0.83211404  0.50666912  0.39574663
   0.01584380  0.85299492  0.54867721
   0.84924332  0.85956436  0.56604968
   0.00424175  0.67726383  0.43455477
   0.66753141  0.49127771  0.48382075
   0.50565566  0.50179634  0.46716125
   0.28676550  0.59288202  0.55779478
 
 position of ions in cartesian coordinates  (Angst):
  -0.01614968  2.67514829  6.90871926
   1.31825593  4.97621365  7.01716143
  -1.37688144  4.92702919  6.92205541
   6.21073536  0.71418686  8.19223901
   3.76709871  4.97486380  6.68291246
   1.28077177  0.64305965  7.26863741
  -3.88088241  8.97215187  7.83920060
  -2.40249514 11.18364754  8.11945981
  -5.05748010 11.28675786  8.06963080
   2.59831306  6.83283107  8.13084169
   0.04256412 11.08905072  7.92131409
  -2.75311469  6.82931210  7.78687322
   7.54548970  2.68881941  7.65781302
   8.75219549  4.76127882  6.47810005
   6.17794631  4.85488482  7.05447813
  13.65566463  0.46702361  7.46334327
  11.17511017  4.68838369  6.38085652
   8.82093140  0.70004829  8.29491317
   3.85190087  8.85650918  8.60623020
   5.10142935 11.17057224  8.47065771
   2.44001085 11.14723083  8.44549776
   9.82128917  6.91575600  6.81225456
   7.52778972 11.19283732  8.66156512
   5.14277927  6.87775203  7.93573632
  -0.01550296  4.20269598  6.88545924
   1.25967834  1.99924821  6.81942335
   5.01397046 -0.04645075  8.45895404
   5.01636915  4.34654060  6.35665538
   2.45709823  4.48549501  6.31399655
   6.23885986  2.12814119  7.98905751
  -5.01419374 12.44930450  7.23583599
   0.01817209  0.02309794  7.82203737
  -3.74952078 10.46014848  8.10420492
  -2.82013970  8.12264975  8.38816523
   1.31765666  6.13503195  7.96312003
   1.30809628 10.38984324  7.93351932
  -1.21986593 10.40646469  7.76585431
   2.61649510  8.08236880  8.82630678
  -1.49638151  6.07964506  7.85888085
  11.06990301  6.06071167  7.06300523
   7.50964964  4.03263197  6.95494677
   8.83135963  2.10853083  8.02285089
   4.99493681 12.28641154  7.57915684
  -2.43815966  4.39452246  6.13659953
   9.94828410  3.99917711  6.14836349
  13.64198211  1.82924692  7.04912018
   9.96096761 -0.07154596  8.73959084
   7.51891519 -0.05494739  8.07260839
   3.77009982 10.37465171  8.65402694
   5.12228591  8.26686135  8.30192747
   8.65327301  6.22822428  6.41109540
  -6.13964111 10.77074979  8.88857084
   6.27132078 10.68204709  9.17000480
  -4.99943336  8.55351447  7.03978728
   6.30767256  6.06772232  7.83789610
   3.80885326  6.23392749  7.56801220
  -0.14465760  7.42950439  9.03627549
 


--------------------------------------------------------------------------------------------------------


 k-point  1 :   0.0000 0.0000 0.0000  plane waves:   63621
 k-point  2 :   0.3333 0.0000 0.0000  plane waves:   63618
 k-point  3 :  -0.0000 0.3333 0.0000  plane waves:   63623
 k-point  4 :   0.3333 0.3333 0.0000  plane waves:   63600
 k-point  5 :  -0.3333 0.3333 0.0000  plane waves:   63591

 maximum and minimum number of plane-waves per node :      5323     5278

 maximum number of plane-waves:     63623
 maximum index in each direction: 
   IXMAX=   25   IYMAX=   25   IZMAX=   27
   IXMIN=  -25   IYMIN=  -25   IZMIN=  -27


 parallel 3D FFT for wavefunctions:
    minimum data exchange during FFTs selected (reduces bandwidth)
 parallel 3D FFT for charge:
    minimum data exchange during FFTs selected (reduces bandwidth)


 total amount of memory used by VASP MPI-rank0   100716. kBytes
=======================================================================

   base      :      30000. kBytes
   nonl-proj :      16293. kBytes
   fftplans  :       4941. kBytes
   grid      :      13335. kBytes
   one-center:        155. kBytes
   wavefun   :      35992. kBytes
 
     INWAV:  cpu time    0.0000: real time    0.0000
 Broyden mixing: mesh for mixing (old mesh)
   NGX = 51   NGY = 51   NGZ = 55
  (NGX  =160   NGY  =160   NGZ  =168)
  gives a total of 143055 points

 initial charge density was supplied:
 charge density of overlapping atoms calculated
 number of electron     270.0000000 magnetization       1.0000000
 keeping initial charge density in first step


--------------------------------------------------------------------------------------------------------


 Maximum index for augmentation-charges          340 (set IRDMAX)


--------------------------------------------------------------------------------------------------------


 First call to EWALD:  gamma=   0.122
 Maximum number of real-space cells 3x 3x 3
 Maximum number of reciprocal cells 3x 3x 3

    FEWALD:  cpu time    0.0048: real time    0.0050


--------------------------------------- Iteration      1(   1)  ---------------------------------------


    POTLOK:  cpu time    0.1793: real time    0.2055
    SETDIJ:  cpu time    0.0089: real time    0.0097
     EDDAV:  cpu time    9.0422: real time    9.1279
 BZINTS: Fermi energy:  7.907259;270.000000 electrons
         Band energy:***********;  BLOECHL correction: -0.022583
       DOS:  cpu time    0.0950: real time    0.0955
    --------------------------------------------
      LOOP:  cpu time    9.3255: real time    9.4385

 eigenvalue-minimisations  :  3864
 total energy-change (2. order) : 0.2423611E+04  (-0.9363528E+04)
 number of electron     270.0000000 magnetization       1.0000000
 augmentation part      270.0000000 magnetization       1.0000000

 Free energy of the ion-electron system (eV)
  ---------------------------------------------------
  alpha Z        PSCENC =       114.52901429
  Ewald energy   TEWEN  =     25354.93942014
  -Hartree energ DENC   =    -36986.66011019
  -exchange      EXHF   =         0.00000000
  -V(xc)+E(xc)   XCENC  =      1000.34763686
  PAW double counting   =     10998.91041168   -11485.61342155
  entropy T*S    EENTRO =         0.00000000
  eigenvalues    EBANDS =     -1165.10185458
  atomic energy  EATOM  =     14592.26033195
  Solvation  Ediel_sol  =         0.00000000
  ---------------------------------------------------
  free energy    TOTEN  =      2423.61142861 eV

  energy without entropy =     2423.61142861  energy(sigma->0) =     2423.61142861


--------------------------------------------------------------------------------------------------------




--------------------------------------- Iteration      1(   2)  ---------------------------------------


     EDDAV:  cpu time   11.7349: real time   12.0242
 BZINTS: Fermi energy: -0.326580;270.000000 electrons
         Band energy:***********;  BLOECHL correction:  0.000000
       DOS:  cpu time    0.0062: real time    0.0063
    --------------------------------------------
      LOOP:  cpu time   11.7411: real time   12.0304

 eigenvalue-minimisations  :  4792
 total energy-change (2. order) :-0.2328913E+04  (-0.2224908E+04)
 number of electron     270.0000000 magnetization       1.0000000
 augmentation part      270.0000000 magnetization       1.0000000

 Free energy of the ion-electron system (eV)
  ---------------------------------------------------
  alpha Z        PSCENC =       114.52901429
  Ewald energy   TEWEN  =     25354.93942014
  -Hartree energ DENC   =    -36986.66011019
  -exchange      EXHF   =         0.00000000
  -V(xc)+E(xc)   XCENC  =      1000.34763686
  PAW double counting   =     10998.91041168   -11485.61342155
  entropy T*S    EENTRO =         0.00000000
  eigenvalues    EBANDS =     -3494.01485136
  atomic energy  EATOM  =     14592.26033195
  Solvation  Ediel_sol  =         0.00000000
  ---------------------------------------------------
  free energy    TOTEN  =        94.69843183 eV

  energy without entropy =       94.69843183  energy(sigma->0) =       94.69843183


--------------------------------------------------------------------------------------------------------




--------------------------------------- Iteration      1(   3)  ---------------------------------------


     EDDAV:  cpu time   10.3959: real time   10.5329
 BZINTS: Fermi energy: -3.598827;270.000000 electrons
         Band energy:***********;  BLOECHL correction: -0.003900
       DOS:  cpu time    0.0102: real time    0.0102
    --------------------------------------------
      LOOP:  cpu time   10.4061: real time   10.5432

 eigenvalue-minimisations  :  4232
 total energy-change (2. order) :-0.5513487E+03  (-0.5467371E+03)
 number of electron     270.0000000 magnetization       1.0000000
 augmentation part      270.0000000 magnetization       1.0000000

 Free energy of the ion-electron system (eV)
  ---------------------------------------------------
  alpha Z        PSCENC =       114.52901429
  Ewald energy   TEWEN  =     25354.93942014
  -Hartree energ DENC   =    -36986.66011019
  -exchange      EXHF   =         0.00000000
  -V(xc)+E(xc)   XCENC  =      1000.34763686
  PAW double counting   =     10998.91041168   -11485.61342155
  entropy T*S    EENTRO =         0.00000000
  eigenvalues    EBANDS =     -4045.36353741
  atomic energy  EATOM  =     14592.26033195
  Solvation  Ediel_sol  =         0.00000000
  ---------------------------------------------------
  free energy    TOTEN  =      -456.65025423 eV

  energy without entropy =     -456.65025423  energy(sigma->0) =     -456.65025423


--------------------------------------------------------------------------------------------------------




--------------------------------------- Iteration      1(   4)  ---------------------------------------


     EDDAV:  cpu time   10.3597: real time   10.4957
 BZINTS: Fermi energy: -4.041260;270.000000 electrons
         Band energy:***********;  BLOECHL correction:  0.000000
       DOS:  cpu time    0.0041: real time    0.0041
    --------------------------------------------
      LOOP:  cpu time   10.3638: real time   10.4997

 eigenvalue-minimisations  :  4096
 total energy-change (2. order) :-0.2494446E+02  (-0.2421718E+02)
 number of electron     270.0000000 magnetization       1.0000000
 augmentation part      270.0000000 magnetization       1.0000000

 Free energy of the ion-electron system (eV)
  ---------------------------------------------------
  alpha Z        PSCENC =       114.52901429
  Ewald energy   TEWEN  =     25354.93942014
  -Hartree energ DENC   =    -36986.66011019
  -exchange      EXHF   =         0.00000000
  -V(xc)+E(xc)   XCENC  =      1000.34763686
  PAW double counting   =     10998.91041168   -11485.61342155
  entropy T*S    EENTRO =         0.00000000
  eigenvalues    EBANDS =     -4070.30799439
  atomic energy  EATOM  =     14592.26033195
  Solvation  Ediel_sol  =         0.00000000
  ---------------------------------------------------
  free energy    TOTEN  =      -481.59471120 eV

  energy without entropy =     -481.59471120  energy(sigma->0) =     -481.59471120


--------------------------------------------------------------------------------------------------------




--------------------------------------- Iteration      1(   5)  ---------------------------------------


     EDDAV:  cpu time   12.2878: real time   12.5449
 BZINTS: Fermi energy: -4.080020;270.000000 electrons
         Band energy:***********;  BLOECHL correction:  0.000000
       DOS:  cpu time    0.0036: real time    0.0038
    CHARGE:  cpu time    0.1585: real time    0.1642
    MIXING:  cpu time    0.0035: real time    0.0057
    --------------------------------------------
      LOOP:  cpu time   12.4534: real time   12.7187

 eigenvalue-minimisations  :  5096
 total energy-change (2. order) :-0.1245560E+01  (-0.1232145E+01)
 number of electron     270.0000002 magnetization       0.0000001
 augmentation part       17.9304702 magnetization       0.0002413

 Broyden mixing:
  rms(total) = 0.34659E+01    rms(broyden)= 0.34628E+01
  rms(prec ) = 0.38413E+01
  weight for this iteration     100.00

 Free energy of the ion-electron system (eV)
  ---------------------------------------------------
  alpha Z        PSCENC =       114.52901429
  Ewald energy   TEWEN  =     25354.93942014
  -Hartree energ DENC   =    -36986.66011019
  -exchange      EXHF   =         0.00000000
  -V(xc)+E(xc)   XCENC  =      1000.34763686
  PAW double counting   =     10998.91041168   -11485.61342155
  entropy T*S    EENTRO =         0.00000000
  eigenvalues    EBANDS =     -4071.55355449
  atomic energy  EATOM  =     14592.26033195
  Solvation  Ediel_sol  =         0.00000000
  ---------------------------------------------------
  free energy    TOTEN  =      -482.84027131 eV

  energy without entropy =     -482.84027131  energy(sigma->0) =     -482.84027131


--------------------------------------------------------------------------------------------------------




--------------------------------------- Iteration      1(   6)  ---------------------------------------


    POTLOK:  cpu time    0.1490: real time    0.1527
    SETDIJ:  cpu time    0.0101: real time    0.0102
     EDDAV:  cpu time   10.0647: real time   10.2096
 BZINTS: Fermi energy: -4.170043;270.000000 electrons
         Band energy:***********;  BLOECHL correction:  0.000000
       DOS:  cpu time    0.0038: real time    0.0038
    CHARGE:  cpu time    0.1604: real time    0.1633
    MIXING:  cpu time    0.0041: real time    0.0042
    --------------------------------------------
      LOOP:  cpu time   10.3922: real time   10.5437

 eigenvalue-minimisations  :  4216
 total energy-change (2. order) : 0.1991268E+02  (-0.5833287E+01)
 number of electron     269.9999996 magnetization      -0.0000000
 augmentation part       16.7707624 magnetization      -0.0031226

 Broyden mixing:
  rms(total) = 0.20281E+01    rms(broyden)= 0.20274E+01
  rms(prec ) = 0.21661E+01
  weight for this iteration     100.00

 eigenvalues of (default mixing * dielectric matrix)
  average eigenvalue GAMMA=   1.2149
  1.2149

 Free energy of the ion-electron system (eV)
  ---------------------------------------------------
  alpha Z        PSCENC =       114.52901429
  Ewald energy   TEWEN  =     25354.93942014
  -Hartree energ DENC   =    -37172.54582878
  -exchange      EXHF   =         0.00000000
  -V(xc)+E(xc)   XCENC  =      1011.58948602
  PAW double counting   =     13442.00961638   -13929.25462253
  entropy T*S    EENTRO =         0.00000000
  eigenvalues    EBANDS =     -3876.45500847
  atomic energy  EATOM  =     14592.26033195
  Solvation  Ediel_sol  =         0.00000000
  ---------------------------------------------------
  free energy    TOTEN  =      -462.92759101 eV

  energy without entropy =     -462.92759101  energy(sigma->0) =     -462.92759101


--------------------------------------------------------------------------------------------------------




--------------------------------------- Iteration      1(   7)  ---------------------------------------


    POTLOK:  cpu time    0.1766: real time    0.1796
    SETDIJ:  cpu time    0.0101: real time    0.0101
     EDDAV:  cpu time   10.2631: real time   10.4044
 BZINTS: Fermi energy: -3.929982;270.000000 electrons
         Band energy:***********;  BLOECHL correction:  0.000000
       DOS:  cpu time    0.0037: real time    0.0037
    CHARGE:  cpu time    0.1589: real time    0.1646
    MIXING:  cpu time    0.0034: real time    0.0037
    --------------------------------------------
      LOOP:  cpu time   10.6157: real time   10.7660

 eigenvalue-minimisations  :  4256
 total energy-change (2. order) : 0.1320160E+01  (-0.2174562E+01)
 number of electron     270.0000004 magnetization      -0.0000000
 augmentation part       16.5588137 magnetization      -0.0001480

 Broyden mixing:
  rms(total) = 0.14304E+01    rms(broyden)= 0.14300E+01
  rms(prec ) = 0.15502E+01
  weight for this iteration     100.00

 eigenvalues of (default mixing * dielectric matrix)
  average eigenvalue GAMMA=   1.2936
  0.8897  1.6975

 Free energy of the ion-electron system (eV)
  ---------------------------------------------------
  alpha Z        PSCENC =       114.52901429
  Ewald energy   TEWEN  =     25354.93942014
  -Hartree energ DENC   =    -37305.86113405
  -exchange      EXHF   =         0.00000000
  -V(xc)+E(xc)   XCENC  =      1017.37720258
  PAW double counting   =     15892.98897021   -16381.19504080
  entropy T*S    EENTRO =         0.00000000
  eigenvalues    EBANDS =     -3746.64619505
  atomic energy  EATOM  =     14592.26033195
  Solvation  Ediel_sol  =         0.00000000
  ---------------------------------------------------
  free energy    TOTEN  =      -461.60743073 eV

  energy without entropy =     -461.60743073  energy(sigma->0) =     -461.60743073


--------------------------------------------------------------------------------------------------------




--------------------------------------- Iteration      1(   8)  ---------------------------------------


    POTLOK:  cpu time    0.1425: real time    0.1476
    SETDIJ:  cpu time    0.0089: real time    0.0090
     EDDAV:  cpu time    9.9525: real time   10.0364
 BZINTS: Fermi energy: -3.626157;270.000000 electrons
         Band energy:***********;  BLOECHL correction:  0.000000
       DOS:  cpu time    0.0040: real time    0.0041
    CHARGE:  cpu time    0.1604: real time    0.1622
    MIXING:  cpu time    0.0033: real time    0.0033
    --------------------------------------------
      LOOP:  cpu time   10.2716: real time   10.3626

 eigenvalue-minimisations  :  4032
 total energy-change (2. order) : 0.1227363E+01  (-0.8886466E+00)
 number of electron     270.0000001 magnetization       0.0000000
 augmentation part       16.3549649 magnetization       0.0004037

 Broyden mixing:
  rms(total) = 0.10270E+01    rms(broyden)= 0.10268E+01
  rms(prec ) = 0.11167E+01
  weight for this iteration     100.00

 eigenvalues of (default mixing * dielectric matrix)
  average eigenvalue GAMMA=   1.5182
  2.7996  1.1519  0.6032

 Free energy of the ion-electron system (eV)
  ---------------------------------------------------
  alpha Z        PSCENC =       114.52901429
  Ewald energy   TEWEN  =     25354.93942014
  -Hartree energ DENC   =    -37368.63162046
  -exchange      EXHF   =         0.00000000
  -V(xc)+E(xc)   XCENC  =      1020.27335540
  PAW double counting   =     17779.84545912   -18269.49769695
  entropy T*S    EENTRO =         0.00000000
  eigenvalues    EBANDS =     -3684.09833171
  atomic energy  EATOM  =     14592.26033195
  Solvation  Ediel_sol  =         0.00000000
  ---------------------------------------------------
  free energy    TOTEN  =      -460.38006822 eV

  energy without entropy =     -460.38006822  energy(sigma->0) =     -460.38006822


--------------------------------------------------------------------------------------------------------




--------------------------------------- Iteration      1(   9)  ---------------------------------------


    POTLOK:  cpu time    0.1418: real time    0.1437
    SETDIJ:  cpu time    0.0103: real time    0.0104
     EDDAV:  cpu time   10.9870: real time   11.1282
 BZINTS: Fermi energy: -3.484871;270.000000 electrons
         Band energy:***********;  BLOECHL correction:  0.000000
       DOS:  cpu time    0.0040: real time    0.0040
    CHARGE:  cpu time    0.1580: real time    0.1590
    MIXING:  cpu time    0.0035: real time    0.0035
    --------------------------------------------
      LOOP:  cpu time   11.3046: real time   11.4489

 eigenvalue-minimisations  :  4760
 total energy-change (2. order) :-0.2747237E+00  (-0.1722261E+01)
 number of electron     269.9999999 magnetization       0.0000000
 augmentation part       16.4898053 magnetization       0.0004705

 Broyden mixing:
  rms(total) = 0.64813E+00    rms(broyden)= 0.64776E+00
  rms(prec ) = 0.82285E+00
  weight for this iteration     100.00

 eigenvalues of (default mixing * dielectric matrix)
  average eigenvalue GAMMA=   1.4691
  3.4902  1.1871  0.5995  0.5995

 Free energy of the ion-electron system (eV)
  ---------------------------------------------------
  alpha Z        PSCENC =       114.52901429
  Ewald energy   TEWEN  =     25354.93942014
  -Hartree energ DENC   =    -37421.20098984
  -exchange      EXHF   =         0.00000000
  -V(xc)+E(xc)   XCENC  =      1022.36150074
  PAW double counting   =     20231.86449757   -20725.56115530
  entropy T*S    EENTRO =         0.00000000
  eigenvalues    EBANDS =     -3629.84741144
  atomic energy  EATOM  =     14592.26033195
  Solvation  Ediel_sol  =         0.00000000
  ---------------------------------------------------
  free energy    TOTEN  =      -460.65479189 eV

  energy without entropy =     -460.65479189  energy(sigma->0) =     -460.65479189


--------------------------------------------------------------------------------------------------------




--------------------------------------- Iteration      1(  10)  ---------------------------------------


    POTLOK:  cpu time    0.1423: real time    0.1453
    SETDIJ:  cpu time    0.0086: real time    0.0086
     EDDAV:  cpu time   10.2365: real time   10.3315
 BZINTS: Fermi energy: -3.111028;270.000000 electrons
         Band energy:***********;  BLOECHL correction:  0.000000
       DOS:  cpu time    0.0038: real time    0.0038
    CHARGE:  cpu time    0.1572: real time    0.1580
    MIXING:  cpu time    0.0040: real time    0.0040
    --------------------------------------------
      LOOP:  cpu time   10.5526: real time   10.6513

 eigenvalue-minimisations  :  4312
 total energy-change (2. order) : 0.7981512E+00  (-0.6912293E+00)
 number of electron     270.0000002 magnetization       0.0000000
 augmentation part       16.4868690 magnetization       0.0003027

 Broyden mixing:
  rms(total) = 0.32682E+00    rms(broyden)= 0.32582E+00
  rms(prec ) = 0.43468E+00
  weight for this iteration     100.00

 eigenvalues of (default mixing * dielectric matrix)
  average eigenvalue GAMMA=   1.3712
  3.7538  1.2092  0.8828  0.5051  0.5051

 Free energy of the ion-electron system (eV)
  ---------------------------------------------------
  alpha Z        PSCENC =       114.52901429
  Ewald energy   TEWEN  =     25354.93942014
  -Hartree energ DENC   =    -37451.67515550
  -exchange      EXHF   =         0.00000000
  -V(xc)+E(xc)   XCENC  =      1024.01667262
  PAW double counting   =     21877.59109478   -22371.62313961
  entropy T*S    EENTRO =         0.00000000
  eigenvalues    EBANDS =     -3599.89487934
  atomic energy  EATOM  =     14592.26033195
  Solvation  Ediel_sol  =         0.00000000
  ---------------------------------------------------
  free energy    TOTEN  =      -459.85664068 eV

  energy without entropy =     -459.85664068  energy(sigma->0) =     -459.85664068


--------------------------------------------------------------------------------------------------------




--------------------------------------- Iteration      1(  11)  ---------------------------------------


    POTLOK:  cpu time    0.1432: real time    0.1456
    SETDIJ:  cpu time    0.0123: real time    0.0124
     EDDAV:  cpu time   10.2822: real time   10.3656
 BZINTS: Fermi energy: -3.139785;270.000000 electrons
         Band energy:***********;  BLOECHL correction:  0.000000
       DOS:  cpu time    0.0038: real time    0.0038
    CHARGE:  cpu time    0.1570: real time    0.1615
    MIXING:  cpu time    0.0034: real time    0.0036
    --------------------------------------------
      LOOP:  cpu time   10.6020: real time   10.6925

 eigenvalue-minimisations  :  4344
 total energy-change (2. order) : 0.1059145E+00  (-0.2046830E+00)
 number of electron     269.9999998 magnetization      -0.0000000
 augmentation part       16.4718658 magnetization       0.0002524

 Broyden mixing:
  rms(total) = 0.25402E+00    rms(broyden)= 0.25347E+00
  rms(prec ) = 0.34916E+00
  weight for this iteration     100.00

 eigenvalues of (default mixing * dielectric matrix)
  average eigenvalue GAMMA=   1.2867
  3.7578  1.1587  0.9429  0.9429  0.4590  0.4590

 Free energy of the ion-electron system (eV)
  ---------------------------------------------------
  alpha Z        PSCENC =       114.52901429
  Ewald energy   TEWEN  =     25354.93942014
  -Hartree energ DENC   =    -37453.99482478
  -exchange      EXHF   =         0.00000000
  -V(xc)+E(xc)   XCENC  =      1024.26168542
  PAW double counting   =     22456.53548410   -22950.19776473
  entropy T*S    EENTRO =         0.00000000
  eigenvalues    EBANDS =     -3598.08407256
  atomic energy  EATOM  =     14592.26033195
  Solvation  Ediel_sol  =         0.00000000
  ---------------------------------------------------
  free energy    TOTEN  =      -459.75072618 eV

  energy without entropy =     -459.75072618  energy(sigma->0) =     -459.75072618


--------------------------------------------------------------------------------------------------------




--------------------------------------- Iteration      1(  12)  ---------------------------------------


    POTLOK:  cpu time    0.1699: real time    0.1752
    SETDIJ:  cpu time    0.0116: real time    0.0118
     EDDAV:  cpu time   10.8835: real time   10.9768
 BZINTS: Fermi energy: -3.131033;270.000000 electrons
         Band energy:***********;  BLOECHL correction:  0.000000
       DOS:  cpu time    0.0040: real time    0.0040
    CHARGE:  cpu time    0.1574: real time    0.1584
    MIXING:  cpu time    0.0038: real time    0.0038
    --------------------------------------------
      LOOP:  cpu time   11.2301: real time   11.3299

 eigenvalue-minimisations  :  4672
 total energy-change (2. order) : 0.1194962E+00  (-0.1449036E+00)
 number of electron     270.0000001 magnetization      -0.0000000
 augmentation part       16.4188542 magnetization       0.0000523

 Broyden mixing:
  rms(total) = 0.13609E+00    rms(broyden)= 0.13563E+00
  rms(prec ) = 0.16610E+00
  weight for this iteration     100.00

 eigenvalues of (default mixing * dielectric matrix)
  average eigenvalue GAMMA=   1.2710
  3.7043  1.5820  1.1843  0.7511  0.7511  0.4623  0.4623

 Free energy of the ion-electron system (eV)
  ---------------------------------------------------
  alpha Z        PSCENC =       114.52901429
  Ewald energy   TEWEN  =     25354.93942014
  -Hartree energ DENC   =    -37446.92696997
  -exchange      EXHF   =         0.00000000
  -V(xc)+E(xc)   XCENC  =      1024.06331571
  PAW double counting   =     22582.66964177   -23075.63911817
  entropy T*S    EENTRO =         0.00000000
  eigenvalues    EBANDS =     -3605.52686565
  atomic energy  EATOM  =     14592.26033195
  Solvation  Ediel_sol  =         0.00000000
  ---------------------------------------------------
  free energy    TOTEN  =      -459.63122995 eV

  energy without entropy =     -459.63122995  energy(sigma->0) =     -459.63122995


--------------------------------------------------------------------------------------------------------




--------------------------------------- Iteration      1(  13)  ---------------------------------------


    POTLOK:  cpu time    0.1466: real time    0.1489
    SETDIJ:  cpu time    0.0100: real time    0.0100
     EDDAV:  cpu time    9.5890: real time    9.6968
 BZINTS: Fermi energy: -3.161040;270.000000 electrons
         Band energy:***********;  BLOECHL correction:  0.000000
       DOS:  cpu time    0.0042: real time    0.0042
    CHARGE:  cpu time    0.1579: real time    0.1595
    MIXING:  cpu time    0.0042: real time    0.0043
    --------------------------------------------
      LOOP:  cpu time    9.9118: real time   10.0238

 eigenvalue-minimisations  :  3824
 total energy-change (2. order) : 0.2816371E-01  (-0.1314497E-01)
 number of electron     270.0000001 magnetization      -0.0000000
 augmentation part       16.4273608 magnetization       0.0000244

 Broyden mixing:
  rms(total) = 0.77156E-01    rms(broyden)= 0.77130E-01
  rms(prec ) = 0.89400E-01
  weight for this iteration     100.00

 eigenvalues of (default mixing * dielectric matrix)
  average eigenvalue GAMMA=   1.3000
  3.6719  2.3309  1.1332  0.7936  0.7936  0.7516  0.4625  0.4625

 Free energy of the ion-electron system (eV)
  ---------------------------------------------------
  alpha Z        PSCENC =       114.52901429
  Ewald energy   TEWEN  =     25354.93942014
  -Hartree energ DENC   =    -37433.59163542
  -exchange      EXHF   =         0.00000000
  -V(xc)+E(xc)   XCENC  =      1023.56472058
  PAW double counting   =     22645.61257310   -23138.41155921
  entropy T*S    EENTRO =         0.00000000
  eigenvalues    EBANDS =     -3618.50593166
  atomic energy  EATOM  =     14592.26033195
  Solvation  Ediel_sol  =         0.00000000
  ---------------------------------------------------
  free energy    TOTEN  =      -459.60306624 eV

  energy without entropy =     -459.60306624  energy(sigma->0) =     -459.60306624


--------------------------------------------------------------------------------------------------------




--------------------------------------- Iteration      1(  14)  ---------------------------------------


    POTLOK:  cpu time    0.1579: real time    0.1601
    SETDIJ:  cpu time    0.0086: real time    0.0087
     EDDAV:  cpu time   10.1172: real time   10.2292
 BZINTS: Fermi energy: -3.201050;270.000000 electrons
         Band energy:***********;  BLOECHL correction:  0.000000
       DOS:  cpu time    0.0040: real time    0.0040
    CHARGE:  cpu time    0.1572: real time    0.1587
    MIXING:  cpu time    0.0045: real time    0.0045
    --------------------------------------------
      LOOP:  cpu time   10.4495: real time   10.5651

 eigenvalue-minimisations  :  4160
 total energy-change (2. order) : 0.6047414E-02  (-0.7678262E-02)
 number of electron     270.0000000 magnetization       0.0000000
 augmentation part       16.4383792 magnetization       0.0000217

 Broyden mixing:
  rms(total) = 0.42990E-01    rms(broyden)= 0.42874E-01
  rms(prec ) = 0.52826E-01
  weight for this iteration     100.00

 eigenvalues of (default mixing * dielectric matrix)
  average eigenvalue GAMMA=   1.3062
  3.7249  2.5589  1.0690  0.9287  0.9287  0.8133  0.8133  0.4596  0.4596

 Free energy of the ion-electron system (eV)
  ---------------------------------------------------
  alpha Z        PSCENC =       114.52901429
  Ewald energy   TEWEN  =     25354.93942014
  -Hartree energ DENC   =    -37424.59603431
  -exchange      EXHF   =         0.00000000
  -V(xc)+E(xc)   XCENC  =      1023.21375885
  PAW double counting   =     22719.78227358   -23212.50656080
  entropy T*S    EENTRO =         0.00000000
  eigenvalues    EBANDS =     -3627.21922251
  atomic energy  EATOM  =     14592.26033195
  Solvation  Ediel_sol  =         0.00000000
  ---------------------------------------------------
  free energy    TOTEN  =      -459.59701882 eV

  energy without entropy =     -459.59701882  energy(sigma->0) =     -459.59701882


--------------------------------------------------------------------------------------------------------




--------------------------------------- Iteration      1(  15)  ---------------------------------------


    POTLOK:  cpu time    0.1464: real time    0.1492
    SETDIJ:  cpu time    0.0087: real time    0.0087
     EDDAV:  cpu time    9.7835: real time    9.8838
 BZINTS: Fermi energy: -3.199800;270.000000 electrons
         Band energy:***********;  BLOECHL correction:  0.000000
       DOS:  cpu time    0.0036: real time    0.0036
    CHARGE:  cpu time    0.1571: real time    0.1584
    MIXING:  cpu time    0.0044: real time    0.0044
    --------------------------------------------
      LOOP:  cpu time   10.1037: real time   10.2081

 eigenvalue-minimisations  :  4040
 total energy-change (2. order) :-0.4228384E-03  (-0.5821869E-02)
 number of electron     270.0000001 magnetization      -0.0000000
 augmentation part       16.4382681 magnetization       0.0000178

 Broyden mixing:
  rms(total) = 0.39614E-01    rms(broyden)= 0.39529E-01
  rms(prec ) = 0.53017E-01
  weight for this iteration     100.00

 eigenvalues of (default mixing * dielectric matrix)
  average eigenvalue GAMMA=   1.3061
  3.6924  2.7893  1.1886  1.1428  1.1428  0.7526  0.7526  0.6814  0.4592  0.4592

 Free energy of the ion-electron system (eV)
  ---------------------------------------------------
  alpha Z        PSCENC =       114.52901429
  Ewald energy   TEWEN  =     25354.93942014
  -Hartree energ DENC   =    -37423.64614478
  -exchange      EXHF   =         0.00000000
  -V(xc)+E(xc)   XCENC  =      1023.16491219
  PAW double counting   =     22764.96030275   -23257.68113942
  entropy T*S    EENTRO =         0.00000000
  eigenvalues    EBANDS =     -3628.12413878
  atomic energy  EATOM  =     14592.26033195
  Solvation  Ediel_sol  =         0.00000000
  ---------------------------------------------------
  free energy    TOTEN  =      -459.59744166 eV

  energy without entropy =     -459.59744166  energy(sigma->0) =     -459.59744166


--------------------------------------------------------------------------------------------------------




--------------------------------------- Iteration      1(  16)  ---------------------------------------


    POTLOK:  cpu time    0.1483: real time    0.1504
    SETDIJ:  cpu time    0.0084: real time    0.0085
     EDDAV:  cpu time    9.9326: real time   10.0557
 BZINTS: Fermi energy: -3.206052;270.000000 electrons
         Band energy:***********;  BLOECHL correction:  0.000000
       DOS:  cpu time    0.0042: real time    0.0042
    CHARGE:  cpu time    0.1579: real time    0.1601
    MIXING:  cpu time    0.0046: real time    0.0046
    --------------------------------------------
      LOOP:  cpu time   10.2560: real time   10.3835

 eigenvalue-minimisations  :  4064
 total energy-change (2. order) : 0.1185499E-02  (-0.4603361E-02)
 number of electron     270.0000000 magnetization      -0.0000000
 augmentation part       16.4394345 magnetization       0.0000192

 Broyden mixing:
  rms(total) = 0.27685E-01    rms(broyden)= 0.27563E-01
  rms(prec ) = 0.37503E-01
  weight for this iteration     100.00

 eigenvalues of (default mixing * dielectric matrix)
  average eigenvalue GAMMA=   1.2899
  3.6692  2.9624  1.4056  1.1337  1.1337  0.7535  0.7535  0.8360  0.6291  0.4560
  0.4560

 Free energy of the ion-electron system (eV)
  ---------------------------------------------------
  alpha Z        PSCENC =       114.52901429
  Ewald energy   TEWEN  =     25354.93942014
  -Hartree energ DENC   =    -37422.69181121
  -exchange      EXHF   =         0.00000000
  -V(xc)+E(xc)   XCENC  =      1023.12649518
  PAW double counting   =     22773.83418589   -23266.58176864
  entropy T*S    EENTRO =         0.00000000
  eigenvalues    EBANDS =     -3629.01212376
  atomic energy  EATOM  =     14592.26033195
  Solvation  Ediel_sol  =         0.00000000
  ---------------------------------------------------
  free energy    TOTEN  =      -459.59625616 eV

  energy without entropy =     -459.59625616  energy(sigma->0) =     -459.59625616


--------------------------------------------------------------------------------------------------------




--------------------------------------- Iteration      1(  17)  ---------------------------------------


    POTLOK:  cpu time    0.1462: real time    0.1485
    SETDIJ:  cpu time    0.0119: real time    0.0120
     EDDAV:  cpu time    9.6016: real time    9.7314
 BZINTS: Fermi energy: -3.201050;270.000000 electrons
         Band energy:***********;  BLOECHL correction:  0.000000
       DOS:  cpu time    0.0044: real time    0.0046
    CHARGE:  cpu time    0.1561: real time    0.1573
    MIXING:  cpu time    0.0049: real time    0.0049
    --------------------------------------------
      LOOP:  cpu time    9.9252: real time   10.0586

 eigenvalue-minimisations  :  3984
 total energy-change (2. order) : 0.6002597E-03  (-0.1473525E-02)
 number of electron     270.0000001 magnetization      -0.0000000
 augmentation part       16.4393991 magnetization       0.0000081

 Broyden mixing:
  rms(total) = 0.12145E-01    rms(broyden)= 0.12089E-01
  rms(prec ) = 0.14406E-01
  weight for this iteration     100.00

 eigenvalues of (default mixing * dielectric matrix)
  average eigenvalue GAMMA=   1.3422
  3.6853  2.8972  1.9760  1.3202  1.1489  1.1489  0.9248  0.7657  0.7657  0.4546
  0.4546  0.5640

 Free energy of the ion-electron system (eV)
  ---------------------------------------------------
  alpha Z        PSCENC =       114.52901429
  Ewald energy   TEWEN  =     25354.93942014
  -Hartree energ DENC   =    -37422.63912201
  -exchange      EXHF   =         0.00000000
  -V(xc)+E(xc)   XCENC  =      1023.12397408
  PAW double counting   =     22777.83476548   -23270.59027317
  entropy T*S    EENTRO =         0.00000000
  eigenvalues    EBANDS =     -3629.05376666
  atomic energy  EATOM  =     14592.26033195
  Solvation  Ediel_sol  =         0.00000000
  ---------------------------------------------------
  free energy    TOTEN  =      -459.59565590 eV

  energy without entropy =     -459.59565590  energy(sigma->0) =     -459.59565590


--------------------------------------------------------------------------------------------------------




--------------------------------------- Iteration      1(  18)  ---------------------------------------


    POTLOK:  cpu time    0.1718: real time    0.1744
    SETDIJ:  cpu time    0.0135: real time    0.0140
     EDDAV:  cpu time    9.0232: real time    9.1087
 BZINTS: Fermi energy: -3.201050;270.000000 electrons
         Band energy:***********;  BLOECHL correction:  0.000000
       DOS:  cpu time    0.0040: real time    0.0040
    CHARGE:  cpu time    0.1855: real time    0.1875
    MIXING:  cpu time    0.0056: real time    0.0056
    --------------------------------------------
      LOOP:  cpu time    9.4037: real time    9.4943

 eigenvalue-minimisations  :  3584
 total energy-change (2. order) :-0.9506651E-04  (-0.2485571E-03)
 number of electron     270.0000000 magnetization      -0.0000000
 augmentation part       16.4394388 magnetization      -0.0000035

 Broyden mixing:
  rms(total) = 0.76602E-02    rms(broyden)= 0.76463E-02
  rms(prec ) = 0.96918E-02
  weight for this iteration     100.00

 eigenvalues of (default mixing * dielectric matrix)
  average eigenvalue GAMMA=   1.4215
  3.6109  3.2590  3.2590  1.2919  1.1805  1.1805  0.7723  0.7723  0.8453  0.8453
  0.4540  0.4540  0.5538

 Free energy of the ion-electron system (eV)
  ---------------------------------------------------
  alpha Z        PSCENC =       114.52901429
  Ewald energy   TEWEN  =     25354.93942014
  -Hartree energ DENC   =    -37423.04662374
  -exchange      EXHF   =         0.00000000
  -V(xc)+E(xc)   XCENC  =      1023.14339379
  PAW double counting   =     22779.54118089   -23272.31067550
  entropy T*S    EENTRO =         0.00000000
  eigenvalues    EBANDS =     -3628.65179279
  atomic energy  EATOM  =     14592.26033195
  Solvation  Ediel_sol  =         0.00000000
  ---------------------------------------------------
  free energy    TOTEN  =      -459.59575097 eV

  energy without entropy =     -459.59575097  energy(sigma->0) =     -459.59575097


--------------------------------------------------------------------------------------------------------




--------------------------------------- Iteration      1(  19)  ---------------------------------------


    POTLOK:  cpu time    0.1649: real time    0.1676
    SETDIJ:  cpu time    0.0119: real time    0.0120
     EDDAV:  cpu time    6.7567: real time    6.8260
 BZINTS: Fermi energy: -3.201050;270.000000 electrons
         Band energy:***********;  BLOECHL correction:  0.000000
       DOS:  cpu time    0.0044: real time    0.0046
    --------------------------------------------
      LOOP:  cpu time    6.9379: real time    7.0102

 eigenvalue-minimisations  :  2288
 total energy-change (2. order) : 0.4055282E-04  (-0.7027336E-04)
 number of electron     270.0000000 magnetization      -0.0000000
 augmentation part       16.4394388 magnetization      -0.0000035

 Free energy of the ion-electron system (eV)
  ---------------------------------------------------
  alpha Z        PSCENC =       114.52901429
  Ewald energy   TEWEN  =     25354.93942014
  -Hartree energ DENC   =    -37423.51365368
  -exchange      EXHF   =         0.00000000
  -V(xc)+E(xc)   XCENC  =      1023.16257465
  PAW double counting   =     22778.29833740   -23271.06843136
  entropy T*S    EENTRO =         0.00000000
  eigenvalues    EBANDS =     -3628.20330380
  atomic energy  EATOM  =     14592.26033195
  Solvation  Ediel_sol  =         0.00000000
  ---------------------------------------------------
  free energy    TOTEN  =      -459.59571041 eV

  energy without entropy =     -459.59571041  energy(sigma->0) =     -459.59571041


--------------------------------------------------------------------------------------------------------




 average (electrostatic) potential at core
  the test charge radii are     0.6991  0.7089  0.9911
  (the norm of the test charge is              1.0000)
       1 -61.4927       2 -61.7759       3 -61.7634       4 -61.3992       5 -61.4357
       6 -61.4228       7 -61.6417       8 -61.5212       9 -61.4308      10 -61.9449
      11 -61.5196      12 -61.9135      13 -61.4602      14 -61.3892      15 -61.2339
      16 -61.4115      17 -61.3943      18 -61.3876      19 -61.7235      20 -61.4665
      21 -61.5174      22 -61.4657      23 -61.4847      24 -61.4227      25 -75.1976
      26 -73.0824      27 -73.0446      28 -73.2869      29 -73.4120      30 -73.0716
      31 -73.0966      32 -75.1145      33 -74.9299      34 -73.4468      35 -74.2350
      36 -73.1376      37 -73.1495      38 -73.5005      39 -74.1870      40 -75.1761
      41 -75.0026      42 -73.1356      43 -73.0739      44 -73.3975      45 -73.3102
      46 -73.0743      47 -73.0839      48 -74.9906      49 -75.0710      50 -73.2933
      51 -73.1557      52 -73.0987      53 -73.0627      54 -73.2760      55 -73.1940
      56 -75.2041      57 -83.6385
 
 
 
 E-fermi :  -3.2011     XC(G=0):  -2.6353     alpha+bet : -1.7867


 spin component 1

 k-point     1 :       0.0000    0.0000    0.0000
  band No.  band energies     occupation 
      1     -28.9468      1.00000
      2     -28.9422      1.00000
      3     -28.9173      1.00000
      4     -28.8852      1.00000
      5     -28.8749      1.00000
      6     -24.8530      1.00000
      7     -24.7380      1.00000
      8     -24.5644      1.00000
      9     -24.4758      1.00000
     10     -23.8822      1.00000
     11     -23.8039      1.00000
     12     -23.7750      1.00000
     13     -23.0713      1.00000
     14     -22.9251      1.00000
     15     -22.8494      1.00000
     16     -22.7825      1.00000
     17     -22.7440      1.00000
     18     -22.6555      1.00000
     19     -22.1317      1.00000
     20     -22.0006      1.00000
     21     -21.9673      1.00000
     22     -21.3642      1.00000
     23     -21.3288      1.00000
     24     -21.2518      1.00000
     25     -21.1884      1.00000
     26     -21.1131      1.00000
     27     -21.1070      1.00000
     28     -21.0224      1.00000
     29     -21.0001      1.00000
     30     -20.6110      1.00000
     31     -20.5131      1.00000
     32     -20.4610      1.00000
     33     -20.3543      1.00000
     34     -20.1198      1.00000
     35     -20.0478      1.00000
     36     -19.8836      1.00000
     37     -19.7670      1.00000
     38     -16.9973      1.00000
     39     -16.9222      1.00000
     40     -16.7998      1.00000
     41     -16.5453      1.00000
     42     -16.4711      1.00000
     43     -16.4234      1.00000
     44     -16.1876      1.00000
     45     -16.0017      1.00000
     46     -15.5063      1.00000
     47     -15.4211      1.00000
     48     -15.3052      1.00000
     49     -15.0821      1.00000
     50     -14.5545      1.00000
     51     -14.5416      1.00000
     52     -13.9915      1.00000
     53     -13.8582      1.00000
     54     -13.6872      1.00000
     55     -13.5949      1.00000
     56     -13.2769      1.00000
     57     -13.0935      1.00000
     58     -12.9937      1.00000
     59     -12.9674      1.00000
     60     -12.8782      1.00000
     61     -12.8204      1.00000
     62     -12.7270      1.00000
     63     -12.4136      1.00000
     64     -12.2762      1.00000
     65     -12.1043      1.00000
     66     -11.9974      1.00000
     67     -11.9531      1.00000
     68     -11.9274      1.00000
     69     -11.8096      1.00000
     70     -11.7694      1.00000
     71     -11.6367      1.00000
     72     -11.5469      1.00000
     73     -11.3757      1.00000
     74     -10.9091      1.00000
     75     -10.7834      1.00000
     76     -10.6832      1.00000
     77     -10.6453      1.00000
     78     -10.5594      1.00000
     79     -10.3861      1.00000
     80     -10.3424      1.00000
     81     -10.2517      1.00000
     82     -10.1225      1.00000
     83      -9.6014      1.00000
     84      -9.4896      1.00000
     85      -9.3535      1.00000
     86      -8.9908      1.00000
     87      -8.8929      1.00000
     88      -8.8582      1.00000
     89      -8.8169      1.00000
     90      -8.7847      1.00000
     91      -8.6211      1.00000
     92      -8.5753      1.00000
     93      -8.5010      1.00000
     94      -8.1555      1.00000
     95      -8.0989      1.00000
     96      -8.0414      1.00000
     97      -7.9472      1.00000
     98      -7.8907      1.00000
     99      -7.8504      1.00000
    100      -7.6902      1.00000
    101      -7.5649      1.00000
    102      -7.4770      1.00000
    103      -7.4215      1.00000
    104      -7.3975      1.00000
    105      -7.3540      1.00000
    106      -7.2822      1.00000
    107      -7.2263      1.00000
    108      -7.1983      1.00000
    109      -7.1728      1.00000
    110      -7.0822      1.00000
    111      -7.0629      1.00000
    112      -6.9927      1.00000
    113      -6.8128      1.00000
    114      -6.7488      1.00000
    115      -6.4689      1.00000
    116      -6.2904      1.00000
    117      -6.1819      1.00000
    118      -6.0694      1.00000
    119      -6.0290      1.00000
    120      -5.9627      1.00000
    121      -5.9302      1.00000
    122      -5.8391      1.00000
    123      -5.8384      1.00000
    124      -5.7056      1.00000
    125      -5.6432      1.00000
    126      -5.5415      1.00000
    127      -5.4918      1.00000
    128      -5.3998      1.00000
    129      -5.3198      1.00000
    130      -5.1885      1.00000
    131      -5.1169      1.00000
    132      -5.0606      1.00000
    133      -4.9537      1.00000
    134      -4.7594      1.00000
    135      -3.2924      1.00000
    136      -3.1146      0.00000
    137      -2.9204      0.00000
    138      -2.7164      0.00000
    139      -2.5282      0.00000
    140      -2.4705      0.00000
    141      -2.4060      0.00000
    142      -2.2359      0.00000
    143      -2.1178      0.00000
    144      -2.0132      0.00000
    145      -1.9481      0.00000
    146      -1.7006      0.00000
    147      -1.5633      0.00000
    148      -0.9797      0.00000
    149      -0.8624      0.00000
    150      -0.6531      0.00000
    151      -0.4760      0.00000
    152      -0.3861      0.00000
    153      -0.3689      0.00000
    154      -0.2843      0.00000
    155      -0.1890      0.00000
    156       0.0660      0.00000
    157       0.3239      0.00000
    158       0.3943      0.00000
    159       0.5927      0.00000
    160       0.6142      0.00000
    161       0.9233      0.00000
    162       0.9512      0.00000
    163       1.0959      0.00000
    164       1.1578      0.00000
    165       1.2522      0.00000
    166       1.2600      0.00000
    167       1.3598      0.00000
    168       1.4085      0.00000

 k-point     2 :       0.3333    0.0000    0.0000
  band No.  band energies     occupation 
      1     -28.9468      1.00000
      2     -28.9422      1.00000
      3     -28.9173      1.00000
      4     -28.8852      1.00000
      5     -28.8749      1.00000
      6     -24.8307      1.00000
      7     -24.7607      1.00000
      8     -24.5677      1.00000
      9     -24.4945      1.00000
     10     -23.8698      1.00000
     11     -23.7726      1.00000
     12     -23.6749      1.00000
     13     -23.3620      1.00000
     14     -22.9042      1.00000
     15     -22.8483      1.00000
     16     -22.7673      1.00000
     17     -22.7355      1.00000
     18     -22.4538      1.00000
     19     -22.1736      1.00000
     20     -22.0040      1.00000
     21     -21.9187      1.00000
     22     -21.3719      1.00000
     23     -21.3390      1.00000
     24     -21.2723      1.00000
     25     -21.2063      1.00000
     26     -21.1936      1.00000
     27     -21.1249      1.00000
     28     -21.0375      1.00000
     29     -21.0142      1.00000
     30     -20.5813      1.00000
     31     -20.4817      1.00000
     32     -20.4255      1.00000
     33     -20.3677      1.00000
     34     -20.0902      1.00000
     35     -20.0521      1.00000
     36     -19.8588      1.00000
     37     -19.7896      1.00000
     38     -16.8962      1.00000
     39     -16.8582      1.00000
     40     -16.7322      1.00000
     41     -16.6464      1.00000
     42     -16.5623      1.00000
     43     -16.3855      1.00000
     44     -16.3314      1.00000
     45     -16.1685      1.00000
     46     -15.4463      1.00000
     47     -15.3810      1.00000
     48     -15.2724      1.00000
     49     -15.1970      1.00000
     50     -14.3690      1.00000
     51     -14.1513      1.00000
     52     -13.9956      1.00000
     53     -13.8550      1.00000
     54     -13.6938      1.00000
     55     -13.5259      1.00000
     56     -13.3532      1.00000
[...]
   -.145E+02 0.261E+02 0.102E+03   0.102E+02 -.255E+02 -.102E+03   0.263E+01 -.413E+00 0.407E+00   0.132E-01 -.836E-02 -.161E-02
   0.563E+02 -.454E+02 -.706E+02   -.579E+02 0.464E+02 0.704E+02   0.202E+01 -.107E+01 -.196E+00   -.777E-02 0.863E-02 -.463E-03
   -.108E+02 0.433E+02 0.162E+03   0.115E+02 -.452E+02 -.163E+03   -.494E+00 0.197E+01 0.124E+01   -.307E-03 0.210E-02 0.524E-02
   -.524E+02 -.149E+02 0.779E+02   0.541E+02 0.158E+02 -.784E+02   -.212E+01 -.958E+00 0.738E+00   0.205E-02 0.641E-02 -.123E-02
   0.322E+02 -.254E+02 -.287E+02   -.328E+02 0.214E+02 0.272E+02   0.378E+00 0.278E+01 0.751E+00   -.832E-03 0.220E-02 0.825E-03
   0.236E+02 -.106E+02 -.399E+02   -.192E+02 0.134E+02 0.394E+02   -.302E+01 -.174E+01 0.326E+00   0.316E-02 0.372E-02 0.187E-02
   -.941E+01 0.135E+01 -.486E+02   0.490E+01 0.130E+01 0.482E+02   0.317E+01 -.159E+01 0.154E+00   -.844E-02 0.638E-02 -.915E-05
   -.188E+02 0.149E+02 -.584E+02   0.186E+02 -.132E+02 0.591E+02   0.923E+00 -.158E+01 -.107E+01   0.105E-01 -.703E-02 -.559E-02
   -.283E+01 0.184E+02 0.390E+02   0.276E+01 -.202E+02 -.380E+02   0.311E-01 0.251E+01 -.557E+00   0.298E-02 -.101E-01 0.305E-02
   0.254E+02 0.139E+02 -.532E+02   -.249E+02 -.117E+02 0.533E+02   -.109E+01 -.185E+01 -.850E+00   0.860E-02 0.957E-02 0.762E-02
   -.325E+01 -.165E+02 -.105E+02   0.329E+01 0.116E+02 0.120E+02   -.881E-01 0.347E+01 -.762E+00   -.111E-01 0.255E-02 0.720E-03
   0.339E+02 0.250E+02 0.156E+03   -.297E+02 -.227E+02 -.155E+03   -.285E+01 -.162E+01 -.166E+00   -.145E-01 0.407E-02 0.497E-02
   -.134E+02 0.203E+02 0.708E+02   0.915E+01 -.177E+02 -.699E+02   0.292E+01 -.144E+01 -.563E+00   -.174E-01 0.733E-02 0.248E-02
   0.544E+02 -.138E+02 0.537E+02   -.561E+02 0.149E+02 -.538E+02   0.216E+01 -.981E+00 0.363E+00   -.833E-03 0.178E-02 -.159E-03
   0.146E+01 0.616E+02 0.174E+03   -.195E+01 -.634E+02 -.174E+03   0.103E+00 0.202E+01 0.127E+01   -.178E-02 -.925E-02 -.333E-02
   -.539E+02 -.481E+02 -.800E+02   0.555E+02 0.490E+02 0.801E+02   -.206E+01 -.112E+01 -.361E+00   0.529E-02 0.731E-03 0.101E-02
   -.267E+02 -.250E+02 -.115E+03   0.271E+02 0.209E+02 0.114E+03   -.638E-01 0.270E+01 0.759E+00   0.453E-02 -.113E-01 -.199E-02
   0.123E+02 0.914E-01 -.893E+02   -.767E+01 0.249E+01 0.882E+02   -.314E+01 -.152E+01 0.392E+00   0.586E-02 -.265E-02 -.840E-03
   -.259E+02 -.698E+01 -.729E+02   0.216E+02 0.991E+01 0.716E+02   0.297E+01 -.182E+01 0.759E+00   -.386E-03 -.552E-02 -.896E-03
   0.588E+02 -.583E+02 0.112E+03   -.609E+02 0.590E+02 -.112E+03   0.204E+01 -.145E+01 -.292E-01   -.165E-01 0.713E-02 -.496E-03
   -.871E+01 0.358E+02 -.153E+03   0.870E+01 -.381E+02 0.153E+03   -.124E-01 0.261E+01 -.116E+01   -.282E-02 -.501E-02 0.100E-02
   -.687E+02 -.214E+02 -.491E+02   0.708E+02 0.218E+02 0.497E+02   -.226E+01 -.498E+00 -.836E+00   -.488E-02 -.871E-02 -.339E-02
   -.118E+02 0.296E+02 0.137E+03   0.119E+02 -.306E+02 -.139E+03   -.310E+00 0.632E+00 0.229E+01   0.278E-01 -.569E-02 0.255E-02
   -.160E+03 -.267E+02 0.183E+03   0.188E+03 0.417E+02 -.193E+03   -.300E+02 -.166E+02 0.119E+02   -.941E-04 0.423E-02 0.246E-02
   0.129E+03 -.126E+03 -.194E+03   -.156E+03 0.140E+03 0.203E+03   0.299E+02 -.157E+02 -.112E+02   -.484E-02 0.526E-02 -.151E-02
   0.432E+01 0.141E+03 0.321E+03   -.200E+01 -.167E+03 -.341E+03   -.280E+01 0.282E+02 0.223E+02   -.263E-02 0.166E-01 0.193E-01
   -.303E+02 0.114E+03 0.339E+03   0.275E+02 -.138E+03 -.362E+03   0.271E+01 0.260E+02 0.246E+02   0.109E-01 0.909E-02 0.154E-01
   0.159E+03 -.813E+02 -.919E+02   -.186E+03 0.992E+02 0.917E+02   0.290E+02 -.200E+02 -.266E+00   -.643E-02 0.119E-01 -.475E-02
   -.121E+03 -.666E+02 0.206E+03   0.147E+03 0.746E+02 -.223E+03   -.292E+02 -.881E+01 0.194E+02   -.538E-02 0.708E-02 0.208E-02
   -.375E+01 -.132E+01 -.197E+02   0.388E+01 0.142E+01 0.206E+02   -.182E+00 -.520E-01 -.104E+01   -.106E-02 0.236E-02 -.106E-02
   0.126E+02 -.183E+02 -.784E+02   -.129E+02 0.188E+02 0.823E+02   0.182E+00 -.608E+00 -.437E+01   -.272E-02 0.491E-02 0.248E-03
   -.238E+01 -.506E+02 -.247E+03   0.216E+02 0.619E+02 0.267E+03   -.207E+02 -.126E+02 -.226E+02   0.364E-02 0.534E-02 0.109E-03
   0.782E+01 0.552E+02 -.615E+02   -.251E+02 -.513E+02 0.710E+02   0.193E+02 -.415E+01 -.105E+02   0.189E-01 -.982E-02 -.790E-02
   -.130E+02 0.941E+02 0.101E+03   0.157E+02 -.124E+03 -.109E+03   -.313E+01 0.331E+02 0.999E+01   0.774E-02 -.652E-02 0.567E-02
   -.599E+00 0.916E+02 0.112E+03   -.136E+01 -.122E+03 -.121E+03   0.226E+01 0.329E+02 0.101E+02   0.366E-02 -.131E-02 0.605E-02
   0.345E+02 -.494E+02 -.271E+03   -.576E+02 0.613E+02 0.286E+03   0.249E+02 -.132E+02 -.175E+02   0.148E-01 -.372E-02 -.109E-01
   -.258E+01 0.630E+02 -.872E+02   0.183E+02 -.596E+02 0.999E+02   -.175E+02 -.351E+01 -.142E+02   0.633E-02 0.892E-03 0.156E-02
   0.400E+02 0.147E+02 0.616E+02   -.437E+02 -.173E+02 -.609E+02   0.448E+01 0.304E+01 -.436E+00   -.259E-02 0.492E-02 0.117E-02
   0.117E+02 0.317E+02 0.121E+03   -.135E+02 -.333E+02 -.125E+03   0.193E+01 0.177E+01 0.460E+01   -.316E-01 0.101E-01 0.609E-02
   -.157E+03 -.855E+02 -.100E+03   0.184E+03 0.103E+03 0.101E+03   -.296E+02 -.193E+02 -.733E+00   -.480E-02 -.248E-02 0.395E-03
   0.123E+03 -.568E+02 0.160E+03   -.151E+03 0.645E+02 -.175E+03   0.303E+02 -.839E+01 0.168E+02   0.618E-02 0.605E-03 0.310E-02
   0.893E+01 0.133E+03 0.351E+03   -.413E+01 -.157E+03 -.371E+03   -.496E+01 0.267E+02 0.231E+02   0.126E-01 -.132E-01 -.277E-02
   0.221E+01 0.194E+03 0.292E+03   -.367E+01 -.224E+03 -.302E+03   0.199E+01 0.337E+02 0.108E+02   -.368E-02 -.606E-02 0.113E-02
   0.161E+03 -.278E+02 0.111E+03   -.189E+03 0.439E+02 -.116E+03   0.307E+02 -.178E+02 0.560E+01   0.114E-01 -.681E-02 0.296E-02
   -.117E+03 -.130E+03 -.237E+03   0.143E+03 0.144E+03 0.250E+03   -.284E+02 -.155E+02 -.145E+02   0.210E-02 -.411E-02 -.365E-02
   0.666E+00 -.265E+02 -.105E+02   -.558E+00 0.276E+02 0.835E+01   -.120E+00 -.132E+01 0.243E+01   0.225E-02 0.184E-02 0.504E-02
   -.121E+02 -.207E+02 -.153E+03   0.121E+02 0.224E+02 0.158E+03   0.133E+00 -.191E+01 -.585E+01   0.148E-02 -.187E-01 -.380E-02
   -.185E+03 -.532E+02 -.756E+02   0.212E+03 0.700E+02 0.761E+02   -.299E+02 -.184E+02 -.595E+00   -.129E-01 -.144E-01 -.197E-02
   0.146E+03 -.121E+03 0.249E+03   -.174E+03 0.136E+03 -.254E+03   0.309E+02 -.153E+02 0.719E+01   -.201E-01 0.511E-02 0.563E-02
   0.665E-01 0.122E+03 -.312E+03   0.414E+01 -.148E+03 0.332E+03   -.468E+01 0.277E+02 -.226E+02   -.844E-02 0.284E-02 -.261E-02
   -.288E+02 0.937E+02 -.351E+03   0.273E+02 -.117E+03 0.374E+03   0.168E+01 0.255E+02 -.259E+02   0.382E-03 -.447E-02 -.569E-02
   0.155E+03 -.104E+03 0.192E+03   -.176E+03 0.125E+03 -.203E+03   0.237E+02 -.226E+02 0.127E+02   -.897E-02 0.698E-02 0.245E-02
   -.138E+03 -.605E+02 -.151E+03   0.167E+03 0.683E+02 0.163E+03   -.315E+02 -.836E+01 -.143E+02   -.255E-01 -.400E-02 -.105E-01
   -.376E+02 0.173E+02 0.364E+02   0.402E+02 -.191E+02 -.382E+02   -.314E+01 0.224E+01 0.226E+01   0.964E-02 -.542E-02 -.135E-02
   0.379E+02 -.958E+02 -.813E+03   -.387E+02 0.108E+03 0.826E+03   0.889E+00 -.128E+02 -.145E+02   0.583E-01 -.333E-03 -.249E-02
 -----------------------------------------------------------------------------------------------
   0.192E+01 -.600E+01 -.387E+01   0.568E-13 -.412E-12 -.114E-12   -.197E+01 0.600E+01 0.386E+01   0.487E-01 -.158E-01 0.331E-01
 
 
 POSITION                                       TOTAL-FORCE (eV/Angst)
 -----------------------------------------------------------------------------------
     -0.01615      2.67515      6.90872        -0.003771     -1.586544      0.646891
      1.31826      4.97621      7.01716         1.674739      0.229251      0.227545
     -1.37688      4.92703      6.92206        -1.698587      0.185957      0.000981
      6.21074      0.71419      8.19224         0.388380     -0.085170     -0.353857
      3.76710      4.97486      6.68291         0.184214      0.052299      0.581330
      1.28077      0.64306      7.26864        -0.383219      0.005181      0.300291
     -3.88088      8.97215      7.83920        -0.216106     -1.299211     -0.736763
     -2.40250     11.18365      8.11946         1.331949      1.058251     -0.198853
     -5.05748     11.28676      8.06963        -1.347292      1.074242     -0.330753
      2.59831      6.83283      8.13084         0.661404      0.193874     -0.350841
      0.04256     11.08905      7.92131        -0.037085      0.633109      0.483446
     -2.75311      6.82931      7.78687        -0.587736      0.280948     -0.781606
      7.54549      2.68882      7.65781        -0.052173     -1.405347      0.650940
      8.75220      4.76128      6.47810         1.371523      0.658927      0.352870
      6.17795      4.85488      7.05448        -1.337561      1.104501      0.379698
     13.65566      0.46702      7.46334         0.439675      0.060228      0.261871
     11.17511      4.68838      6.38086        -0.391058      0.201999      0.566945
      8.82093      0.70005      8.29491        -0.451717     -0.204841     -0.299910
      3.85190      8.85651      8.60623         0.408347     -1.435132     -0.790822
      5.10143     11.17057      8.47066         1.489130      1.050437     -0.759971
      2.44001     11.14723      8.44550        -1.416811      1.086033     -0.523859
      9.82129      6.91576      6.81225        -0.088034     -0.696919      0.251128
      7.52779     11.19284      8.66157        -0.031484      0.326382     -0.709188
      5.14278      6.87775      7.93574        -0.198215     -0.144425     -0.192938
     -0.01550      4.20270      6.88546        -0.099730     -0.361285      0.246086
      1.25968      1.99925      6.81942        -2.495111     -1.569129      1.264389
      5.01397     -0.04645      8.45895         2.491880     -1.405197     -1.587313
      5.01637      4.34654      6.35666        -0.477772      2.343604      2.350042
      2.45710      4.48550      6.31400         0.008267      1.924327      2.547916
      6.23886      2.12814      7.98906         2.465719     -2.158655     -0.434914
     -5.01419     12.44930      7.23584        -2.513083     -0.809792      2.144084
      0.01817      0.02310      7.82204        -0.049550      0.046313     -0.125481
     -3.74952     10.46015      8.10420        -0.164454     -0.123081     -0.454596
     -2.82014      8.12265      8.38817        -1.544964     -1.269855     -2.631330
      1.31766      6.13503      7.96312         2.078127     -0.222450     -1.015224
      1.30810     10.38984      7.93352        -0.402568      2.833285      1.205474
     -1.21987     10.40646      7.76585         0.306692      2.859333      1.230135
      2.61650      8.08237      8.82631         1.870751     -1.393121     -2.302081
     -1.49638      6.07965      7.85888        -1.846855     -0.093342     -1.504430
     11.06990      6.06071      7.06301         0.828259      0.436112      0.228543
      7.50965      4.03263      6.95495         0.161569      0.211422      0.496659
      8.83136      2.10853      8.02285        -2.571267     -1.986168     -0.301770
      4.99494     12.28641      7.57916         2.632249     -0.711102      1.995565
     -2.43816      4.39452      6.13660        -0.150066      2.067196      2.560978
      9.94828      3.99918      6.14836         0.518653      3.120566      1.510027
     13.64198      1.82925      7.04912         2.603366     -1.735667      0.692955
      9.96097     -0.07155      8.73959        -2.270779     -1.412541     -1.838795
      7.51892     -0.05495      8.07261        -0.009089     -0.227026      0.277095
      3.77010     10.37465      8.65403         0.171495     -0.231291     -0.629709
      5.12229      8.26686      8.30193        -2.764629     -1.617885     -0.119812
      8.65327      6.22822      6.41110         3.013459     -0.962085      1.556952
     -6.13964     10.77075      8.88857        -0.477486      2.290727     -2.316267
      6.27132     10.68205      9.17000         0.162511      1.820715     -2.736642
     -4.99943      8.55351      7.03979         2.273022     -1.865951      1.467405
      6.30767      6.06772      7.83790        -2.944852     -0.561527     -1.619581
      3.80885      6.23393      7.56801        -0.607810      0.386942      0.498982
     -0.14466      7.42950      9.03628         0.095536     -0.967422     -1.329915
 -----------------------------------------------------------------------------------
    total drift:                                0.002738     -0.007101      0.032309


--------------------------------------------------------------------------------------------------------



  FREE ENERGIE OF THE ION-ELECTRON SYSTEM (eV)
  ---------------------------------------------------
  free  energy   TOTEN  =      -463.25793058 eV

  energy  without entropy=     -463.25793058  energy(sigma->0) =     -463.25793058
 


--------------------------------------------------------------------------------------------------------


    POTLOK:  cpu time    0.1547: real time    0.1556


--------------------------------------------------------------------------------------------------------


 stress matrix after NEB project (eV)
   -215.73716      3.56518     -5.58437
      3.56518   -195.81295    -10.21843
     -5.58437    -10.21843    -50.16989
  FORCES: max atom, RMS     3.525712    2.280756
  FORCE total and by dimension   17.219329    3.120566
  Stress total and by dimension  296.139960  215.737161
     LOOP+:  cpu time  206.1196: real time  208.6869
    4ORBIT:  cpu time    0.0000: real time    0.0000
 


 total charge     
 
# of ion       s       p       d       tot
------------------------------------------
    1        0.808   1.511   0.000   2.319
    2        0.798   1.501   0.000   2.299
    3        0.800   1.506   0.000   2.306
    4        0.821   1.514   0.000   2.335
    5        0.814   1.513   0.000   2.327
    6        0.823   1.522   0.000   2.345
    7        0.808   1.506   0.000   2.314
    8        0.808   1.501   0.000   2.309
    9        0.812   1.504   0.000   2.316
   10        0.821   1.538   0.000   2.359
   11        0.821   1.517   0.000   2.338
   12        0.823   1.546   0.000   2.369
   13        0.809   1.501   0.000   2.310
   14        0.804   1.508   0.000   2.312
   15        0.802   1.509   0.000   2.311
   16        0.823   1.526   0.000   2.349
   17        0.814   1.521   0.000   2.336
   18        0.819   1.512   0.000   2.331
   19        0.808   1.504   0.000   2.312
   20        0.811   1.501   0.000   2.312
   21        0.807   1.496   0.000   2.302
   22        0.820   1.515   0.000   2.335
   23        0.821   1.504   0.000   2.325
   24        0.820   1.528   0.000   2.349
   25        1.181   2.512   0.000   3.693
   26        1.264   2.445   0.000   3.709
   27        1.261   2.444   0.000   3.705
   28        1.267   2.419   0.000   3.685
   29        1.262   2.437   0.000   3.699
   30        1.262   2.440   0.000   3.702
   31        1.269   2.440   0.000   3.709
   32        1.211   2.534   0.000   3.744
   33        1.186   2.525   0.000   3.711
   34        1.256   2.458   0.000   3.714
   35        1.232   2.464   0.000   3.696
   36        1.260   2.440   0.000   3.700
   37        1.259   2.441   0.000   3.699
   38        1.255   2.449   0.000   3.704
   39        1.232   2.469   0.000   3.701
   40        1.207   2.551   0.000   3.758
   41        1.186   2.511   0.000   3.697
   42        1.262   2.431   0.000   3.693
   43        1.266   2.446   0.000   3.712
   44        1.262   2.438   0.000   3.700
   45        1.265   2.424   0.000   3.689
   46        1.263   2.451   0.000   3.714
   47        1.261   2.437   0.000   3.698
   48        1.208   2.537   0.000   3.745
   49        1.188   2.497   0.000   3.685
   50        1.261   2.450   0.000   3.711
   51        1.262   2.440   0.000   3.701
   52        1.266   2.423   0.000   3.690
   53        1.266   2.426   0.000   3.692
   54        1.261   2.433   0.000   3.694
   55        1.268   2.435   0.000   3.703
   56        1.207   2.546   0.000   3.753
   57        1.357   0.601  10.007  11.965
--------------------------------------------------
tot         60.686 115.695  10.007 186.388
 


 magnetization (x)
 
# of ion       s       p       d       tot
------------------------------------------
    1        0.000  -0.000   0.000  -0.000
    2        0.000   0.001   0.000   0.001
    3       -0.000  -0.001   0.000  -0.001
    4       -0.000  -0.000   0.000  -0.000
    5        0.000   0.001   0.000   0.001
    6       -0.000  -0.000   0.000  -0.000
    7       -0.000  -0.000   0.000  -0.000
    8       -0.000  -0.000   0.000  -0.000
    9       -0.000  -0.000   0.000  -0.000
   10       -0.000  -0.000   0.000  -0.000
   11        0.000   0.000   0.000   0.000
   12        0.000   0.000   0.000   0.000
   13       -0.000  -0.000   0.000  -0.000
   14       -0.000  -0.001   0.000  -0.001
   15        0.000   0.001   0.000   0.001
   16        0.000   0.000   0.000   0.000
   17       -0.000  -0.001   0.000  -0.001
   18       -0.000  -0.000   0.000  -0.000
   19        0.000   0.000   0.000   0.000
   20        0.000   0.000   0.000   0.000
   21        0.000   0.000   0.000   0.000
   22       -0.000  -0.000   0.000  -0.000
   23       -0.000  -0.000   0.000  -0.000
   24        0.000   0.000   0.000   0.000
   25       -0.000   0.000   0.000   0.000
   26       -0.000  -0.000   0.000  -0.000
   27       -0.000  -0.000   0.000  -0.000
   28       -0.000  -0.000   0.000  -0.000
   29       -0.000  -0.000   0.000  -0.000
   30       -0.000  -0.000   0.000  -0.000
   31       -0.000  -0.000   0.000  -0.000
   32        0.000   0.000   0.000   0.000
   33        0.000  -0.000   0.000  -0.000
   34       -0.000  -0.000   0.000  -0.000
   35        0.000   0.000   0.000   0.000
   36        0.000  -0.000   0.000  -0.000
   37       -0.000  -0.000   0.000  -0.000
   38        0.000   0.000   0.000   0.000
   39       -0.000  -0.000   0.000  -0.000
   40       -0.000  -0.000   0.000  -0.000
   41       -0.000  -0.000   0.000  -0.000
   42        0.000  -0.000   0.000  -0.000
   43        0.000   0.000   0.000   0.000
   44        0.000   0.000   0.000   0.000
   45       -0.000   0.000   0.000   0.000
   46        0.000   0.000   0.000   0.000
   47       -0.000   0.000   0.000   0.000
   48       -0.000  -0.000   0.000  -0.000
   49       -0.000   0.000   0.000   0.000
   50        0.000  -0.000   0.000  -0.000
   51       -0.000  -0.000   0.000  -0.000
   52       -0.000  -0.000   0.000  -0.000
   53        0.000   0.000   0.000   0.000
   54        0.000  -0.000   0.000  -0.000
   55        0.000   0.000   0.000   0.000
   56        0.000   0.001   0.000   0.001
   57        0.000   0.000   0.000   0.000
--------------------------------------------------
tot         -0.000  -0.000   0.000  -0.000
 
 BZINTS: Fermi energy: -3.201050;270.000000 electrons
         Band energy:***********;  BLOECHL correction:  0.000000

 total amount of memory used by VASP MPI-rank0   100716. kBytes
=======================================================================

   base      :      30000. kBytes
   nonl-proj :      16293. kBytes
   fftplans  :       4941. kBytes
   grid      :      13335. kBytes
   one-center:        155. kBytes
   wavefun   :      35992. kBytes
 
  
  
 General timing and accounting informations for this job:
 ========================================================
  
                  Total CPU time used (sec):      219.788
                            User time (sec):      212.262
                          System time (sec):        7.527
                         Elapsed time (sec):      230.111
  
                   Maximum memory used (kb):      453288.
                   Average memory used (kb):           0.
  
                          Minor page faults:      1209230
                          Major page faults:            0
                 Voluntary context switches:         7816
