 vasp.5.4.4.18Apr17-6-g9f103f2a35 (build Nov  8 2022 18:58:45) complex           
 executed on             LinuxGNU date 2023.04.13  15:54:36
 running on   48 total cores
 distrk:  each k-point on   48 cores,    1 groups
 distr:  one band on NCORES_PER_BAND=  12 cores,    4 groups


--------------------------------------------------------------------------------------------------------


 INCAR:
 POTCAR:    PAW_PBE C 08Apr2002                   
 POTCAR:    PAW_PBE N 08Apr2002                   
 POTCAR:    PAW_PBE Ge_d 03Jul2007                
 POTCAR:    PAW_PBE C 08Apr2002                   
 POTCAR:    PAW_PBE O 08Apr2002                   
 POTCAR:    PAW_PBE C 08Apr2002                   
   SHA256 =  253f7b50bb8d59471dbedb8285d89021f4a42ed1a2c5d38a03a736e69125dd95 C/
   COPYR  = (c) Copyright 08Apr2002 Georg Kresse                                
   COPYR  = This file is part of the software VASP. Any use, copying, and all ot
   COPYR  = If you do not have a valid VASP license, you may not use, copy or di
   VRHFIN =C: s2p2                                                              
   LEXCH  = PE                                                                  
   EATOM  =   147.1560 eV,   10.8157 Ry                                         
                                                                                
   TITEL  = PAW_PBE C 08Apr2002                                                 
   LULTRA =        F    use ultrasoft PP ?                                      
   IUNSCR =        1    unscreen: 0-lin 1-nonlin 2-no                           
   RPACOR =    1.200    partial core radius                                     
   POMASS =   12.011; ZVAL   =    4.000    mass and valenz                      
   RCORE  =    1.500    outmost cutoff radius                                   
   RWIGS  =    1.630; RWIGS  =    0.863    wigner-seitz radius (au A)           
   ENMAX  =  400.000; ENMIN  =  300.000 eV                                      
   ICORE  =        2    local potential                                         
   LCOR   =        T    correct aug charges                                     
   LPAW   =        T    paw PP                                                  
   EAUG   =  644.873                                                            
   DEXC   =    0.000                                                            
   RMAX   =    1.529    core radius for proj-oper                               
   RAUG   =    1.300    factor for augmentation sphere                          
   RDEP   =    1.501    radius for radial grids                                 
   RDEPT  =    1.300    core radius for aug-charge                              
                                                                                
   Atomic configuration                                                         
    4 entries                                                                   
     n  l   j            E        occ.                                          
     1  0  0.50      -273.3789   2.0000                                         
     2  0  0.50       -13.7508   2.0000                                         
     2  1  0.50        -5.2854   2.0000                                         
     3  2  1.50        -5.4423   0.0000                                         
   Description                                                                  
     l       E           TYP  RCUT    TYP  RCUT                                 
     0    -13.7508458     23  1.200                                             
     0     -8.2022199     23  1.200                                             
     1     -5.2854383     23  1.500                                             
     1     34.0145650     23  1.500                                             
     2     -5.4423304      7  1.500                                             
  local pseudopotential read in
  partial core-charges read in
  partial kinetic energy density read in
  atomic valenz-charges read in
  non local Contribution for L=           0  read in
    real space projection operators read in
  non local Contribution for L=           0  read in
    real space projection operators read in
  non local Contribution for L=           1  read in
    real space projection operators read in
  non local Contribution for L=           1  read in
    real space projection operators read in
    PAW grid and wavefunctions read in

   number of l-projection  operators is LMAX  =           4
   number of lm-projection operators is LMMAX =           8

 POTCAR:    PAW_PBE N 08Apr2002                   
   SHA256 =  e053789ff3a61a86a1b75d8a110fcc91f86041011e7b0817c7c99e4e8a6349d7 N/
   COPYR  = (c) Copyright 08Apr2002 Georg Kresse                                
   COPYR  = This file is part of the software VASP. Any use, copying, and all ot
   COPYR  = If you do not have a valid VASP license, you may not use, copy or di
   VRHFIN =N: s2p3                                                              
   LEXCH  = PE                                                                  
   EATOM  =   264.5486 eV,   19.4438 Ry                                         
                                                                                
   TITEL  = PAW_PBE N 08Apr2002                                                 
   LULTRA =        F    use ultrasoft PP ?                                      
   IUNSCR =        1    unscreen: 0-lin 1-nonlin 2-no                           
   RPACOR =    1.200    partial core radius                                     
   POMASS =   14.001; ZVAL   =    5.000    mass and valenz                      
   RCORE  =    1.500    outmost cutoff radius                                   
   RWIGS  =    1.400; RWIGS  =    0.741    wigner-seitz radius (au A)           
   ENMAX  =  400.000; ENMIN  =  300.000 eV                                      
   ICORE  =        2    local potential                                         
   LCOR   =        T    correct aug charges                                     
   LPAW   =        T    paw PP                                                  
   EAUG   =  627.112                                                            
   DEXC   =    0.000                                                            
   RMAX   =    1.529    core radius for proj-oper                               
   RAUG   =    1.300    factor for augmentation sphere                          
   RDEP   =    1.514    radius for radial grids                                 
   RDEPT  =    1.338    core radius for aug-charge                              
                                                                                
   Atomic configuration                                                         
    4 entries                                                                   
     n  l   j            E        occ.                                          
     1  0  0.50      -384.7179   2.0000                                         
     2  0  0.50       -18.5828   2.0000                                         
     2  1  0.50        -7.0898   3.0000                                         
     3  2  1.50        -6.8029   0.0000                                         
   Description                                                                  
     l       E           TYP  RCUT    TYP  RCUT                                 
     0    -18.5828119     23  1.200                                             
     0    -13.5018863     23  1.200                                             
     1     -7.0897853     23  1.500                                             
     1      9.5240782     23  1.500                                             
     2     -6.8029130      7  1.500                                             
  local pseudopotential read in
  partial core-charges read in
  partial kinetic energy density read in
  atomic valenz-charges read in
  non local Contribution for L=           0  read in
    real space projection operators read in
  non local Contribution for L=           0  read in
    real space projection operators read in
  non local Contribution for L=           1  read in
    real space projection operators read in
  non local Contribution for L=           1  read in
    real space projection operators read in
    PAW grid and wavefunctions read in

   number of l-projection  operators is LMAX  =           4
   number of lm-projection operators is LMMAX =           8

 POTCAR:    PAW_PBE Ge_d 03Jul2007                
   SHA256 =  944b26c40d2d7c4f4eb1ff3a2e8dbfdd7129146276cd341854bfd5c0e57780ed Ge
   COPYR  = (c) Copyright 03Jul2007 Georg Kresse                                
   COPYR  = This file is part of the software VASP. Any use, copying, and all ot
   COPYR  = If you do not have a valid VASP license, you may not use, copy or di
   VRHFIN =Ge: 3d4s4p                                                           
   LEXCH  = PE                                                                  
   EATOM  =  2596.2402 eV,  190.8183 Ry                                         
                                                                                
   TITEL  = PAW_PBE Ge_d 03Jul2007                                              
   LULTRA =        F    use ultrasoft PP ?                                      
   IUNSCR =        1    unscreen: 0-lin 1-nonlin 2-no                           
   RPACOR =    2.000    partial core radius                                     
   POMASS =   72.610; ZVAL   =   14.000    mass and valenz                      
   RCORE  =    2.300    outmost cutoff radius                                   
   RWIGS  =    2.300; RWIGS  =    1.217    wigner-seitz radius (au A)           
   ENMAX  =  310.294; ENMIN  =  232.720 eV                                      
   ICORE  =        3    local potential                                         
   LCOR   =        T    correct aug charges                                     
   LPAW   =        T    paw PP                                                  
   EAUG   =  531.356                                                            
   DEXC   =    0.000                                                            
   RMAX   =    2.342    core radius for proj-oper                               
   RAUG   =    1.300    factor for augmentation sphere                          
   RDEP   =    2.318    radius for radial grids                                 
   RDEPT  =    1.783    core radius for aug-charge                              
                                                                                
   Atomic configuration                                                         
    9 entries                                                                   
     n  l   j            E        occ.                                          
     1  0  0.50    -10959.8463   2.0000                                         
     2  0  0.50     -1371.6056   2.0000                                         
     2  1  1.50     -1198.4791   6.0000                                         
     3  0  0.50      -168.4733   2.0000                                         
     3  1  1.50      -115.6019   6.0000                                         
     3  2  2.50       -29.3106  10.0000                                         
     4  0  0.50       -11.7309   2.0000                                         
     4  1  0.50        -3.8952   2.0000                                         
     4  3  2.50        -4.0817   0.0000                                         
   Description                                                                  
     l       E           TYP  RCUT    TYP  RCUT                                 
     2    -29.3105938     23  2.200                                             
     2    -13.6058260     23  2.200                                             
     0    -11.7309493     23  2.300                                             
     0     -7.4578696     23  2.300                                             
     1     -3.8952261     23  2.300                                             
     1      6.1178114     23  2.300                                             
     3     -1.3605826     23  2.300                                             
  local pseudopotential read in
  partial core-charges read in
  partial kinetic energy density read in
  atomic valenz-charges read in
  non local Contribution for L=           2  read in
    real space projection operators read in
  non local Contribution for L=           2  read in
    real space projection operators read in
  non local Contribution for L=           0  read in
    real space projection operators read in
  non local Contribution for L=           0  read in
    real space projection operators read in
  non local Contribution for L=           1  read in
    real space projection operators read in
  non local Contribution for L=           1  read in
    real space projection operators read in
    PAW grid and wavefunctions read in

   number of l-projection  operators is LMAX  =           6
   number of lm-projection operators is LMMAX =          18

 POTCAR:    PAW_PBE C 08Apr2002                   
   SHA256 =  253f7b50bb8d59471dbedb8285d89021f4a42ed1a2c5d38a03a736e69125dd95 C/
   COPYR  = (c) Copyright 08Apr2002 Georg Kresse                                
   COPYR  = This file is part of the software VASP. Any use, copying, and all ot
   COPYR  = If you do not have a valid VASP license, you may not use, copy or di
   VRHFIN =C: s2p2                                                              
   LEXCH  = PE                                                                  
   EATOM  =   147.1560 eV,   10.8157 Ry                                         
                                                                                
   TITEL  = PAW_PBE C 08Apr2002                                                 
   LULTRA =        F    use ultrasoft PP ?                                      
   IUNSCR =        1    unscreen: 0-lin 1-nonlin 2-no                           
   RPACOR =    1.200    partial core radius                                     
   POMASS =   12.011; ZVAL   =    4.000    mass and valenz                      
   RCORE  =    1.500    outmost cutoff radius                                   
   RWIGS  =    1.630; RWIGS  =    0.863    wigner-seitz radius (au A)           
   ENMAX  =  400.000; ENMIN  =  300.000 eV                                      
   ICORE  =        2    local potential                                         
   LCOR   =        T    correct aug charges                                     
   LPAW   =        T    paw PP                                                  
   EAUG   =  644.873                                                            
   DEXC   =    0.000                                                            
   RMAX   =    1.529    core radius for proj-oper                               
   RAUG   =    1.300    factor for augmentation sphere                          
   RDEP   =    1.501    radius for radial grids                                 
   RDEPT  =    1.300    core radius for aug-charge                              
                                                                                
   Atomic configuration                                                         
    4 entries                                                                   
     n  l   j            E        occ.                                          
     1  0  0.50      -273.3789   2.0000                                         
     2  0  0.50       -13.7508   2.0000                                         
     2  1  0.50        -5.2854   2.0000                                         
     3  2  1.50        -5.4423   0.0000                                         
   Description                                                                  
     l       E           TYP  RCUT    TYP  RCUT                                 
     0    -13.7508458     23  1.200                                             
     0     -8.2022199     23  1.200                                             
     1     -5.2854383     23  1.500                                             
     1     34.0145650     23  1.500                                             
     2     -5.4423304      7  1.500                                             
  local pseudopotential read in
  partial core-charges read in
  partial kinetic energy density read in
  atomic valenz-charges read in
  non local Contribution for L=           0  read in
    real space projection operators read in
  non local Contribution for L=           0  read in
    real space projection operators read in
  non local Contribution for L=           1  read in
    real space projection operators read in
  non local Contribution for L=           1  read in
    real space projection operators read in
    PAW grid and wavefunctions read in

   number of l-projection  operators is LMAX  =           4
   number of lm-projection operators is LMMAX =           8

 POTCAR:    PAW_PBE O 08Apr2002                   
   SHA256 =  818f92134a0a090dccd8ba1447fa70422a3b330e708bb4f08108d8ae51209ddf O/
   COPYR  = (c) Copyright 08Apr2002 Georg Kresse                                
   COPYR  = This file is part of the software VASP. Any use, copying, and all ot
   COPYR  = If you do not have a valid VASP license, you may not use, copy or di
   VRHFIN =O: s2p4                                                              
   LEXCH  = PE                                                                  
   EATOM  =   432.3788 eV,   31.7789 Ry                                         
                                                                                
   TITEL  = PAW_PBE O 08Apr2002                                                 
   LULTRA =        F    use ultrasoft PP ?                                      
   IUNSCR =        1    unscreen: 0-lin 1-nonlin 2-no                           
   RPACOR =    1.200    partial core radius                                     
   POMASS =   16.000; ZVAL   =    6.000    mass and valenz                      
   RCORE  =    1.520    outmost cutoff radius                                   
   RWIGS  =    1.550; RWIGS  =    0.820    wigner-seitz radius (au A)           
   ENMAX  =  400.000; ENMIN  =  300.000 eV                                      
   ICORE  =        2    local potential                                         
   LCOR   =        T    correct aug charges                                     
   LPAW   =        T    paw PP                                                  
   EAUG   =  605.392                                                            
   DEXC   =    0.000                                                            
   RMAX   =    1.553    core radius for proj-oper                               
   RAUG   =    1.300    factor for augmentation sphere                          
   RDEP   =    1.550    radius for radial grids                                 
   RDEPT  =    1.329    core radius for aug-charge                              
                                                                                
   Atomic configuration                                                         
    4 entries                                                                   
     n  l   j            E        occ.                                          
     1  0  0.50      -514.6923   2.0000                                         
     2  0  0.50       -23.9615   2.0000                                         
     2  1  0.50        -9.0305   4.0000                                         
     3  2  1.50        -9.5241   0.0000                                         
   Description                                                                  
     l       E           TYP  RCUT    TYP  RCUT                                 
     0    -23.9615318     23  1.200                                             
     0     -9.5240782     23  1.200                                             
     1     -9.0304911     23  1.520                                             
     1      8.1634956     23  1.520                                             
     2     -9.5240782      7  1.500                                             
  local pseudopotential read in
  partial core-charges read in
  partial kinetic energy density read in
  kinetic energy density of atom read in
  atomic valenz-charges read in
  non local Contribution for L=           0  read in
    real space projection operators read in
  non local Contribution for L=           0  read in
    real space projection operators read in
  non local Contribution for L=           1  read in
    real space projection operators read in
  non local Contribution for L=           1  read in
    real space projection operators read in
    PAW grid and wavefunctions read in

   number of l-projection  operators is LMAX  =           4
   number of lm-projection operators is LMMAX =           8


 ----------------------------------------------------------------------------- 
|                                                                             |
|  ADVICE TO THIS USER RUNNING 'VASP/VAMP'   (HEAR YOUR MASTER'S VOICE ...):  |
|                                                                             |
|      You have a (more or less) 'large supercell' and for larger cells       |
|      it might be more efficient to use real space projection opertators     |
|      So try LREAL= Auto  in the INCAR   file.                               |
|      Mind:          For very  accurate calculation you might also keep the  |
|      reciprocal projection scheme          (i.e. LREAL=.FALSE.)             |
|                                                                             |
 ----------------------------------------------------------------------------- 

  PAW_PBE C 08Apr2002                   :
 energy of atom  1       EATOM= -147.1560
 kinetic energy error for atom=    0.0132 (will be added to EATOM!!)
  PAW_PBE N 08Apr2002                   :
 energy of atom  2       EATOM= -264.5486
 kinetic energy error for atom=    0.0298 (will be added to EATOM!!)
  PAW_PBE Ge_d 03Jul2007                :
 energy of atom  3       EATOM=-2596.2402
 kinetic energy error for atom=    0.0090 (will be added to EATOM!!)
  PAW_PBE C 08Apr2002                   :
 energy of atom  4       EATOM= -147.1560
 kinetic energy error for atom=    0.0132 (will be added to EATOM!!)
  PAW_PBE O 08Apr2002                   :
 energy of atom  5       EATOM= -432.3788
 kinetic energy error for atom=    0.0458 (will be added to EATOM!!)


 POSCAR: POSCAR-c3n4                             
  positions in direct lattice
  velocities in cartesian coordinates
 exchange correlation table for  LEXCH =        8
   RHO(1)=    0.500       N(1)  =     2000
   RHO(2)=  100.500       N(2)  =     4000



--------------------------------------------------------------------------------------------------------


 ion  position               nearest neighbor table
   1  0.081  0.221  0.397-  46 1.30  26 1.38  25 1.45
   2  0.269  0.340  0.280-  29 1.30  35 1.40  25 1.41
   3  0.127  0.438  0.304-  44 1.30  39 1.38  25 1.43
   4  0.437  0.094  0.663-  30 1.30  27 1.40  48 1.40
   5  0.420  0.273  0.328-  28 1.31  29 1.35  56 1.41
   6  0.155  0.190  0.569-  31 1.32  26 1.35  32 1.38
   7  0.075  0.749  0.527-  54 1.33  33 1.37  34 1.38
   8  0.219  0.882  0.680-  33 1.28  37 1.34  27 1.51
   9  0.222  0.101  0.705-  52 1.34  31 1.35  27 1.41
  10  0.441  0.497  0.385-  35 1.30  38 1.37  56 1.40
  11  0.397  0.847  0.687-  37 1.30  36 1.35  48 1.44
  12  0.105  0.592  0.424-  34 1.32  39 1.34  40 1.36
  13  0.613  0.242  0.546-  42 1.33  30 1.37  55 1.37
  14  0.807  0.493  0.245-  41 1.30  51 1.39  45 1.40
  15  0.625  0.288  0.338-  41 1.30  28 1.34  55 1.56
  16  0.936  0.007  0.481-  43 1.31  46 1.35  32 1.41
  17  0.018  0.544  0.233-  45 1.30  44 1.36  40 1.43
  18  0.615  0.045  0.605-  47 1.31  42 1.34  48 1.41
  19  0.577  0.614  0.541-  50 1.32  38 1.39  49 1.40
  20  0.786  0.831  0.593-  53 1.32  43 1.35  49 1.43
  21  0.580  0.822  0.634-  36 1.33  47 1.35  49 1.40
  22  0.936  0.653  0.372-  51 1.30  54 1.34  40 1.43
  23  0.992  0.983  0.675-  52 1.33  53 1.33  32 1.41
  24  0.594  0.432  0.469-  50 1.33  55 1.38  56 1.38
  25  0.130  0.309  0.297-   2 1.41   3 1.43   1 1.45
  26  0.171  0.282  0.487-   6 1.35   1 1.38  57 2.25
  27  0.305  0.038  0.714-   4 1.40   9 1.41   8 1.51
  28  0.489  0.208  0.306-   5 1.31  15 1.34
  29  0.291  0.234  0.286-   2 1.30   5 1.35
  30  0.506  0.220  0.616-   4 1.30  13 1.37
  31  0.259  0.213  0.636-   6 1.32   9 1.35
  32  0.026  0.061  0.575-   6 1.38  23 1.41  16 1.41
  33  0.128  0.858  0.604-   8 1.28   7 1.37
  34  0.131  0.662  0.519-  12 1.32   7 1.38
  35  0.363  0.487  0.300-  10 1.30   2 1.40
  36  0.450  0.760  0.674-  21 1.33  11 1.35
  37  0.266  0.796  0.714-  11 1.30   8 1.34
  38  0.463  0.587  0.473-  10 1.37  19 1.39  57 2.16
  39  0.148  0.498  0.409-  12 1.34   3 1.38  57 2.11
  40  0.029  0.605  0.340-  12 1.36  17 1.43  22 1.43
  41  0.717  0.357  0.261-  14 1.30  15 1.30
  42  0.680  0.169  0.547-  13 1.33  18 1.34
  43  0.820  0.880  0.488-  16 1.31  20 1.35
  44  0.091  0.477  0.214-   3 1.30  17 1.36
  45  0.914  0.523  0.168-  17 1.30  14 1.40
  46  0.971  0.090  0.389-   1 1.30  16 1.35
  47  0.668  0.962  0.607-  18 1.31  21 1.35
  48  0.482  0.995  0.654-   4 1.40  18 1.41  11 1.44
  49  0.638  0.737  0.609-  19 1.40  21 1.40  20 1.43
  50  0.644  0.544  0.537-  19 1.32  24 1.33
  51  0.817  0.597  0.318-  22 1.30  14 1.39
  52  0.094  0.017  0.749-  23 1.33   9 1.34
  53  0.861  0.871  0.686-  20 1.32  23 1.33
  54  0.977  0.743  0.460-   7 1.33  22 1.34
  55  0.644  0.340  0.462-  13 1.37  24 1.38  15 1.56
  56  0.483  0.397  0.396-  24 1.38  10 1.40   5 1.41
  57  0.261  0.507  0.553-  39 2.11  38 2.16  26 2.25
  58  0.299  0.450  0.840-  59 1.14
  59  0.267  0.454  0.930-  58 1.14


IMPORTANT INFORMATION: All symmetrisations will be switched off!
NOSYMM: (Re-)initialisation of all symmetry stuff for point group C_1.



 KPOINTS: K-Points                                

Automatic generation of k-mesh.
Space group operators:
 irot       det(A)        alpha          n_x          n_y          n_z        tau_x        tau_y        tau_z
    1     1.000000     0.000002     1.000000     0.000000     0.000000     0.000000     0.000000     0.000000
 
 Subroutine IBZKPT returns following result:
 ===========================================
 
 Found      5 irreducible k-points:
 
 Following reciprocal coordinates:
            Coordinates               Weight
  0.000000  0.000000  0.000000      1.000000
  0.333333  0.000000  0.000000      2.000000
  0.000000  0.333333  0.000000      2.000000
  0.333333  0.333333  0.000000      2.000000
 -0.333333  0.333333  0.000000      2.000000
 
 Following cartesian coordinates:
            Coordinates               Weight
  0.000000  0.000000  0.000000      1.000000
  0.024277  0.014368  0.000000      2.000000
  0.000396  0.028736  0.000000      2.000000
  0.024673  0.043104  0.000000      2.000000
 -0.023881  0.014368  0.000000      2.000000
 
 TETIRR: Found     24 inequivalent tetrahedra from       54


--------------------------------------------------------------------------------------------------------




 Dimension of arrays:
   k-points           NKPTS =      5   k-points in BZ     NKDIM =      5   number of bands    NBANDS=    172
   number of dos      NEDOS =   4000   number of ions     NIONS =     59
   non local maximal  LDIM  =      6   non local SUM 2l+1 LMDIM =     18
   total plane-waves  NPLWV = 215040
   max r-space proj   IRMAX =      1   max aug-charges    IRDMAX=   6063
   dimension x,y,z NGX =    60 NGY =   56 NGZ =   64
   dimension x,y,z NGXF=   120 NGYF=  112 NGZF=  128
   support grid    NGXF=   120 NGYF=  112 NGZF=  128
   ions per type =              24  32   1   1   1
   NGX,Y,Z   is equivalent  to a cutoff of   9.01,  8.56,  8.87 a.u.
   NGXF,Y,Z  is equivalent  to a cutoff of  18.01, 17.13, 17.73 a.u.

 SYSTEM =  unknown system                          
 POSCAR =  POSCAR-c3n4                             

 Startparameter for this run:
   NWRITE =      2    write-flag & timer
   PREC   = normal    normal or accurate (medium, high low for compatibility)
   ISTART =      0    job   : 0-new  1-cont  2-samecut
   ICHARG =      2    charge: 1-file 2-atom 10-const
   ISPIN  =      2    spin polarized calculation?
   LNONCOLLINEAR =      F non collinear calculations
   LSORBIT =      F    spin-orbit coupling
   INIWAV =      1    electr: 0-lowe 1-rand  2-diag
   LASPH  =      F    aspherical Exc in radial PAW
   METAGGA=      F    non-selfconsistent MetaGGA calc.

 Electronic Relaxation 1
   ENCUT  =  440.0 eV  32.34 Ry    5.69 a.u.  18.94 18.59 20.52*2*pi/ulx,y,z
   ENINI  =  440.0     initial cutoff
   ENAUG  =  644.9 eV  augmentation charge cutoff
   NELM   =    100;   NELMIN=  2; NELMDL= -5     # of ELM steps 
   EDIFF  = 0.1E-03   stopping-criterion for ELM
   LREAL  =      F    real-space projection
   NLSPLINE    = F    spline interpolate recip. space projectors
   LCOMPAT=      F    compatible to vasp.4.4
   GGA_COMPAT  = T    GGA compatible to vasp.4.4-vasp.4.6
   LMAXPAW     = -100 max onsite density
   LMAXMIX     =    2 max onsite mixed and CHGCAR
   VOSKOWN=      0    Vosko Wilk Nusair interpolation
   ROPT   =    0.00000   0.00000   0.00000   0.00000
   ROPT   =    0.00000
 Ionic relaxation
   EDIFFG = -.1E-01   stopping-criterion for IOM
   NSW    =      0    number of steps for IOM
   NBLOCK =      1;   KBLOCK =      1    inner block; outer block 
   IBRION =     -1    ionic relax: 0-MD 1-quasi-New 2-CG
   NFREE  =      0    steps in history (QN), initial steepest desc. (CG)
   ISIF   =      2    stress and relaxation
   IWAVPR =     10    prediction:  0-non 1-charg 2-wave 3-comb
   ISYM   =      0    0-nonsym 1-usesym 2-fastsym
   LCORR  =      T    Harris-Foulkes like correction to forces

   POTIM  = 0.5000    time-step for ionic-motion
   TEIN   =    0.0    initial temperature
   TEBEG  =    0.0;   TEEND  =   0.0 temperature during run
   SMASS  =  -3.00    Nose mass-parameter (am)
   estimated Nose-frequenzy (Omega)   =  0.10E-29 period in steps =****** mass=  -0.280E-26a.u.
   SCALEE = 1.0000    scale energy and forces
   NPACO  =    256;   APACO  = 16.0  distance and # of slots for P.C.
   PSTRESS=    0.0 pullay stress

  Mass of Ions in am
   POMASS =  12.01 14.00 72.61 12.01 16.00
  Ionic Valenz
   ZVAL   =   4.00  5.00 14.00  4.00  6.00
  Atomic Wigner-Seitz radii
   RWIGS  =  -1.00 -1.00 -1.00 -1.00 -1.00
  virtual crystal weights 
   VCA    =   1.00  1.00  1.00  1.00  1.00
   NELECT =     280.0000    total number of electrons
   NUPDOWN=      -1.0000    fix difference up-down

 DOS related values:
   EMIN   = -14.00;   EMAX   =  6.00  energy-range for DOS
   EFERMI =   0.00
   ISMEAR =    -5;   SIGMA  =   0.20  broadening in eV -4-tet -1-fermi 0-gaus

 Electronic relaxation 2 (details)
   IALGO  =     38    algorithm
   LDIAG  =      T    sub-space diagonalisation (order eigenvalues)
   LSUBROT=      F    optimize rotation matrix (better conditioning)
   TURBO    =      0    0=normal 1=particle mesh
   IRESTART =      0    0=no restart 2=restart with 2 vectors
   NREBOOT  =      0    no. of reboots
   NMIN     =      0    reboot dimension
   EREF     =   0.00    reference energy to select bands
   IMIX   =      4    mixing-type and parameters
     AMIX     =   0.25;   BMIX     =  0.00
     AMIX_MAG =   1.00;   BMIX_MAG =  0.00
     AMIN     =   0.10
     WC   =   100.;   INIMIX=   1;  MIXPRE=   1;  MAXMIX= -45

 Intra band minimization:
   WEIMIN = 0.0000     energy-eigenvalue tresh-hold
   EBREAK =  0.15E-06  absolut break condition
   DEPER  =   0.30     relativ break condition  

   TIME   =   0.40     timestep for ELM

  volume/ion in A,a.u.               =      20.90       141.06
  Fermi-wavevector in a.u.,A,eV,Ry     =   0.998716  1.887300 13.570919  0.997434
  Thomas-Fermi vector in A             =   2.130958

 Write flags
   LWAVE        =      F    write WAVECAR
   LDOWNSAMPLE  =      F    k-point downsampling of WAVECAR
   LCHARG       =      F    write CHGCAR
   LVTOT        =      F    write LOCPOT, total local potential
   LVHAR        =      F    write LOCPOT, Hartree potential only
   LELF         =      F    write electronic localiz. function (ELF)
   LORBIT       =     11    0 simple, 1 ext, 2 COOP (PROOUT), +10 PAW based schemes


 Dipole corrections
   LMONO  =      F    monopole corrections only (constant potential shift)
   LDIPOL =      F    correct potential (dipole corrections)
   IDIPOL =      0    1-x, 2-y, 3-z, 4-all directions 
   EPSILON=  1.0000000 bulk dielectric constant

 Exchange correlation treatment:
   GGA     =    --    GGA type
   LEXCH   =     8    internal setting for exchange type
   VOSKOWN=      0    Vosko Wilk Nusair interpolation
   LHFCALC =     F    Hartree Fock is set to
   LHFONE  =     F    Hartree Fock one center treatment
   AEXX    =    0.0000 exact exchange contribution

 Linear response parameters
   LEPSILON=     F    determine dielectric tensor
   LRPA    =     F    only Hartree local field effects (RPA)
   LNABLA  =     F    use nabla operator in PAW spheres
   LVEL    =     F    velocity operator in full k-point grid
   LINTERFAST=   F  fast interpolation
   KINTER  =     0    interpolate to denser k-point grid
   CSHIFT  =0.1000    complex shift for real part using Kramers Kronig
   OMEGAMAX=  -1.0    maximum frequency
   DEG_THRESHOLD= 0.2000000E-02 threshold for treating states as degnerate
   RTIME   =   -0.100 relaxation time in fs
  (WPLASMAI=    0.000 imaginary part of plasma frequency in eV, 0.658/RTIME)
   DFIELD  = 0.0000000 0.0000000 0.0000000 field for delta impulse in time

 Orbital magnetization related:
   ORBITALMAG=     F  switch on orbital magnetization
   LCHIMAG   =     F  perturbation theory with respect to B field
   DQ        =  0.001000  dq finite difference perturbation B field
   LLRAUG    =     F  two centre corrections for induced B field



--------------------------------------------------------------------------------------------------------


 Static calculation
 charge density and potential will be updated during run
 spin polarized calculation
 Variant of blocked Davidson
 Davidson routine will perform the subspace rotation
 perform sub-space diagonalisation
    after iterative eigenvector-optimisation
 modified Broyden-mixing scheme, WC =      100.0
 initial mixing is a Kerker type mixing with AMIX =  0.2500 and BMIX =      0.0001
 Hartree-type preconditioning will be used
 using additional bands           32
 reciprocal scheme for non local part
 use partial core corrections
 calculate Harris-corrections to forces   (improved forces if not selfconsistent)
 use gradient corrections 
 use of overlap-Matrix (Vanderbilt PP)
 Fermi weights with tetrahedron method with Bloechl corrections


--------------------------------------------------------------------------------------------------------


  energy-cutoff  :      440.00
  volume of cell :     1233.26
      direct lattice vectors                 reciprocal lattice vectors
    11.074739388 -0.152592379  0.000000000     0.091037962  0.053880143 -0.000000000
    -5.537369694  9.356152795  0.000000000     0.001484766  0.107760286 -0.000000000
     0.000000000  0.000000000 12.000000000    -0.000000000 -0.000000000  0.083333333

  length of vectors
    11.075790579 10.871985019 12.000000000     0.105787430  0.107770514  0.083333333



 k-points in units of 2pi/SCALE and weight: K-Points                                
   0.00000000  0.00000000  0.00000000       0.111
   0.02427679  0.01436804  0.00000000       0.222
   0.00039594  0.02873608  0.00000000       0.222
   0.02467273  0.04310411  0.00000000       0.222
  -0.02388085  0.01436804  0.00000000       0.222

 k-points in reciprocal lattice and weights: K-Points                                
   0.00000000  0.00000000  0.00000000       0.111
   0.33333333  0.00000000  0.00000000       0.222
   0.00000000  0.33333333  0.00000000       0.222
   0.33333333  0.33333333  0.00000000       0.222
  -0.33333333  0.33333333  0.00000000       0.222

 position of ions in fractional coordinates (direct lattice) 
   0.08139966  0.22063122  0.39663008
   0.26898565  0.33977162  0.28004972
   0.12728983  0.43832746  0.30386175
   0.43707457  0.09356096  0.66314268
   0.41987586  0.27329785  0.32789309
   0.15459441  0.18993737  0.56871623
   0.07528981  0.74879591  0.52712784
   0.21887859  0.88185716  0.68012037
   0.22238549  0.10115911  0.70489648
   0.44055884  0.49722591  0.38521147
   0.39742489  0.84650464  0.68695278
   0.10470445  0.59181794  0.42390100
   0.61307386  0.24195341  0.54620530
   0.80710730  0.49312924  0.24507013
   0.62479655  0.28771903  0.33836158
   0.93633913  0.00714532  0.48091262
   0.01798353  0.54437594  0.23256929
   0.61499955  0.04531068  0.60463475
   0.57654023  0.61441839  0.54147066
   0.78615147  0.83057303  0.59332120
   0.58003446  0.82163077  0.63413296
   0.93634297  0.65319573  0.37231706
   0.99230095  0.98288018  0.67470400
   0.59381501  0.43211303  0.46856725
   0.13027768  0.30861521  0.29728987
   0.17073165  0.28167408  0.48666257
   0.30536554  0.03839426  0.71432927
   0.48902855  0.20813952  0.30616005
   0.29128456  0.23397459  0.28591290
   0.50624126  0.21987927  0.61636470
   0.25878989  0.21306220  0.63608102
   0.02577088  0.06125817  0.57462351
   0.12766043  0.85754913  0.60381138
   0.13099968  0.66189662  0.51876571
   0.36289074  0.48681886  0.29992474
   0.44951479  0.75971386  0.67405081
   0.26590758  0.79643759  0.71431393
   0.46306802  0.58670296  0.47340362
   0.14753339  0.49788982  0.40854232
   0.02903364  0.60468097  0.34045446
   0.71728877  0.35684808  0.26050632
   0.67955289  0.16929900  0.54733057
   0.82006727  0.88041130  0.48826994
   0.09108323  0.47720298  0.21366669
   0.91424873  0.52303124  0.16788746
   0.97140307  0.09032723  0.38856443
   0.66780545  0.96155537  0.60733922
   0.48184170  0.99499685  0.65374436
   0.63752224  0.73682945  0.60924565
   0.64436653  0.54404622  0.53699238
   0.81718813  0.59749020  0.31784750
   0.09355753  0.01728927  0.74933163
   0.86096232  0.87060429  0.68607002
   0.97687494  0.74294066  0.46017663
   0.64426504  0.33970578  0.46194117
   0.48327873  0.39747005  0.39623478
   0.26054779  0.50680600  0.55335952
   0.29886206  0.45011146  0.84007306
   0.26735950  0.45433808  0.92995754

 position of ions in cartesian coordinates  (Angst):
  -0.32023656  2.05183842  4.75956099
   1.09750492  3.13791002  3.36059667
  -1.01747949  4.08163522  3.64634095
   4.32240532  0.80867643  7.95771212
   3.13666452  2.49294660  3.93471710
   0.66033934  1.75349310  6.82459471
  -3.31254471  6.99436029  6.32553407
  -2.45914575  8.21739110  8.16144442
   1.90270591  0.91252580  8.45875774
   2.12575064  4.58489567  4.62253768
  -0.28603205  7.85938271  8.24343335
  -2.11754021  5.52116199  5.08681204
   5.44984780  2.17020264  6.55446356
   6.20786407  4.49063408  2.94084150
   5.32625231  2.59660397  4.06033894
  10.33014558 -0.07602547  5.77095142
  -2.81524790  5.09052033  2.79083152
   6.56005777  0.33008939  7.25561700
   2.98277101  5.66061672  6.49764788
   4.10723277  7.65100746  7.11985438
   1.87405710  7.59879421  7.60959553
   6.75276817  5.96852022  4.46780470
   5.54690347  9.04455961  8.09644804
   4.18357694  3.95230384  5.62280696
  -0.26612513  2.86757172  3.56747845
   0.33107504  2.60933340  5.83995079
   3.16924058  0.31262608  8.57195124
   4.26331824  1.87276311  3.67392066
   1.93029675  2.14465426  3.43095476
   4.38893728  1.97997544  7.39637642
   1.68622637  1.95395316  7.63297221
  -0.05380341  0.56920839  6.89548209
  -3.33476050  8.00388063  7.24573660
  -2.21437894  6.17281633  6.22518855
   1.32322436  4.49937727  3.59909684
   0.77144266  7.03940640  8.08860976
  -1.46531225  7.41101632  8.57176717
   1.87956638  5.41862192  5.68084347
  -1.12310616  4.63582074  4.90250787
  -3.02680209  5.65305722  4.08545352
   5.96778645  3.22927235  3.12607584
   6.58840003  1.48029276  6.56796688
   4.20686839  8.11212665  5.85923931
  -1.63372623  4.45088535  2.56400027
   7.22884915  4.75405277  2.01464956
  10.25786055  0.69688662  4.66277313
   2.07128376  8.89455692  7.28807063
  -0.17339421  9.23581721  7.84493229
   2.98029559  6.79660786  7.31094779
   4.12360637  4.99185416  6.44390859
   5.74162137  5.46551297  3.81417002
   0.94038823  0.14748488  8.99197952
   4.71407551  8.01413051  8.23284019
   6.70469829  6.80200262  5.52211952
   5.25399099  3.08002922  5.54329406
   3.15124739  3.64504591  4.75481731
   0.07912669  4.70199680  6.64031426
   0.81738581  4.16570757 10.08087668
   0.44509893  4.21005943 11.15949044



--------------------------------------------------------------------------------------------------------


 k-point  1 :   0.0000 0.0000 0.0000  plane waves:   25855
 k-point  2 :   0.3333 0.0000 0.0000  plane waves:   25857
 k-point  3 :   0.0000 0.3333 0.0000  plane waves:   25829
 k-point  4 :   0.3333 0.3333 0.0000  plane waves:   25874
 k-point  5 :  -0.3333 0.3333 0.0000  plane waves:   25865

 maximum and minimum number of plane-waves per node :      2176     2140

 maximum number of plane-waves:     25874
 maximum index in each direction: 
   IXMAX=   19   IYMAX=   18   IZMAX=   20
   IXMIN=  -19   IYMIN=  -18   IZMIN=  -20


 parallel 3D FFT for wavefunctions:
    minimum data exchange during FFTs selected (reduces bandwidth)
 parallel 3D FFT for charge:
    minimum data exchange during FFTs selected (reduces bandwidth)


 total amount of memory used by VASP MPI-rank0    63181. kBytes
=======================================================================

   base      :      30000. kBytes
   nonl-proj :       9833. kBytes
   fftplans  :       1973. kBytes
   grid      :       5974. kBytes
   one-center:        155. kBytes
   wavefun   :      15246. kBytes

     INWAV:  cpu time    0.0001: real time    0.0001
 Broyden mixing: mesh for mixing (old mesh)
   NGX = 37   NGY = 37   NGZ = 41
  (NGX  =120   NGY  =112   NGZ  =128)
  gives a total of  56129 points

 initial charge density was supplied:
 charge density of overlapping atoms calculated
 number of electron     280.0000000 magnetization       2.0000000
 keeping initial charge density in first step


--------------------------------------------------------------------------------------------------------


 Maximum index for augmentation-charges          172 (set IRDMAX)


--------------------------------------------------------------------------------------------------------


 First call to EWALD:  gamma=   0.165
 Maximum number of real-space cells 3x 3x 3
 Maximum number of reciprocal cells 3x 3x 3

    FEWALD:  cpu time    0.0082: real time    0.0082


--------------------------------------- Iteration      1(   1)  ---------------------------------------


    POTLOK:  cpu time    0.0778: real time    0.0829
    SETDIJ:  cpu time    0.0105: real time    0.0105
     EDDAV:  cpu time    6.3640: real time    6.3651
 BZINTS: Fermi energy: 13.398919;280.000000 electrons
         Band energy:-817.685591;  BLOECHL correction: -0.053922
       DOS:  cpu time    0.4008: real time    0.4009
    --------------------------------------------
      LOOP:  cpu time    6.8531: real time    6.8593

 eigenvalue-minimisations  :  3568
 total energy-change (2. order) : 0.2552946E+04  (-0.1151683E+05)
 number of electron     280.0000000 magnetization       2.0000000
 augmentation part      280.0000000 magnetization       2.0000000

 Free energy of the ion-electron system (eV)
  ---------------------------------------------------
  alpha Z        PSCENC =       302.14145564
  Ewald energy   TEWEN  =      9711.93309692
  -Hartree energ DENC   =    -22395.51389553
  -exchange      EXHF   =         0.00000000
  -V(xc)+E(xc)   XCENC  =      1069.40103493
  PAW double counting   =     11453.83848114   -11942.90478952
  entropy T*S    EENTRO =         0.00000000
  eigenvalues    EBANDS =      -817.68559149
  atomic energy  EATOM  =     15171.73615219
  Solvation  Ediel_sol  =         0.00000000
  ---------------------------------------------------
  free energy    TOTEN  =      2552.94594427 eV

  energy without entropy =     2552.94594427  energy(sigma->0) =     2552.94594427


--------------------------------------------------------------------------------------------------------




--------------------------------------- Iteration      1(   2)  ---------------------------------------


     EDDAV:  cpu time    7.8660: real time    7.8833
 BZINTS: Fermi energy:  0.448690;280.000000 electrons
         Band energy:***********;  BLOECHL correction:  0.000000
       DOS:  cpu time    0.0152: real time    0.0152
    --------------------------------------------
      LOOP:  cpu time    7.8811: real time    7.8985

 eigenvalue-minimisations  :  4424
 total energy-change (2. order) :-0.2690721E+04  (-0.2598033E+04)
 number of electron     280.0000000 magnetization       2.0000000
 augmentation part      280.0000000 magnetization       2.0000000

 Free energy of the ion-electron system (eV)
  ---------------------------------------------------
  alpha Z        PSCENC =       302.14145564
  Ewald energy   TEWEN  =      9711.93309692
  -Hartree energ DENC   =    -22395.51389553
  -exchange      EXHF   =         0.00000000
  -V(xc)+E(xc)   XCENC  =      1069.40103493
  PAW double counting   =     11453.83848114   -11942.90478952
  entropy T*S    EENTRO =         0.00000000
  eigenvalues    EBANDS =     -3508.40613087
  atomic energy  EATOM  =     15171.73615219
  Solvation  Ediel_sol  =         0.00000000
  ---------------------------------------------------
  free energy    TOTEN  =      -137.77459511 eV

  energy without entropy =     -137.77459511  energy(sigma->0) =     -137.77459511


--------------------------------------------------------------------------------------------------------




--------------------------------------- Iteration      1(   3)  ---------------------------------------


     EDDAV:  cpu time    6.9118: real time    6.9159
 BZINTS: Fermi energy: -2.100775;280.000000 electrons
         Band energy:***********;  BLOECHL correction:  0.000000
       DOS:  cpu time    0.0157: real time    0.0157
    --------------------------------------------
      LOOP:  cpu time    6.9275: real time    6.9315

 eigenvalue-minimisations  :  3984
 total energy-change (2. order) :-0.3659175E+03  (-0.3607950E+03)
 number of electron     280.0000000 magnetization       2.0000000
 augmentation part      280.0000000 magnetization       2.0000000

 Free energy of the ion-electron system (eV)
  ---------------------------------------------------
  alpha Z        PSCENC =       302.14145564
  Ewald energy   TEWEN  =      9711.93309692
  -Hartree energ DENC   =    -22395.51389553
  -exchange      EXHF   =         0.00000000
  -V(xc)+E(xc)   XCENC  =      1069.40103493
  PAW double counting   =     11453.83848114   -11942.90478952
  entropy T*S    EENTRO =         0.00000000
  eigenvalues    EBANDS =     -3874.32360238
  atomic energy  EATOM  =     15171.73615219
  Solvation  Ediel_sol  =         0.00000000
  ---------------------------------------------------
  free energy    TOTEN  =      -503.69206661 eV

  energy without entropy =     -503.69206661  energy(sigma->0) =     -503.69206661


--------------------------------------------------------------------------------------------------------




--------------------------------------- Iteration      1(   4)  ---------------------------------------


     EDDAV:  cpu time    7.4201: real time    7.4230
 BZINTS: Fermi energy: -2.374594;280.000000 electrons
         Band energy:***********;  BLOECHL correction:  0.000000
       DOS:  cpu time    0.0153: real time    0.0153
    --------------------------------------------
      LOOP:  cpu time    7.4354: real time    7.4383

 eigenvalue-minimisations  :  4360
 total energy-change (2. order) :-0.1594229E+02  (-0.1563449E+02)
 number of electron     280.0000000 magnetization       2.0000000
 augmentation part      280.0000000 magnetization       2.0000000

 Free energy of the ion-electron system (eV)
  ---------------------------------------------------
  alpha Z        PSCENC =       302.14145564
  Ewald energy   TEWEN  =      9711.93309692
  -Hartree energ DENC   =    -22395.51389553
  -exchange      EXHF   =         0.00000000
  -V(xc)+E(xc)   XCENC  =      1069.40103493
  PAW double counting   =     11453.83848114   -11942.90478952
  entropy T*S    EENTRO =         0.00000000
  eigenvalues    EBANDS =     -3890.26589635
  atomic energy  EATOM  =     15171.73615219
  Solvation  Ediel_sol  =         0.00000000
  ---------------------------------------------------
  free energy    TOTEN  =      -519.63436059 eV

  energy without entropy =     -519.63436059  energy(sigma->0) =     -519.63436059


--------------------------------------------------------------------------------------------------------




--------------------------------------- Iteration      1(   5)  ---------------------------------------


     EDDAV:  cpu time    7.6794: real time    7.6806
 BZINTS: Fermi energy: -2.389597;280.000000 electrons
         Band energy:***********;  BLOECHL correction:  0.000000
       DOS:  cpu time    0.0149: real time    0.0149
    CHARGE:  cpu time    0.2758: real time    0.2758
    MIXING:  cpu time    0.0023: real time    0.0025
    --------------------------------------------
      LOOP:  cpu time    7.9724: real time    7.9738

 eigenvalue-minimisations  :  4584
 total energy-change (2. order) :-0.5518169E+00  (-0.5487000E+00)
 number of electron     279.9999984 magnetization      -0.0000000
 augmentation part       20.2253490 magnetization       0.0294026

 Broyden mixing:
  rms(total) = 0.41780E+01    rms(broyden)= 0.41749E+01
  rms(prec ) = 0.48374E+01
  weight for this iteration     100.00

 Free energy of the ion-electron system (eV)
  ---------------------------------------------------
  alpha Z        PSCENC =       302.14145564
  Ewald energy   TEWEN  =      9711.93309692
  -Hartree energ DENC   =    -22395.51389553
  -exchange      EXHF   =         0.00000000
  -V(xc)+E(xc)   XCENC  =      1069.40103493
  PAW double counting   =     11453.83848114   -11942.90478952
  entropy T*S    EENTRO =         0.00000000
  eigenvalues    EBANDS =     -3890.81771324
  atomic energy  EATOM  =     15171.73615219
  Solvation  Ediel_sol  =         0.00000000
  ---------------------------------------------------
  free energy    TOTEN  =      -520.18617748 eV

  energy without entropy =     -520.18617748  energy(sigma->0) =     -520.18617748


--------------------------------------------------------------------------------------------------------




--------------------------------------- Iteration      1(   6)  ---------------------------------------


    POTLOK:  cpu time    0.0773: real time    0.0781
    SETDIJ:  cpu time    0.0100: real time    0.0100
     EDDAV:  cpu time    7.2548: real time    7.2572
 BZINTS: Fermi energy: -1.795699;280.000000 electrons
         Band energy:***********;  BLOECHL correction:  0.000000
       DOS:  cpu time    0.0148: real time    0.0148
    CHARGE:  cpu time    0.2683: real time    0.2683
    MIXING:  cpu time    0.0018: real time    0.0018
    --------------------------------------------
      LOOP:  cpu time    7.6268: real time    7.6302

 eigenvalue-minimisations  :  4288
 total energy-change (2. order) : 0.2639327E+02  (-0.4959381E+01)
 number of electron     279.9999984 magnetization      -0.0000000
 augmentation part       19.1495396 magnetization       0.0092880

 Broyden mixing:
  rms(total) = 0.25796E+01    rms(broyden)= 0.25792E+01
  rms(prec ) = 0.28605E+01
  weight for this iteration     100.00

 eigenvalues of (default mixing * dielectric matrix)
  average eigenvalue GAMMA=   1.4203
  1.4203

 Free energy of the ion-electron system (eV)
  ---------------------------------------------------
  alpha Z        PSCENC =       302.14145564
  Ewald energy   TEWEN  =      9711.93309692
  -Hartree energ DENC   =    -22623.69582907
  -exchange      EXHF   =         0.00000000
  -V(xc)+E(xc)   XCENC  =      1084.01224825
  PAW double counting   =     15004.99872800   -15496.29118357
  entropy T*S    EENTRO =         0.00000000
  eigenvalues    EBANDS =     -3648.62757598
  atomic energy  EATOM  =     15171.73615219
  Solvation  Ediel_sol  =         0.00000000
  ---------------------------------------------------
  free energy    TOTEN  =      -493.79290762 eV

  energy without entropy =     -493.79290762  energy(sigma->0) =     -493.79290762


--------------------------------------------------------------------------------------------------------




--------------------------------------- Iteration      1(   7)  ---------------------------------------


    POTLOK:  cpu time    0.0764: real time    0.0772
    SETDIJ:  cpu time    0.0100: real time    0.0100
     EDDAV:  cpu time    7.0311: real time    7.0317
 BZINTS: Fermi energy: -2.010753;280.000000 electrons
         Band energy:***********;  BLOECHL correction:  0.000000
       DOS:  cpu time    0.0149: real time    0.0149
    CHARGE:  cpu time    0.2659: real time    0.2659
    MIXING:  cpu time    0.0013: real time    0.0013
    --------------------------------------------
      LOOP:  cpu time    7.3996: real time    7.4011

 eigenvalue-minimisations  :  4112
 total energy-change (2. order) : 0.4791787E+01  (-0.4004522E+01)
 number of electron     279.9999984 magnetization      -0.0000000
 augmentation part       18.7126220 magnetization       0.0024127

 Broyden mixing:
  rms(total) = 0.16725E+01    rms(broyden)= 0.16720E+01
  rms(prec ) = 0.18882E+01
  weight for this iteration     100.00

 eigenvalues of (default mixing * dielectric matrix)
  average eigenvalue GAMMA=   1.5097
  0.9307  2.0887

 Free energy of the ion-electron system (eV)
  ---------------------------------------------------
  alpha Z        PSCENC =       302.14145564
  Ewald energy   TEWEN  =      9711.93309692
  -Hartree energ DENC   =    -22855.25284758
  -exchange      EXHF   =         0.00000000
  -V(xc)+E(xc)   XCENC  =      1095.04385714
  PAW double counting   =     19649.26529860   -20143.46662493
  entropy T*S    EENTRO =         0.00000000
  eigenvalues    EBANDS =     -3420.40150860
  atomic energy  EATOM  =     15171.73615219
  Solvation  Ediel_sol  =         0.00000000
  ---------------------------------------------------
  free energy    TOTEN  =      -489.00112063 eV

  energy without entropy =     -489.00112063  energy(sigma->0) =     -489.00112063


--------------------------------------------------------------------------------------------------------




--------------------------------------- Iteration      1(   8)  ---------------------------------------


    POTLOK:  cpu time    0.0863: real time    0.0871
    SETDIJ:  cpu time    0.0099: real time    0.0099
     EDDAV:  cpu time    7.0881: real time    7.0887
 BZINTS: Fermi energy: -0.985496;280.000000 electrons
         Band energy:***********;  BLOECHL correction:  0.000000
       DOS:  cpu time    0.0150: real time    0.0150
    CHARGE:  cpu time    0.2648: real time    0.2648
    MIXING:  cpu time    0.0014: real time    0.0014
    --------------------------------------------
      LOOP:  cpu time    7.4655: real time    7.4669

 eigenvalue-minimisations  :  4152
 total energy-change (2. order) : 0.2083743E+01  (-0.1493374E+01)
 number of electron     279.9999984 magnetization       0.0000000
 augmentation part       18.5784906 magnetization       0.0004445

 Broyden mixing:
  rms(total) = 0.11778E+01    rms(broyden)= 0.11776E+01
  rms(prec ) = 0.12537E+01
  weight for this iteration     100.00

 eigenvalues of (default mixing * dielectric matrix)
  average eigenvalue GAMMA=   1.6381
  3.0627  1.2287  0.6230

 Free energy of the ion-electron system (eV)
  ---------------------------------------------------
  alpha Z        PSCENC =       302.14145564
  Ewald energy   TEWEN  =      9711.93309692
  -Hartree energ DENC   =    -22937.56628326
  -exchange      EXHF   =         0.00000000
  -V(xc)+E(xc)   XCENC  =      1099.61597566
  PAW double counting   =     22827.30254787   -23323.76514824
  entropy T*S    EENTRO =         0.00000000
  eigenvalues    EBANDS =     -3338.31517400
  atomic energy  EATOM  =     15171.73615219
  Solvation  Ediel_sol  =         0.00000000
  ---------------------------------------------------
  free energy    TOTEN  =      -486.91737723 eV

  energy without entropy =     -486.91737723  energy(sigma->0) =     -486.91737723


--------------------------------------------------------------------------------------------------------




--------------------------------------- Iteration      1(   9)  ---------------------------------------


    POTLOK:  cpu time    0.0774: real time    0.0780
    SETDIJ:  cpu time    0.0100: real time    0.0100
     EDDAV:  cpu time    7.0339: real time    7.0361
 BZINTS: Fermi energy: -0.755439;280.000000 electrons
         Band energy:***********;  BLOECHL correction:  0.000000
       DOS:  cpu time    0.0143: real time    0.0143
    CHARGE:  cpu time    0.2676: real time    0.2677
    MIXING:  cpu time    0.0014: real time    0.0014
    --------------------------------------------
      LOOP:  cpu time    7.4048: real time    7.4076

 eigenvalue-minimisations  :  4104
 total energy-change (2. order) :-0.1653735E+00  (-0.1028732E+01)
 number of electron     279.9999984 magnetization       0.0000000
 augmentation part       18.5320924 magnetization       0.0001314

 Broyden mixing:
  rms(total) = 0.69685E+00    rms(broyden)= 0.69642E+00
  rms(prec ) = 0.99735E+00
  weight for this iteration     100.00

 eigenvalues of (default mixing * dielectric matrix)
  average eigenvalue GAMMA=   1.5410
  3.5080  1.3155  0.6702  0.6702

 Free energy of the ion-electron system (eV)
  ---------------------------------------------------
  alpha Z        PSCENC =       302.14145564
  Ewald energy   TEWEN  =      9711.93309692
  -Hartree energ DENC   =    -23014.28729573
  -exchange      EXHF   =         0.00000000
  -V(xc)+E(xc)   XCENC  =      1102.89279656
  PAW double counting   =     27144.03649093   -27643.54658658
  entropy T*S    EENTRO =         0.00000000
  eigenvalues    EBANDS =     -3261.98886067
  atomic energy  EATOM  =     15171.73615219
  Solvation  Ediel_sol  =         0.00000000
  ---------------------------------------------------
  free energy    TOTEN  =      -487.08275074 eV

  energy without entropy =     -487.08275074  energy(sigma->0) =     -487.08275074


--------------------------------------------------------------------------------------------------------




--------------------------------------- Iteration      1(  10)  ---------------------------------------


    POTLOK:  cpu time    0.0757: real time    0.0762
    SETDIJ:  cpu time    0.0098: real time    0.0098
     EDDAV:  cpu time    7.1489: real time    7.1497
 BZINTS: Fermi energy: -0.796074;280.000000 electrons
         Band energy:***********;  BLOECHL correction:  0.000000
       DOS:  cpu time    0.0149: real time    0.0149
    CHARGE:  cpu time    0.2659: real time    0.2659
    MIXING:  cpu time    0.0016: real time    0.0016
    --------------------------------------------
      LOOP:  cpu time    7.5167: real time    7.5180

 eigenvalue-minimisations  :  4192
 total energy-change (2. order) : 0.5185635E+00  (-0.1107620E+01)
 number of electron     279.9999984 magnetization      -0.0000000
 augmentation part       18.5029601 magnetization       0.0000389

 Broyden mixing:
  rms(total) = 0.34612E+00    rms(broyden)= 0.34548E+00
  rms(prec ) = 0.40700E+00
  weight for this iteration     100.00

 eigenvalues of (default mixing * dielectric matrix)
  average eigenvalue GAMMA=   1.5268
  3.8466  1.6210  1.0624  0.5521  0.5521

 Free energy of the ion-electron system (eV)
  ---------------------------------------------------
  alpha Z        PSCENC =       302.14145564
  Ewald energy   TEWEN  =      9711.93309692
  -Hartree energ DENC   =    -23015.91542689
  -exchange      EXHF   =         0.00000000
  -V(xc)+E(xc)   XCENC  =      1103.64798379
  PAW double counting   =     28855.18241046   -29355.55737054
  entropy T*S    EENTRO =         0.00000000
  eigenvalues    EBANDS =     -3259.73248886
  atomic energy  EATOM  =     15171.73615219
  Solvation  Ediel_sol  =         0.00000000
  ---------------------------------------------------
  free energy    TOTEN  =      -486.56418729 eV

  energy without entropy =     -486.56418729  energy(sigma->0) =     -486.56418729


--------------------------------------------------------------------------------------------------------




--------------------------------------- Iteration      1(  11)  ---------------------------------------


    POTLOK:  cpu time    0.0766: real time    0.0775
    SETDIJ:  cpu time    0.0100: real time    0.0100
     EDDAV:  cpu time    6.7391: real time    6.7399
 BZINTS: Fermi energy: -0.785446;280.000000 electrons
         Band energy:***********;  BLOECHL correction:  0.000000
       DOS:  cpu time    0.0147: real time    0.0147
    CHARGE:  cpu time    0.2677: real time    0.2677
    MIXING:  cpu time    0.0017: real time    0.0017
    --------------------------------------------
      LOOP:  cpu time    7.1097: real time    7.1114

 eigenvalue-minimisations  :  3872
 total energy-change (2. order) : 0.1081358E+00  (-0.9169156E-01)
 number of electron     279.9999984 magnetization      -0.0000000
 augmentation part       18.5175321 magnetization       0.0000235

 Broyden mixing:
  rms(total) = 0.15924E+00    rms(broyden)= 0.15917E+00
  rms(prec ) = 0.19023E+00
  weight for this iteration     100.00

 eigenvalues of (default mixing * dielectric matrix)
  average eigenvalue GAMMA=   1.5303
  3.8228  1.8999  1.3534  1.0027  0.5517  0.5517

 Free energy of the ion-electron system (eV)
  ---------------------------------------------------
  alpha Z        PSCENC =       302.14145564
  Ewald energy   TEWEN  =      9711.93309692
  -Hartree energ DENC   =    -22990.51262502
  -exchange      EXHF   =         0.00000000
  -V(xc)+E(xc)   XCENC  =      1103.01106129
  PAW double counting   =     29972.00450723   -30472.51358587
  entropy T*S    EENTRO =         0.00000000
  eigenvalues    EBANDS =     -3284.25611388
  atomic energy  EATOM  =     15171.73615219
  Solvation  Ediel_sol  =         0.00000000
  ---------------------------------------------------
  free energy    TOTEN  =      -486.45605150 eV

  energy without entropy =     -486.45605150  energy(sigma->0) =     -486.45605150


--------------------------------------------------------------------------------------------------------




--------------------------------------- Iteration      1(  12)  ---------------------------------------


    POTLOK:  cpu time    0.0736: real time    0.0741
    SETDIJ:  cpu time    0.0097: real time    0.0097
     EDDAV:  cpu time    6.9132: real time    6.9137
 BZINTS: Fermi energy: -0.845461;280.000000 electrons
         Band energy:***********;  BLOECHL correction:  0.000000
       DOS:  cpu time    0.0146: real time    0.0146
    CHARGE:  cpu time    0.2685: real time    0.2685
    MIXING:  cpu time    0.0017: real time    0.0017
    --------------------------------------------
      LOOP:  cpu time    7.2815: real time    7.2826

 eigenvalue-minimisations  :  4008
 total energy-change (2. order) : 0.2630353E-01  (-0.2386186E-01)
 number of electron     279.9999984 magnetization      -0.0000000
 augmentation part       18.5324921 magnetization       0.0001014

 Broyden mixing:
  rms(total) = 0.85352E-01    rms(broyden)= 0.85310E-01
  rms(prec ) = 0.11489E+00
  weight for this iteration     100.00

 eigenvalues of (default mixing * dielectric matrix)
  average eigenvalue GAMMA=   1.4854
  3.8073  2.2156  1.4143  0.9311  0.9311  0.5492  0.5492

 Free energy of the ion-electron system (eV)
  ---------------------------------------------------
  alpha Z        PSCENC =       302.14145564
  Ewald energy   TEWEN  =      9711.93309692
  -Hartree energ DENC   =    -22976.41403801
  -exchange      EXHF   =         0.00000000
  -V(xc)+E(xc)   XCENC  =      1102.36282725
  PAW double counting   =     30250.12178474   -30750.33720991
  entropy T*S    EENTRO =         0.00000000
  eigenvalues    EBANDS =     -3297.97381680
  atomic energy  EATOM  =     15171.73615219
  Solvation  Ediel_sol  =         0.00000000
  ---------------------------------------------------
  free energy    TOTEN  =      -486.42974797 eV

  energy without entropy =     -486.42974797  energy(sigma->0) =     -486.42974797


--------------------------------------------------------------------------------------------------------




--------------------------------------- Iteration      1(  13)  ---------------------------------------


    POTLOK:  cpu time    0.0780: real time    0.0783
    SETDIJ:  cpu time    0.0100: real time    0.0100
     EDDAV:  cpu time    7.1423: real time    7.1429
 BZINTS: Fermi energy: -0.830458;280.000000 electrons
         Band energy:***********;  BLOECHL correction:  0.000000
       DOS:  cpu time    0.0148: real time    0.0148
    CHARGE:  cpu time    0.2695: real time    0.2695
    MIXING:  cpu time    0.0019: real time    0.0019
    --------------------------------------------
      LOOP:  cpu time    7.5164: real time    7.5173

 eigenvalue-minimisations  :  4192
 total energy-change (2. order) : 0.1426637E-01  (-0.1006482E-01)
 number of electron     279.9999984 magnetization      -0.0000000
 augmentation part       18.5385312 magnetization       0.0000179

 Broyden mixing:
  rms(total) = 0.40991E-01    rms(broyden)= 0.40936E-01
  rms(prec ) = 0.46146E-01
  weight for this iteration     100.00

 eigenvalues of (default mixing * dielectric matrix)
  average eigenvalue GAMMA=   1.4974
  3.7658  2.5259  1.4998  0.5482  0.5482  1.0556  1.0556  0.9804

 Free energy of the ion-electron system (eV)
  ---------------------------------------------------
  alpha Z        PSCENC =       302.14145564
  Ewald energy   TEWEN  =      9711.93309692
  -Hartree energ DENC   =    -22970.51060820
  -exchange      EXHF   =         0.00000000
  -V(xc)+E(xc)   XCENC  =      1102.11412270
  PAW double counting   =     30353.82134207   -30853.86338385
  entropy T*S    EENTRO =         0.00000000
  eigenvalues    EBANDS =     -3303.78765907
  atomic energy  EATOM  =     15171.73615219
  Solvation  Ediel_sol  =         0.00000000
  ---------------------------------------------------
  free energy    TOTEN  =      -486.41548160 eV

  energy without entropy =     -486.41548160  energy(sigma->0) =     -486.41548160


--------------------------------------------------------------------------------------------------------




--------------------------------------- Iteration      1(  14)  ---------------------------------------


    POTLOK:  cpu time    0.0888: real time    0.0895
    SETDIJ:  cpu time    0.0099: real time    0.0099
     EDDAV:  cpu time    6.6459: real time    6.6466
 BZINTS: Fermi energy: -0.846087;280.000000 electrons
         Band energy:***********;  BLOECHL correction:  0.000000
       DOS:  cpu time    0.0149: real time    0.0149
    CHARGE:  cpu time    0.2687: real time    0.2687
    MIXING:  cpu time    0.0019: real time    0.0019
    --------------------------------------------
      LOOP:  cpu time    7.0301: real time    7.0316

 eigenvalue-minimisations  :  3792
 total energy-change (2. order) : 0.7148799E-04  (-0.2520933E-02)
 number of electron     279.9999984 magnetization      -0.0000000
 augmentation part       18.5398883 magnetization       0.0000243

 Broyden mixing:
  rms(total) = 0.27911E-01    rms(broyden)= 0.27903E-01
  rms(prec ) = 0.31722E-01
  weight for this iteration     100.00

 eigenvalues of (default mixing * dielectric matrix)
  average eigenvalue GAMMA=   1.4557
  3.7292  2.5470  1.4779  1.2371  1.2371  0.5490  0.5490  0.9848  0.7907

 Free energy of the ion-electron system (eV)
  ---------------------------------------------------
  alpha Z        PSCENC =       302.14145564
  Ewald energy   TEWEN  =      9711.93309692
  -Hartree energ DENC   =    -22969.13160146
  -exchange      EXHF   =         0.00000000
  -V(xc)+E(xc)   XCENC  =      1102.02384311
  PAW double counting   =     30395.11611908   -30895.06537901
  entropy T*S    EENTRO =         0.00000000
  eigenvalues    EBANDS =     -3305.16909658
  atomic energy  EATOM  =     15171.73615219
  Solvation  Ediel_sol  =         0.00000000
  ---------------------------------------------------
  free energy    TOTEN  =      -486.41541011 eV

  energy without entropy =     -486.41541011  energy(sigma->0) =     -486.41541011


--------------------------------------------------------------------------------------------------------




--------------------------------------- Iteration      1(  15)  ---------------------------------------


    POTLOK:  cpu time    0.0775: real time    0.0779
    SETDIJ:  cpu time    0.0100: real time    0.0100
     EDDAV:  cpu time    7.0660: real time    7.0668
 BZINTS: Fermi energy: -0.840460;280.000000 electrons
         Band energy:***********;  BLOECHL correction:  0.000000
       DOS:  cpu time    0.0147: real time    0.0147
    CHARGE:  cpu time    0.2702: real time    0.2702
    MIXING:  cpu time    0.0020: real time    0.0020
    --------------------------------------------
      LOOP:  cpu time    7.4404: real time    7.4416

 eigenvalue-minimisations  :  4120
 total energy-change (2. order) : 0.2394895E-03  (-0.3594580E-03)
 number of electron     279.9999984 magnetization       0.0000000
 augmentation part       18.5394352 magnetization       0.0000197

 Broyden mixing:
  rms(total) = 0.20130E-01    rms(broyden)= 0.20127E-01
  rms(prec ) = 0.21474E-01
  weight for this iteration     100.00

 eigenvalues of (default mixing * dielectric matrix)
  average eigenvalue GAMMA=   1.4843
  3.6603  2.6213  1.6107  1.6107  1.5804  0.5486  0.5486  1.0256  0.8183  0.8183

 Free energy of the ion-electron system (eV)
  ---------------------------------------------------
  alpha Z        PSCENC =       302.14145564
  Ewald energy   TEWEN  =      9711.93309692
  -Hartree energ DENC   =    -22969.52831013
  -exchange      EXHF   =         0.00000000
  -V(xc)+E(xc)   XCENC  =      1102.02609470
  PAW double counting   =     30400.46019602   -30900.40596488
  entropy T*S    EENTRO =         0.00000000
  eigenvalues    EBANDS =     -3304.77789109
  atomic energy  EATOM  =     15171.73615219
  Solvation  Ediel_sol  =         0.00000000
  ---------------------------------------------------
  free energy    TOTEN  =      -486.41517062 eV

  energy without entropy =     -486.41517062  energy(sigma->0) =     -486.41517062


--------------------------------------------------------------------------------------------------------




--------------------------------------- Iteration      1(  16)  ---------------------------------------


    POTLOK:  cpu time    0.0803: real time    0.0807
    SETDIJ:  cpu time    0.0099: real time    0.0099
     EDDAV:  cpu time    6.6937: real time    6.6943
 BZINTS: Fermi energy: -0.836084;280.000000 electrons
         Band energy:***********;  BLOECHL correction:  0.000000
       DOS:  cpu time    0.0152: real time    0.0152
    --------------------------------------------
      LOOP:  cpu time    6.7991: real time    6.8001

 eigenvalue-minimisations  :  3832
 total energy-change (2. order) : 0.6015059E-04  (-0.7019153E-04)
 number of electron     279.9999984 magnetization       0.0000000
 augmentation part       18.5394352 magnetization       0.0000197

 Free energy of the ion-electron system (eV)
  ---------------------------------------------------
  alpha Z        PSCENC =       302.14145564
  Ewald energy   TEWEN  =      9711.93309692
  -Hartree energ DENC   =    -22970.10428482
  -exchange      EXHF   =         0.00000000
  -V(xc)+E(xc)   XCENC  =      1102.03716154
  PAW double counting   =     30405.17864277   -30905.12306448
  entropy T*S    EENTRO =         0.00000000
  eigenvalues    EBANDS =     -3304.21427023
  atomic energy  EATOM  =     15171.73615219
  Solvation  Ediel_sol  =         0.00000000
  ---------------------------------------------------
  free energy    TOTEN  =      -486.41511047 eV

  energy without entropy =     -486.41511047  energy(sigma->0) =     -486.41511047


--------------------------------------------------------------------------------------------------------




 average (electrostatic) potential at core
  the test charge radii are     0.6991  0.7089  0.9911  0.6991  0.7215
  (the norm of the test charge is              1.0000)
       1 -59.0229       2 -58.5584       3 -58.8988       4 -59.7102       5 -58.4910
       6 -59.4613       7 -58.4039       8 -59.0001       9 -59.3679      10 -59.0503
      11 -59.1360      12 -59.0257      13 -58.9944      14 -58.1596      15 -58.4288
      16 -58.9350      17 -58.6068      18 -59.1610      19 -58.6601      20 -58.7351
      21 -58.9536      22 -58.4042      23 -59.1203      24 -58.6205      25 -71.7180
      26 -71.5163      27 -72.7842      28 -70.5020      29 -70.4818      30 -71.1296
      31 -71.1773      32 -73.2291      33 -70.6483      34 -70.5789      35 -70.3607
      36 -70.9472      37 -70.6664      38 -71.3033      39 -71.5173      40 -72.5832
      41 -70.7073      42 -70.8099      43 -70.5976      44 -70.4871      45 -69.8567
      46 -70.8160      47 -70.6599      48 -73.3296      49 -72.1868      50 -70.7543
      51 -70.1660      52 -70.7849      53 -70.7326      54 -70.2182      55 -72.0968
      56 -72.7748      57 -80.9975      58 -57.7049      59 -79.5117



 E-fermi :  -0.8361     XC(G=0):  -5.6123     alpha+bet : -4.5380


 spin component 1

 k-point     1 :       0.0000    0.0000    0.0000
  band No.  band energies     occupation 
      1     -26.3213      1.00000
      2     -26.3068      1.00000
      3     -26.2670      1.00000
      4     -26.2531      1.00000
      5     -26.2277      1.00000
      6     -25.2508      1.00000
      7     -24.7758      1.00000
      8     -24.4683      1.00000
      9     -24.3184      1.00000
     10     -24.1122      1.00000
     11     -23.5562      1.00000
     12     -23.3454      1.00000
     13     -23.0710      1.00000
     14     -22.4400      1.00000
     15     -22.3049      1.00000
     16     -22.2205      1.00000
     17     -22.1228      1.00000
     18     -21.9804      1.00000
     19     -21.8211      1.00000
     20     -21.2890      1.00000
     21     -20.8464      1.00000
     22     -20.8202      1.00000
     23     -20.7439      1.00000
     24     -20.5302      1.00000
     25     -20.2294      1.00000
     26     -20.1961      1.00000
     27     -20.1719      1.00000
     28     -19.9338      1.00000
     29     -19.8575      1.00000
     30     -19.6653      1.00000
     31     -19.4093      1.00000
     32     -19.1560      1.00000
     33     -19.0808      1.00000
     34     -18.9435      1.00000
     35     -18.8623      1.00000
     36     -18.8160      1.00000
     37     -18.5791      1.00000
     38     -18.3417      1.00000
     39     -15.9104      1.00000
     40     -15.4742      1.00000
     41     -15.4327      1.00000
     42     -15.2974      1.00000
     43     -15.1687      1.00000
     44     -14.9356      1.00000
     45     -14.8538      1.00000
     46     -14.4877      1.00000
     47     -13.8180      1.00000
     48     -13.7890      1.00000
     49     -13.5710      1.00000
     50     -13.4520      1.00000
     51     -13.0687      1.00000
     52     -12.7099      1.00000
     53     -12.5397      1.00000
     54     -12.4865      1.00000
     55     -12.4026      1.00000
     56     -12.2629      1.00000
     57     -12.1537      1.00000
     58     -12.0680      1.00000
     59     -11.9685      1.00000
     60     -11.9316      1.00000
     61     -11.7157      1.00000
     62     -11.4058      1.00000
     63     -11.3333      1.00000
     64     -11.1809      1.00000
     65     -10.9954      1.00000
     66     -10.7167      1.00000
     67     -10.5958      1.00000
     68     -10.4062      1.00000
     69     -10.3335      1.00000
     70     -10.2744      1.00000
     71     -10.1874      1.00000
     72     -10.0816      1.00000
     73      -9.9874      1.00000
     74      -9.9197      1.00000
     75      -9.8094      1.00000
     76      -9.7277      1.00000
     77      -9.5987      1.00000
     78      -9.4948      1.00000
     79      -9.1385      1.00000
     80      -8.9966      1.00000
     81      -8.8812      1.00000
     82      -8.7299      1.00000
     83      -8.4897      1.00000
     84      -8.3110      1.00000
     85      -8.0450      1.00000
     86      -8.0076      1.00000
     87      -7.7818      1.00000
     88      -7.7378      1.00000
     89      -7.7302      1.00000
     90      -7.6616      1.00000
     91      -7.5268      1.00000
     92      -7.3429      1.00000
     93      -7.1511      1.00000
     94      -6.9688      1.00000
     95      -6.7856      1.00000
     96      -6.5222      1.00000
     97      -6.4078      1.00000
     98      -6.3485      1.00000
     99      -6.2339      1.00000
    100      -6.2061      1.00000
    101      -6.0019      1.00000
    102      -5.9324      1.00000
    103      -5.8503      1.00000
    104      -5.6312      1.00000
    105      -5.5125      1.00000
    106      -5.4307      1.00000
    107      -5.4164      1.00000
    108      -5.2949      1.00000
    109      -5.2145      1.00000
    110      -5.1647      1.00000
    111      -5.0765      1.00000
    112      -5.0559      1.00000
    113      -4.9418      1.00000
    114      -4.9169      1.00000
    115      -4.8240      1.00000
    116      -4.5604      1.00000
    117      -4.4301      1.00000
    118      -4.2574      1.00000
    119      -4.0964      1.00000
    120      -4.0253      1.00000
    121      -3.9885      1.00000
    122      -3.9345      1.00000
    123      -3.8404      1.00000
    124      -3.8100      1.00000
    125      -3.6941      1.00000
    126      -3.6474      1.00000
    127      -3.5522      1.00000
    128      -3.4881      1.00000
    129      -3.4654      1.00000
    130      -3.3685      1.00000
    131      -3.2395      1.00000
    132      -3.1571      1.00000
    133      -3.1025      1.00000
    134      -3.0164      1.00000
    135      -2.8994      1.00000
    136      -2.8286      1.00000
    137      -2.6925      1.00000
    138      -2.5172      1.00000
    139      -2.1577      1.00000
    140      -0.9270      1.00000
    141      -0.5366      0.00000
    142      -0.2059      0.00000
    143      -0.0064      0.00000
    144       0.2353      0.00000
    145       0.3527      0.00000
    146       0.4516      0.00000
    147       0.7944      0.00000
    148       0.8353      0.00000
    149       1.0408      0.00000
    150       1.1760      0.00000
    151       1.4934      0.00000
    152       1.5489      0.00000
    153       1.7683      0.00000
    154       1.8338      0.00000
    155       1.8806      0.00000
    156       2.0534      0.00000
    157       2.3471      0.00000
    158       2.5033      0.00000
    159       2.6209      0.00000
[...]
   -.266E+02 0.136E+03 0.242E+03   0.265E+02 -.137E+03 -.245E+03   0.189E+00 0.177E+01 0.268E+01   -.338E-01 -.105E-01 0.122E-01
   0.330E+02 -.195E+02 -.116E+03   -.323E+02 0.217E+02 0.116E+03   -.729E+00 -.226E+01 -.476E+00   0.251E-01 -.118E-01 0.254E-01
   0.576E+01 0.156E+02 -.586E+02   -.564E+01 -.164E+02 0.573E+02   -.985E-01 0.776E+00 0.112E+01   -.222E-02 0.141E-01 0.174E-01
   0.304E+02 0.735E+02 -.267E+03   -.293E+02 -.764E+02 0.266E+03   -.104E+01 0.298E+01 0.123E+01   -.444E-02 0.144E-01 0.149E-02
   -.312E+02 -.845E+02 -.326E+03   0.282E+02 0.842E+02 0.324E+03   0.281E+01 0.211E+00 0.174E+01   -.589E-02 0.598E-02 0.325E-02
   -.559E+02 -.152E+03 0.203E+03   0.544E+02 0.154E+03 -.204E+03   0.146E+01 -.186E+01 0.142E+01   -.514E-02 0.709E-02 0.258E-01
   -.374E+02 0.147E+02 -.250E+03   0.375E+02 -.175E+02 0.251E+03   -.151E+00 0.280E+01 -.121E+01   -.431E-03 -.259E-02 -.146E-02
   0.557E+01 -.504E+02 0.568E+02   -.512E+01 0.513E+02 -.545E+02   -.522E+00 -.851E+00 -.231E+01   0.148E-01 0.247E-02 0.128E-01
   -.102E+03 -.356E+02 -.978E+02   0.102E+03 0.330E+02 0.978E+02   -.499E-01 0.258E+01 0.426E-01   -.118E-01 -.108E-01 0.430E-01
   0.886E+02 -.241E+02 0.324E+03   -.879E+02 0.268E+02 -.324E+03   -.586E+00 -.258E+01 0.708E-01   0.337E-02 0.161E-01 -.719E-03
   -.135E+03 0.170E+03 0.166E+03   0.136E+03 -.171E+03 -.164E+03   -.131E+01 0.122E+01 -.182E+01   -.278E-01 -.534E-02 0.467E-02
   0.655E+02 0.185E+02 0.135E+03   -.670E+02 -.200E+02 -.138E+03   0.154E+01 0.151E+01 0.252E+01   0.548E-02 -.293E-02 0.186E-01
   -.471E+02 -.893E+02 0.306E+03   0.469E+02 0.889E+02 -.309E+03   0.135E+00 0.300E+00 0.355E+01   0.320E-01 0.961E-02 0.200E-02
   -.725E+02 -.729E+02 -.970E+02   0.750E+02 0.742E+02 0.963E+02   -.258E+01 -.130E+01 0.709E+00   -.434E-03 -.161E-02 0.655E-02
   -.201E+02 -.324E+02 -.104E+03   0.203E+02 0.301E+02 0.103E+03   -.154E+00 0.224E+01 0.106E+01   -.574E-02 0.238E-02 0.101E-01
   -.197E+02 0.591E+02 -.119E+03   0.212E+02 -.565E+02 0.119E+03   -.156E+01 -.252E+01 0.563E+00   0.873E-03 -.360E-02 0.391E-02
   -.167E+02 -.188E+02 -.183E+03   0.146E+02 0.202E+02 0.184E+03   0.205E+01 -.139E+01 -.587E+00   0.379E-02 -.900E-02 -.267E-02
   0.372E+02 -.108E+03 0.141E+03   -.401E+02 0.108E+03 -.140E+03   0.293E+01 -.820E+00 -.123E+01   0.230E-02 0.262E-01 0.269E-01
   0.832E+02 0.104E+02 -.283E+03   -.832E+02 -.125E+02 0.285E+03   0.101E+00 0.213E+01 -.229E+01   0.233E-01 0.516E-02 0.863E-02
   -.769E+02 -.276E+02 -.325E+02   0.766E+02 0.283E+02 0.361E+02   0.368E+00 -.700E+00 -.361E+01   -.309E-01 0.191E-01 0.362E-01
   0.139E+03 0.180E+03 0.440E+03   -.149E+03 -.193E+03 -.459E+03   0.103E+02 0.128E+02 0.188E+02   0.987E-03 0.171E-02 0.119E-01
   0.367E+02 0.111E+01 -.359E+02   -.283E+02 0.228E+02 0.330E+02   -.843E+01 -.239E+02 0.292E+01   0.922E-02 0.649E-02 0.649E-02
   -.536E+02 -.463E+02 -.443E+03   0.545E+02 0.431E+02 0.460E+03   -.941E+00 0.321E+01 -.168E+02   -.235E-01 0.121E-01 -.111E-02
   -.744E+02 0.353E+03 0.385E+03   0.770E+02 -.380E+03 -.405E+03   -.255E+01 0.269E+02 0.201E+02   -.555E-01 -.487E-01 -.631E-02
   -.271E+02 0.317E+03 0.426E+03   0.204E+02 -.350E+03 -.435E+03   0.675E+01 0.331E+02 0.834E+01   -.182E-01 -.151E-01 0.880E-02
   0.659E+01 -.171E+03 -.262E+03   -.316E+02 0.197E+03 0.262E+03   0.250E+02 -.261E+02 -.720E+00   -.229E-01 0.915E-02 0.203E-01
   -.986E+02 -.188E+03 -.266E+03   0.121E+03 0.216E+03 0.263E+03   -.220E+02 -.271E+02 0.323E+01   0.166E-01 -.844E-03 0.168E-01
   0.947E+02 -.113E+02 -.105E+03   -.971E+02 0.988E+01 0.105E+03   0.233E+01 0.149E+01 0.111E+00   0.155E-01 -.262E-02 0.139E-01
   0.873E+02 0.396E+02 -.924E+02   -.110E+03 -.214E+02 0.856E+02   0.229E+02 -.182E+02 0.679E+01   -.117E-01 0.214E-01 0.104E-01
   -.436E+02 -.235E+01 -.174E+03   0.638E+02 0.152E+01 0.199E+03   -.202E+02 0.811E+00 -.256E+02   0.109E-01 0.118E-01 0.242E-01
   -.569E+01 -.282E+03 0.493E+03   -.136E+02 0.307E+03 -.510E+03   0.193E+02 -.243E+02 0.162E+02   -.913E-02 0.696E-02 0.148E-01
   -.749E+01 0.125E+03 -.345E+03   0.519E+01 -.158E+03 0.354E+03   0.228E+01 0.330E+02 -.874E+01   0.580E-02 -.875E-02 -.530E-02
   0.565E+02 0.222E+03 -.437E+03   -.625E+02 -.254E+03 0.450E+03   0.600E+01 0.319E+02 -.124E+02   -.711E-02 -.529E-02 0.362E-02
   0.319E+02 -.231E+03 0.949E+02   -.521E+02 0.246E+03 -.935E+02   0.201E+02 -.159E+02 -.142E+01   0.606E-02 0.261E-02 0.295E-01
   0.489E+02 -.152E+02 0.813E+02   -.351E+02 0.809E+01 -.669E+02   -.138E+02 0.708E+01 -.144E+02   0.259E-01 -.742E-02 0.140E-01
   -.203E+02 -.128E+03 0.234E+03   0.188E+02 0.132E+03 -.238E+03   0.146E+01 -.372E+01 0.440E+01   0.295E-01 0.133E-01 0.231E-01
   -.787E+02 0.208E+03 0.411E+03   0.872E+02 -.222E+03 -.430E+03   -.853E+01 0.137E+02 0.190E+02   0.871E-02 -.902E-03 -.303E-01
   -.234E+03 -.795E+02 0.126E+02   0.264E+03 0.899E+02 -.308E+02   -.295E+02 -.103E+02 0.181E+02   0.966E-02 -.102E-01 0.310E-01
   0.983E+02 0.657E+02 0.283E+03   -.115E+03 -.832E+02 -.312E+03   0.165E+02 0.175E+02 0.282E+02   -.105E-01 -.174E-01 0.118E-01
   -.515E+02 -.445E+01 0.515E+03   0.591E+02 -.767E+01 -.549E+03   -.764E+01 0.121E+02 0.341E+02   0.308E-01 -.334E-02 0.221E-02
   0.539E+02 -.393E+02 0.553E+03   -.572E+02 0.322E+02 -.589E+03   0.324E+01 0.708E+01 0.362E+02   0.259E-01 0.103E-01 -.341E-01
   0.185E+03 0.163E+03 0.392E+03   -.200E+03 -.177E+03 -.423E+03   0.156E+02 0.135E+02 0.311E+02   0.275E-02 -.266E-02 0.615E-03
   -.117E+03 -.154E+03 -.109E+03   0.148E+03 0.165E+03 0.977E+02   -.317E+02 -.104E+02 0.112E+02   0.944E-02 -.839E-02 0.334E-02
   -.684E+02 -.375E+02 -.221E+03   0.695E+02 0.351E+02 0.223E+03   -.117E+01 0.244E+01 -.130E+01   -.449E-02 -.287E-03 -.352E-03
   -.277E+02 0.543E+02 -.276E+03   0.305E+02 -.603E+02 0.288E+03   -.277E+01 0.609E+01 -.119E+02   -.315E-02 -.160E-01 -.104E-01
   -.202E+03 -.492E+02 -.248E+03   0.230E+03 0.583E+02 0.268E+03   -.274E+02 -.913E+01 -.201E+02   -.342E-01 0.183E-01 0.210E-01
   0.223E+03 -.167E+03 0.281E+03   -.256E+03 0.173E+03 -.277E+03   0.328E+02 -.614E+01 -.416E+01   -.226E-01 0.422E-01 0.301E-01
   0.805E+02 0.487E+02 -.579E+03   -.783E+02 -.651E+02 0.610E+03   -.218E+01 0.163E+02 -.315E+02   0.155E-01 0.943E-02 0.301E-02
   0.388E+02 0.126E+03 -.498E+03   -.444E+02 -.143E+03 0.530E+03   0.565E+01 0.175E+02 -.316E+02   -.197E-02 -.619E-02 0.415E-02
   0.123E+03 -.105E+03 0.654E+02   -.151E+03 0.125E+03 -.588E+02   0.277E+02 -.196E+02 -.670E+01   -.918E-02 0.241E-01 0.303E-01
   -.205E+03 0.433E+01 -.669E+01   0.219E+03 0.229E+01 0.337E+01   -.146E+02 -.666E+01 0.324E+01   -.242E-01 0.118E-01 0.855E-01
   -.462E+02 0.128E+01 0.166E+03   0.455E+02 -.389E+01 -.166E+03   0.736E+00 0.262E+01 -.306E+00   -.370E-01 0.162E-01 0.387E-01
   0.215E+03 -.926E+02 -.673E+03   -.220E+03 0.925E+02 0.699E+03   0.483E+01 -.103E-01 -.265E+02   0.508E-01 0.152E-01 0.722E-02
   -.678E+02 0.311E+01 -.794E+01   0.768E+02 -.431E+01 -.182E+02   -.905E+01 0.119E+01 0.261E+02   0.650E-02 -.369E-02 -.177E-01
   0.682E+02 -.173E+02 -.299E+03   -.880E+02 0.197E+02 0.356E+03   0.198E+02 -.236E+01 -.568E+02   0.453E-02 -.212E-02 -.161E-01
 -----------------------------------------------------------------------------------------------
   -.434E+02 -.571E+02 -.232E+02   0.256E-12 0.238E-12 -.682E-12   0.435E+02 0.570E+02 0.225E+02   -.316E-01 0.137E+00 0.634E+00


 POSITION                                       TOTAL-FORCE (eV/Angst)
 -----------------------------------------------------------------------------------
     -0.32024      2.05184      4.75956         0.041126      0.007837      0.028438
      1.09750      3.13791      3.36060        -0.016472      0.035529      0.010982
     -1.01748      4.08164      3.64634         0.023949     -0.043783      0.024042
      4.32241      0.80868      7.95771        -0.000108      0.000483     -0.015689
      3.13666      2.49295      3.93472        -0.025355     -0.004660     -0.020543
      0.66034      1.75349      6.82459         0.011291     -0.003134      0.010134
     -3.31254      6.99436      6.32553        -0.013336      0.011537     -0.063777
     -2.45915      8.21739      8.16144         0.000723      0.009551      0.004548
      1.90271      0.91253      8.45876        -0.041254     -0.010423     -0.021197
      2.12575      4.58490      4.62254        -0.037311     -0.001871     -0.022254
     -0.28603      7.85938      8.24343        -0.011401     -0.016547     -0.030672
     -2.11754      5.52116      5.08681        -0.021820      0.045400     -0.004592
      5.44985      2.17020      6.55446        -0.010740      0.029245     -0.033668
      6.20786      4.49063      2.94084        -0.027117      0.021100      0.028826
      5.32625      2.59660      4.06034         0.027611      0.043130     -0.001511
     10.33015     -0.07603      5.77095         0.030723     -0.022493      0.010847
     -2.81525      5.09052      2.79083        -0.006570     -0.000169      0.023122
      6.56006      0.33009      7.25562        -0.006389      0.001748     -0.016075
      2.98277      5.66062      6.49765        -0.001391      0.017867      0.067071
      4.10723      7.65101      7.11985        -0.029935     -0.011479     -0.000499
      1.87406      7.59879      7.60960        -0.009956     -0.013198     -0.006583
      6.75277      5.96852      4.46780        -0.041523      0.038365      0.000310
      5.54690      9.04456      8.09645         0.027511      0.015163      0.030989
      4.18358      3.95230      5.62281         0.013135      0.012394      0.060741
     -0.26613      2.86757      3.56748         0.036042      0.001519     -0.032066
      0.33108      2.60933      5.83995        -0.000150     -0.053249      0.021035
      3.16924      0.31263      8.57195        -0.026075     -0.007283      0.018399
      4.26332      1.87276      3.67392         0.025691      0.048153     -0.033825
      1.93030      2.14465      3.43095         0.014782      0.006423      0.011634
      4.38894      1.97998      7.39638        -0.023240     -0.036249      0.020468
      1.68623      1.95395      7.63297         0.036643     -0.053278      0.039681
     -0.05380      0.56921      6.89548        -0.009424      0.016338     -0.001476
     -3.33476      8.00388      7.24574         0.002157      0.030575     -0.017922
     -2.21438      6.17282      6.22519         0.035341      0.004793      0.004400
      1.32322      4.49938      3.59910        -0.013519     -0.008997      0.010556
      0.77144      7.03941      8.08861        -0.004122      0.008653     -0.054591
     -1.46531      7.41102      8.57177        -0.012899     -0.036724     -0.008211
      1.87957      5.41862      5.68084        -0.015981      0.003191      0.041659
     -1.12311      4.63582      4.90251         0.025398      0.004413      0.015204
     -3.02680      5.65306      4.08545        -0.025848     -0.041061     -0.063954
      5.96779      3.22927      3.12608         0.045600     -0.017164      0.035372
      6.58840      1.48029      6.56797         0.010592     -0.019922     -0.000253
      4.20687      8.11213      5.85924         0.006890      0.011795     -0.011404
     -1.63373      4.45089      2.56400         0.001979     -0.052391     -0.051218
      7.22885      4.75405      2.01465        -0.013340      0.014727     -0.050122
     10.25786      0.69689      4.66277         0.037693     -0.027115     -0.000251
      2.07128      8.89456      7.28807         0.008129      0.010157      0.034071
     -0.17339      9.23582      7.84493        -0.005393      0.021388     -0.024290
      2.98030      6.79661      7.31095        -0.024473     -0.014602     -0.026757
      4.12361      4.99185      6.44391        -0.052960     -0.004895      0.011592
      5.74162      5.46551      3.81417         0.044341      0.035116     -0.022613
      0.94039      0.14748      8.99198         0.043658     -0.022097     -0.005891
      4.71408      8.01413      8.23284         0.033442      0.010689      0.039972
      6.70470      6.80200      5.52212         0.008209      0.024523     -0.052648
      5.25399      3.08003      5.54329        -0.022397     -0.008904      0.008183
      3.15125      3.64505      4.75482         0.004659      0.018222      0.058609
      0.07913      4.70200      6.64031        -0.042319     -0.043631     -0.005169
      0.81739      4.16571     10.08088         0.007057     -0.014226     -0.055000
      0.44510      4.21006     11.15949        -0.011554      0.029519      0.083833
 -----------------------------------------------------------------------------------
    total drift:                                0.017739     -0.001749      0.004118


--------------------------------------------------------------------------------------------------------



  FREE ENERGIE OF THE ION-ELECTRON SYSTEM (eV)
  ---------------------------------------------------
  free  energy   TOTEN  =      -491.31747552 eV

  energy  without entropy=     -491.31747552  energy(sigma->0) =     -491.31747552



--------------------------------------------------------------------------------------------------------


    POTLOK:  cpu time    0.2650: real time    0.2650


--------------------------------------------------------------------------------------------------------


     LOOP+:  cpu time  127.6341: real time  127.7026
    4ORBIT:  cpu time    0.0000: real time    0.0000



 total charge     

# of ion       s       p       d       tot
------------------------------------------
    1        0.854   1.708   0.000   2.562
    2        0.863   1.724   0.000   2.587
    3        0.856   1.715   0.000   2.571
    4        0.853   1.734   0.000   2.587
    5        0.851   1.752   0.000   2.603
    6        0.863   1.753   0.000   2.616
    7        0.854   1.728   0.000   2.583
    8        0.859   1.714   0.000   2.573
    9        0.854   1.718   0.000   2.572
   10        0.865   1.735   0.000   2.600
   11        0.858   1.728   0.000   2.587
   12        0.872   1.781   0.000   2.653
   13        0.857   1.733   0.000   2.590
   14        0.854   1.729   0.000   2.583
   15        0.856   1.689   0.000   2.545
   16        0.862   1.738   0.000   2.600
   17        0.863   1.719   0.000   2.582
   18        0.865   1.740   0.000   2.605
   19        0.841   1.731   0.000   2.572
   20        0.860   1.729   0.000   2.589
   21        0.858   1.736   0.000   2.594
   22        0.862   1.741   0.000   2.602
   23        0.864   1.732   0.000   2.596
   24        0.841   1.762   0.000   2.603
   25        1.231   2.710   0.000   3.941
   26        1.248   2.670   0.000   3.918
   27        1.223   2.689   0.000   3.912
   28        1.268   2.648   0.000   3.916
   29        1.269   2.665   0.000   3.933
   30        1.271   2.651   0.000   3.922
   31        1.268   2.648   0.000   3.916
   32        1.227   2.757   0.000   3.984
   33        1.263   2.698   0.000   3.962
   34        1.261   2.659   0.000   3.920
   35        1.271   2.640   0.000   3.911
   36        1.266   2.653   0.000   3.920
   37        1.268   2.671   0.000   3.939
   38        1.242   2.637   0.000   3.879
   39        1.242   2.695   0.000   3.937
   40        1.225   2.766   0.000   3.991
   41        1.256   2.721   0.000   3.977
   42        1.272   2.641   0.000   3.914
   43        1.282   2.637   0.000   3.919
   44        1.279   2.636   0.000   3.915
   45        1.275   2.606   0.000   3.881
   46        1.279   2.633   0.000   3.912
   47        1.271   2.676   0.000   3.948
   48        1.219   2.736   0.000   3.955
   49        1.220   2.756   0.000   3.975
   50        1.269   2.650   0.000   3.919
   51        1.265   2.632   0.000   3.897
   52        1.271   2.651   0.000   3.922
   53        1.279   2.648   0.000   3.926
   54        1.269   2.650   0.000   3.919
   55        1.220   2.704   0.000   3.925
   56        1.227   2.762   0.000   3.989
   57        1.362   0.653  10.049  12.063
   58        1.038   1.445   0.000   2.484
   59        1.642   3.536   0.000   5.177
--------------------------------------------------
tot         64.825 132.797  10.049 207.671



 magnetization (x)

# of ion       s       p       d       tot
------------------------------------------
    1       -0.000  -0.000   0.000  -0.000
    2       -0.000   0.000   0.000  -0.000
    3       -0.000  -0.000   0.000  -0.000
    4       -0.000  -0.000   0.000  -0.000
    5        0.000   0.000   0.000   0.000
    6       -0.000  -0.000   0.000  -0.000
    7       -0.000  -0.000   0.000  -0.000
    8       -0.000  -0.000   0.000  -0.000
    9       -0.000  -0.000   0.000  -0.000
   10       -0.000  -0.000   0.000  -0.000
   11       -0.000  -0.000   0.000  -0.000
   12       -0.000  -0.000   0.000  -0.000
   13       -0.000  -0.000   0.000  -0.000
   14        0.000   0.000   0.000   0.000
   15        0.000   0.000   0.000   0.000
   16       -0.000  -0.000   0.000  -0.000
   17       -0.000  -0.000   0.000  -0.000
   18       -0.000  -0.000   0.000  -0.000
   19        0.000   0.000   0.000   0.000
   20       -0.000  -0.000   0.000  -0.000
   21       -0.000  -0.000   0.000  -0.000
   22       -0.000  -0.000   0.000  -0.000
   23       -0.000  -0.000   0.000  -0.000
   24        0.000   0.000   0.000   0.000
   25       -0.000   0.000   0.000   0.000
   26        0.000   0.000   0.000   0.000
   27        0.000  -0.000   0.000  -0.000
   28        0.000  -0.000   0.000  -0.000
   29        0.000   0.000   0.000   0.000
   30        0.000   0.000   0.000   0.000
   31       -0.000   0.000   0.000   0.000
   32       -0.000  -0.000   0.000  -0.000
   33        0.000   0.000   0.000   0.000
   34        0.000   0.000   0.000   0.000
   35        0.000   0.000   0.000   0.000
   36        0.000   0.000   0.000   0.000
   37       -0.000   0.000   0.000   0.000
   38        0.000   0.000   0.000   0.000
   39        0.000   0.000   0.000   0.000
   40        0.000  -0.000   0.000  -0.000
   41        0.000   0.000   0.000   0.000
   42        0.000   0.000   0.000   0.000
   43        0.000   0.000   0.000   0.000
   44       -0.000   0.000   0.000   0.000
   45       -0.000   0.000   0.000   0.000
   46       -0.000   0.000   0.000   0.000
   47        0.000   0.000   0.000   0.000
   48       -0.000  -0.000   0.000  -0.000
   49        0.000   0.000   0.000   0.000
   50       -0.000  -0.000   0.000  -0.000
   51        0.000   0.000   0.000   0.000
   52        0.000   0.000   0.000   0.000
   53        0.000   0.000   0.000   0.000
   54        0.000   0.000   0.000   0.000
   55       -0.000  -0.000   0.000  -0.000
   56       -0.000  -0.000   0.000  -0.000
   57        0.000  -0.000   0.000  -0.000
   58       -0.000  -0.000   0.000  -0.000
   59       -0.000   0.000   0.000   0.000
--------------------------------------------------
tot         -0.000   0.000   0.000   0.000

 BZINTS: Fermi energy: -0.836084;280.000000 electrons
         Band energy:***********;  BLOECHL correction:  0.000000

 total amount of memory used by VASP MPI-rank0    63181. kBytes
=======================================================================

   base      :      30000. kBytes
   nonl-proj :       9833. kBytes
   fftplans  :       1973. kBytes
   grid      :       5974. kBytes
   one-center:        155. kBytes
   wavefun   :      15246. kBytes

  
  
 General timing and accounting informations for this job:
 ========================================================
  
                  Total CPU time used (sec):      138.977
                            User time (sec):      138.201
                          System time (sec):        0.776
                         Elapsed time (sec):      139.398
  
                   Maximum memory used (kb):      187356.
                   Average memory used (kb):           0.
  
                          Minor page faults:        38908
                          Major page faults:            0
                 Voluntary context switches:          532
