       N       E                     dE             d eps       ncg     rms          rms(c)
DAV:   1     0.296505439862E+04    0.29651E+04   -0.11924E+05  4064   0.127E+03
DAV:   2    -0.296913810551E+02   -0.29947E+04   -0.28979E+04  4560   0.350E+02
DAV:   3    -0.477578086907E+03   -0.44789E+03   -0.44423E+03  4072   0.155E+02
DAV:   4    -0.492721482707E+03   -0.15143E+02   -0.14820E+02  4256   0.399E+01
DAV:   5    -0.493259695253E+03   -0.53821E+00   -0.53275E+00  4448   0.579E+00    0.588E+01
DAV:   6    -0.439589874091E+03    0.53670E+02   -0.61012E+01  4688   0.347E+01    0.396E+01
DAV:   7    -0.417720221093E+03    0.21870E+02   -0.10153E+02  4128   0.296E+01    0.214E+01
DAV:   8    -0.416046618776E+03    0.16736E+01   -0.16935E+01  4256   0.146E+01    0.152E+01
DAV:   9    -0.416242521948E+03   -0.19590E+00   -0.12506E+01  5472   0.200E+01    0.682E+00
DAV:  10    -0.415597004043E+03    0.64552E+00   -0.78217E+00  5440   0.128E+01    0.337E+00
DAV:  11    -0.415492046460E+03    0.10496E+00   -0.10793E+00  4624   0.381E+00    0.162E+00
DAV:  12    -0.415462631048E+03    0.29415E-01   -0.28510E-01  4432   0.191E+00    0.972E-01
DAV:  13    -0.415451429211E+03    0.11202E-01   -0.15758E-01  4200   0.120E+00    0.435E-01
DAV:  14    -0.415450720550E+03    0.70866E-03   -0.36134E-02  4312   0.688E-01    0.310E-01
DAV:  15    -0.415450436399E+03    0.28415E-03   -0.53258E-03  4912   0.333E-01    0.190E-01
DAV:  16    -0.415450430539E+03    0.58595E-05   -0.10041E-03  4128   0.100E-01    0.936E-02
DAV:  17    -0.415450450852E+03   -0.20313E-04   -0.43883E-04  2560   0.638E-02
   1 F= -.41995439E+03 E0= -.41995439E+03  d E =0.000000E+00  mag=    -0.0000
