 vasp.5.4.4.18Apr17-6-g9f103f2a35 (build Nov  8 2022 18:58:45) complex           
 executed on             LinuxGNU date 2023.04.13  15:54:37
 running on   48 total cores
 distrk:  each k-point on   48 cores,    1 groups
 distr:  one band on NCORES_PER_BAND=  12 cores,    4 groups


--------------------------------------------------------------------------------------------------------


 INCAR:
 POTCAR:    PAW_PBE C 08Apr2002                   
 POTCAR:    PAW_PBE N 08Apr2002                   
 POTCAR:    PAW_PBE Ge_d 03Jul2007                
 POTCAR:    PAW_PBE C 08Apr2002                   
 POTCAR:    PAW_PBE O 08Apr2002                   
 POTCAR:    PAW_PBE C 08Apr2002                   
   SHA256 =  253f7b50bb8d59471dbedb8285d89021f4a42ed1a2c5d38a03a736e69125dd95 C/
   COPYR  = (c) Copyright 08Apr2002 Georg Kresse                                
   COPYR  = This file is part of the software VASP. Any use, copying, and all ot
   COPYR  = If you do not have a valid VASP license, you may not use, copy or di
   VRHFIN =C: s2p2                                                              
   LEXCH  = PE                                                                  
   EATOM  =   147.1560 eV,   10.8157 Ry                                         
                                                                                
   TITEL  = PAW_PBE C 08Apr2002                                                 
   LULTRA =        F    use ultrasoft PP ?                                      
   IUNSCR =        1    unscreen: 0-lin 1-nonlin 2-no                           
   RPACOR =    1.200    partial core radius                                     
   POMASS =   12.011; ZVAL   =    4.000    mass and valenz                      
   RCORE  =    1.500    outmost cutoff radius                                   
   RWIGS  =    1.630; RWIGS  =    0.863    wigner-seitz radius (au A)           
   ENMAX  =  400.000; ENMIN  =  300.000 eV                                      
   ICORE  =        2    local potential                                         
   LCOR   =        T    correct aug charges                                     
   LPAW   =        T    paw PP                                                  
   EAUG   =  644.873                                                            
   DEXC   =    0.000                                                            
   RMAX   =    1.529    core radius for proj-oper                               
   RAUG   =    1.300    factor for augmentation sphere                          
   RDEP   =    1.501    radius for radial grids                                 
   RDEPT  =    1.300    core radius for aug-charge                              
                                                                                
   Atomic configuration                                                         
    4 entries                                                                   
     n  l   j            E        occ.                                          
     1  0  0.50      -273.3789   2.0000                                         
     2  0  0.50       -13.7508   2.0000                                         
     2  1  0.50        -5.2854   2.0000                                         
     3  2  1.50        -5.4423   0.0000                                         
   Description                                                                  
     l       E           TYP  RCUT    TYP  RCUT                                 
     0    -13.7508458     23  1.200                                             
     0     -8.2022199     23  1.200                                             
     1     -5.2854383     23  1.500                                             
     1     34.0145650     23  1.500                                             
     2     -5.4423304      7  1.500                                             
  local pseudopotential read in
  partial core-charges read in
  partial kinetic energy density read in
  atomic valenz-charges read in
  non local Contribution for L=           0  read in
    real space projection operators read in
  non local Contribution for L=           0  read in
    real space projection operators read in
  non local Contribution for L=           1  read in
    real space projection operators read in
  non local Contribution for L=           1  read in
    real space projection operators read in
    PAW grid and wavefunctions read in

   number of l-projection  operators is LMAX  =           4
   number of lm-projection operators is LMMAX =           8

 POTCAR:    PAW_PBE N 08Apr2002                   
   SHA256 =  e053789ff3a61a86a1b75d8a110fcc91f86041011e7b0817c7c99e4e8a6349d7 N/
   COPYR  = (c) Copyright 08Apr2002 Georg Kresse                                
   COPYR  = This file is part of the software VASP. Any use, copying, and all ot
   COPYR  = If you do not have a valid VASP license, you may not use, copy or di
   VRHFIN =N: s2p3                                                              
   LEXCH  = PE                                                                  
   EATOM  =   264.5486 eV,   19.4438 Ry                                         
                                                                                
   TITEL  = PAW_PBE N 08Apr2002                                                 
   LULTRA =        F    use ultrasoft PP ?                                      
   IUNSCR =        1    unscreen: 0-lin 1-nonlin 2-no                           
   RPACOR =    1.200    partial core radius                                     
   POMASS =   14.001; ZVAL   =    5.000    mass and valenz                      
   RCORE  =    1.500    outmost cutoff radius                                   
   RWIGS  =    1.400; RWIGS  =    0.741    wigner-seitz radius (au A)           
   ENMAX  =  400.000; ENMIN  =  300.000 eV                                      
   ICORE  =        2    local potential                                         
   LCOR   =        T    correct aug charges                                     
   LPAW   =        T    paw PP                                                  
   EAUG   =  627.112                                                            
   DEXC   =    0.000                                                            
   RMAX   =    1.529    core radius for proj-oper                               
   RAUG   =    1.300    factor for augmentation sphere                          
   RDEP   =    1.514    radius for radial grids                                 
   RDEPT  =    1.338    core radius for aug-charge                              
                                                                                
   Atomic configuration                                                         
    4 entries                                                                   
     n  l   j            E        occ.                                          
     1  0  0.50      -384.7179   2.0000                                         
     2  0  0.50       -18.5828   2.0000                                         
     2  1  0.50        -7.0898   3.0000                                         
     3  2  1.50        -6.8029   0.0000                                         
   Description                                                                  
     l       E           TYP  RCUT    TYP  RCUT                                 
     0    -18.5828119     23  1.200                                             
     0    -13.5018863     23  1.200                                             
     1     -7.0897853     23  1.500                                             
     1      9.5240782     23  1.500                                             
     2     -6.8029130      7  1.500                                             
  local pseudopotential read in
  partial core-charges read in
  partial kinetic energy density read in
  atomic valenz-charges read in
  non local Contribution for L=           0  read in
    real space projection operators read in
  non local Contribution for L=           0  read in
    real space projection operators read in
  non local Contribution for L=           1  read in
    real space projection operators read in
  non local Contribution for L=           1  read in
    real space projection operators read in
    PAW grid and wavefunctions read in

   number of l-projection  operators is LMAX  =           4
   number of lm-projection operators is LMMAX =           8

 POTCAR:    PAW_PBE Ge_d 03Jul2007                
   SHA256 =  944b26c40d2d7c4f4eb1ff3a2e8dbfdd7129146276cd341854bfd5c0e57780ed Ge
   COPYR  = (c) Copyright 03Jul2007 Georg Kresse                                
   COPYR  = This file is part of the software VASP. Any use, copying, and all ot
   COPYR  = If you do not have a valid VASP license, you may not use, copy or di
   VRHFIN =Ge: 3d4s4p                                                           
   LEXCH  = PE                                                                  
   EATOM  =  2596.2402 eV,  190.8183 Ry                                         
                                                                                
   TITEL  = PAW_PBE Ge_d 03Jul2007                                              
   LULTRA =        F    use ultrasoft PP ?                                      
   IUNSCR =        1    unscreen: 0-lin 1-nonlin 2-no                           
   RPACOR =    2.000    partial core radius                                     
   POMASS =   72.610; ZVAL   =   14.000    mass and valenz                      
   RCORE  =    2.300    outmost cutoff radius                                   
   RWIGS  =    2.300; RWIGS  =    1.217    wigner-seitz radius (au A)           
   ENMAX  =  310.294; ENMIN  =  232.720 eV                                      
   ICORE  =        3    local potential                                         
   LCOR   =        T    correct aug charges                                     
   LPAW   =        T    paw PP                                                  
   EAUG   =  531.356                                                            
   DEXC   =    0.000                                                            
   RMAX   =    2.342    core radius for proj-oper                               
   RAUG   =    1.300    factor for augmentation sphere                          
   RDEP   =    2.318    radius for radial grids                                 
   RDEPT  =    1.783    core radius for aug-charge                              
                                                                                
   Atomic configuration                                                         
    9 entries                                                                   
     n  l   j            E        occ.                                          
     1  0  0.50    -10959.8463   2.0000                                         
     2  0  0.50     -1371.6056   2.0000                                         
     2  1  1.50     -1198.4791   6.0000                                         
     3  0  0.50      -168.4733   2.0000                                         
     3  1  1.50      -115.6019   6.0000                                         
     3  2  2.50       -29.3106  10.0000                                         
     4  0  0.50       -11.7309   2.0000                                         
     4  1  0.50        -3.8952   2.0000                                         
     4  3  2.50        -4.0817   0.0000                                         
   Description                                                                  
     l       E           TYP  RCUT    TYP  RCUT                                 
     2    -29.3105938     23  2.200                                             
     2    -13.6058260     23  2.200                                             
     0    -11.7309493     23  2.300                                             
     0     -7.4578696     23  2.300                                             
     1     -3.8952261     23  2.300                                             
     1      6.1178114     23  2.300                                             
     3     -1.3605826     23  2.300                                             
  local pseudopotential read in
  partial core-charges read in
  partial kinetic energy density read in
  atomic valenz-charges read in
  non local Contribution for L=           2  read in
    real space projection operators read in
  non local Contribution for L=           2  read in
    real space projection operators read in
  non local Contribution for L=           0  read in
    real space projection operators read in
  non local Contribution for L=           0  read in
    real space projection operators read in
  non local Contribution for L=           1  read in
    real space projection operators read in
  non local Contribution for L=           1  read in
    real space projection operators read in
    PAW grid and wavefunctions read in

   number of l-projection  operators is LMAX  =           6
   number of lm-projection operators is LMMAX =          18

 POTCAR:    PAW_PBE C 08Apr2002                   
   SHA256 =  253f7b50bb8d59471dbedb8285d89021f4a42ed1a2c5d38a03a736e69125dd95 C/
   COPYR  = (c) Copyright 08Apr2002 Georg Kresse                                
   COPYR  = This file is part of the software VASP. Any use, copying, and all ot
   COPYR  = If you do not have a valid VASP license, you may not use, copy or di
   VRHFIN =C: s2p2                                                              
   LEXCH  = PE                                                                  
   EATOM  =   147.1560 eV,   10.8157 Ry                                         
                                                                                
   TITEL  = PAW_PBE C 08Apr2002                                                 
   LULTRA =        F    use ultrasoft PP ?                                      
   IUNSCR =        1    unscreen: 0-lin 1-nonlin 2-no                           
   RPACOR =    1.200    partial core radius                                     
   POMASS =   12.011; ZVAL   =    4.000    mass and valenz                      
   RCORE  =    1.500    outmost cutoff radius                                   
   RWIGS  =    1.630; RWIGS  =    0.863    wigner-seitz radius (au A)           
   ENMAX  =  400.000; ENMIN  =  300.000 eV                                      
   ICORE  =        2    local potential                                         
   LCOR   =        T    correct aug charges                                     
   LPAW   =        T    paw PP                                                  
   EAUG   =  644.873                                                            
   DEXC   =    0.000                                                            
   RMAX   =    1.529    core radius for proj-oper                               
   RAUG   =    1.300    factor for augmentation sphere                          
   RDEP   =    1.501    radius for radial grids                                 
   RDEPT  =    1.300    core radius for aug-charge                              
                                                                                
   Atomic configuration                                                         
    4 entries                                                                   
     n  l   j            E        occ.                                          
     1  0  0.50      -273.3789   2.0000                                         
     2  0  0.50       -13.7508   2.0000                                         
     2  1  0.50        -5.2854   2.0000                                         
     3  2  1.50        -5.4423   0.0000                                         
   Description                                                                  
     l       E           TYP  RCUT    TYP  RCUT                                 
     0    -13.7508458     23  1.200                                             
     0     -8.2022199     23  1.200                                             
     1     -5.2854383     23  1.500                                             
     1     34.0145650     23  1.500                                             
     2     -5.4423304      7  1.500                                             
  local pseudopotential read in
  partial core-charges read in
  partial kinetic energy density read in
  atomic valenz-charges read in
  non local Contribution for L=           0  read in
    real space projection operators read in
  non local Contribution for L=           0  read in
    real space projection operators read in
  non local Contribution for L=           1  read in
    real space projection operators read in
  non local Contribution for L=           1  read in
    real space projection operators read in
    PAW grid and wavefunctions read in

   number of l-projection  operators is LMAX  =           4
   number of lm-projection operators is LMMAX =           8

 POTCAR:    PAW_PBE O 08Apr2002                   
   SHA256 =  818f92134a0a090dccd8ba1447fa70422a3b330e708bb4f08108d8ae51209ddf O/
   COPYR  = (c) Copyright 08Apr2002 Georg Kresse                                
   COPYR  = This file is part of the software VASP. Any use, copying, and all ot
   COPYR  = If you do not have a valid VASP license, you may not use, copy or di
   VRHFIN =O: s2p4                                                              
   LEXCH  = PE                                                                  
   EATOM  =   432.3788 eV,   31.7789 Ry                                         
                                                                                
   TITEL  = PAW_PBE O 08Apr2002                                                 
   LULTRA =        F    use ultrasoft PP ?                                      
   IUNSCR =        1    unscreen: 0-lin 1-nonlin 2-no                           
   RPACOR =    1.200    partial core radius                                     
   POMASS =   16.000; ZVAL   =    6.000    mass and valenz                      
   RCORE  =    1.520    outmost cutoff radius                                   
   RWIGS  =    1.550; RWIGS  =    0.820    wigner-seitz radius (au A)           
   ENMAX  =  400.000; ENMIN  =  300.000 eV                                      
   ICORE  =        2    local potential                                         
   LCOR   =        T    correct aug charges                                     
   LPAW   =        T    paw PP                                                  
   EAUG   =  605.392                                                            
   DEXC   =    0.000                                                            
   RMAX   =    1.553    core radius for proj-oper                               
   RAUG   =    1.300    factor for augmentation sphere                          
   RDEP   =    1.550    radius for radial grids                                 
   RDEPT  =    1.329    core radius for aug-charge                              
                                                                                
   Atomic configuration                                                         
    4 entries                                                                   
     n  l   j            E        occ.                                          
     1  0  0.50      -514.6923   2.0000                                         
     2  0  0.50       -23.9615   2.0000                                         
     2  1  0.50        -9.0305   4.0000                                         
     3  2  1.50        -9.5241   0.0000                                         
   Description                                                                  
     l       E           TYP  RCUT    TYP  RCUT                                 
     0    -23.9615318     23  1.200                                             
     0     -9.5240782     23  1.200                                             
     1     -9.0304911     23  1.520                                             
     1      8.1634956     23  1.520                                             
     2     -9.5240782      7  1.500                                             
  local pseudopotential read in
  partial core-charges read in
  partial kinetic energy density read in
  kinetic energy density of atom read in
  atomic valenz-charges read in
  non local Contribution for L=           0  read in
    real space projection operators read in
  non local Contribution for L=           0  read in
    real space projection operators read in
  non local Contribution for L=           1  read in
    real space projection operators read in
  non local Contribution for L=           1  read in
    real space projection operators read in
    PAW grid and wavefunctions read in

   number of l-projection  operators is LMAX  =           4
   number of lm-projection operators is LMMAX =           8


 ----------------------------------------------------------------------------- 
|                                                                             |
|  ADVICE TO THIS USER RUNNING 'VASP/VAMP'   (HEAR YOUR MASTER'S VOICE ...):  |
|                                                                             |
|      You have a (more or less) 'large supercell' and for larger cells       |
|      it might be more efficient to use real space projection opertators     |
|      So try LREAL= Auto  in the INCAR   file.                               |
|      Mind:          For very  accurate calculation you might also keep the  |
|      reciprocal projection scheme          (i.e. LREAL=.FALSE.)             |
|                                                                             |
 ----------------------------------------------------------------------------- 

  PAW_PBE C 08Apr2002                   :
 energy of atom  1       EATOM= -147.1560
 kinetic energy error for atom=    0.0132 (will be added to EATOM!!)
  PAW_PBE N 08Apr2002                   :
 energy of atom  2       EATOM= -264.5486
 kinetic energy error for atom=    0.0298 (will be added to EATOM!!)
  PAW_PBE Ge_d 03Jul2007                :
 energy of atom  3       EATOM=-2596.2402
 kinetic energy error for atom=    0.0090 (will be added to EATOM!!)
  PAW_PBE C 08Apr2002                   :
 energy of atom  4       EATOM= -147.1560
 kinetic energy error for atom=    0.0132 (will be added to EATOM!!)
  PAW_PBE O 08Apr2002                   :
 energy of atom  5       EATOM= -432.3788
 kinetic energy error for atom=    0.0458 (will be added to EATOM!!)


 POSCAR: POSCAR-c3n4                             
  positions in direct lattice
  velocities in cartesian coordinates
 exchange correlation table for  LEXCH =        8
   RHO(1)=    0.500       N(1)  =     2000
   RHO(2)=  100.500       N(2)  =     4000



--------------------------------------------------------------------------------------------------------


 ion  position               nearest neighbor table
   1  0.106  0.214  0.456-  46 1.34  26 1.34  25 1.43
   2  0.287  0.395  0.457-  29 1.33  35 1.38  25 1.45
   3  0.104  0.392  0.454-  44 1.32  39 1.38  25 1.45
   4  0.447  0.062  0.519-  30 1.32  27 1.34  48 1.42
   5  0.449  0.393  0.440-  28 1.33  29 1.35  56 1.43
   6  0.111  0.054  0.471-  26 1.33  31 1.34  32 1.40
   7  0.101  0.714  0.496-  54 1.33  34 1.36  33 1.42
   8  0.285  0.892  0.512-  27 1.33  37 1.36  33 1.44
   9  0.107  0.894  0.510-  31 1.33  52 1.35  33 1.46
  10  0.448  0.549  0.514-  38 1.33  56 1.35  35 1.36
  11  0.445  0.887  0.500-  37 1.34  36 1.35  48 1.39
  12  0.094  0.548  0.497-  34 1.32  40 1.35  39 1.36
  13  0.614  0.222  0.494-  30 1.35  42 1.35  41 1.42
  14  0.782  0.390  0.433-  45 1.36  51 1.36  41 1.43
  15  0.609  0.393  0.460-  55 1.34  28 1.35  41 1.47
  16  0.941  0.054  0.483-  46 1.32  43 1.34  32 1.40
  17  0.940  0.385  0.428-  45 1.32  44 1.35  40 1.43
  18  0.620  0.063  0.525-  42 1.33  47 1.34  48 1.41
  19  0.612  0.713  0.534-  50 1.33  38 1.36  49 1.42
  20  0.788  0.895  0.530-  43 1.33  53 1.35  49 1.46
  21  0.608  0.893  0.527-  47 1.34  36 1.36  49 1.46
  22  0.941  0.561  0.446-  51 1.31  54 1.35  40 1.43
  23  0.949  0.895  0.541-  53 1.35  52 1.35  32 1.40
  24  0.619  0.555  0.501-  55 1.32  50 1.33  56 1.42
  25  0.167  0.335  0.452-   1 1.43   2 1.45   3 1.45
  26  0.163  0.162  0.450-   6 1.33   1 1.34
  27  0.337  0.002  0.533-   8 1.33   4 1.34
  28  0.507  0.345  0.423-   5 1.33  15 1.35
  29  0.341  0.352  0.420-   2 1.33   5 1.35
  30  0.505  0.174  0.511-   4 1.32  13 1.35
  31  0.159  0.992  0.467-   9 1.33   6 1.34
  32  0.000  1.000  0.498-  16 1.40   6 1.40  23 1.40
  33  0.166  0.833  0.510-   7 1.42   8 1.44   9 1.46
  34  0.144  0.653  0.527-  12 1.32   7 1.36
  35  0.337  0.495  0.505-  10 1.36   2 1.38  57 2.10
  36  0.501  0.833  0.499-  11 1.35  21 1.36
  37  0.334  0.834  0.491-  11 1.34   8 1.36
  38  0.500  0.652  0.548-  10 1.33  19 1.36
  39  0.150  0.492  0.500-  12 1.36   3 1.38  57 2.11
  40  0.991  0.497  0.462-  12 1.35  17 1.43  22 1.43
  41  0.668  0.332  0.458-  13 1.42  14 1.43  15 1.47
  42  0.675  0.175  0.515-  18 1.33  13 1.35
  43  0.831  0.991  0.486-  20 1.33  16 1.34
  44  0.007  0.343  0.415-   3 1.32  17 1.35
  45  0.831  0.330  0.417-  17 1.32  14 1.36
  46  0.996  0.163  0.467-  16 1.32   1 1.34
  47  0.666  0.003  0.546-  21 1.34  18 1.34
  48  0.504  0.004  0.510-  11 1.39  18 1.41   4 1.42
  49  0.667  0.832  0.536-  19 1.42  21 1.46  20 1.46
  50  0.672  0.667  0.515-  19 1.33  24 1.33
  51  0.834  0.505  0.427-  22 1.31  14 1.36
  52  0.010  0.846  0.553-  23 1.35   9 1.35
  53  0.843  0.851  0.567-  23 1.35  20 1.35
  54  0.006  0.674  0.453-   7 1.33  22 1.35
  55  0.667  0.495  0.497-  24 1.32  15 1.34
  56  0.503  0.498  0.487-  10 1.35  24 1.42   5 1.43
  57  0.302  0.612  0.559-  35 2.10  39 2.11
  58  0.296  0.600  0.767-  59 1.15
  59  0.224  0.520  0.798-  58 1.15


IMPORTANT INFORMATION: All symmetrisations will be switched off!
NOSYMM: (Re-)initialisation of all symmetry stuff for point group C_1.



 KPOINTS: K-Points                                

Automatic generation of k-mesh.
Space group operators:
 irot       det(A)        alpha          n_x          n_y          n_z        tau_x        tau_y        tau_z
    1     1.000000     0.000000     1.000000     0.000000     0.000000     0.000000     0.000000     0.000000
 
 Subroutine IBZKPT returns following result:
 ===========================================
 
 Found      5 irreducible k-points:
 
 Following reciprocal coordinates:
            Coordinates               Weight
  0.000000  0.000000  0.000000      1.000000
  0.333333  0.000000  0.000000      2.000000
  0.000000  0.333333  0.000000      2.000000
  0.333333  0.333333  0.000000      2.000000
 -0.333333  0.333333  0.000000      2.000000
 
 Following cartesian coordinates:
            Coordinates               Weight
  0.000000  0.000000  0.000000      1.000000
  0.024277  0.014368  0.000000      2.000000
  0.000396  0.028736  0.000000      2.000000
  0.024673  0.043104  0.000000      2.000000
 -0.023881  0.014368  0.000000      2.000000
 
 TETIRR: Found     24 inequivalent tetrahedra from       54


--------------------------------------------------------------------------------------------------------




 Dimension of arrays:
   k-points           NKPTS =      5   k-points in BZ     NKDIM =      5   number of bands    NBANDS=    172
   number of dos      NEDOS =   4000   number of ions     NIONS =     59
   non local maximal  LDIM  =      6   non local SUM 2l+1 LMDIM =     18
   total plane-waves  NPLWV = 414720
   max r-space proj   IRMAX =      1   max aug-charges    IRDMAX=   5655
   dimension x,y,z NGX =    72 NGY =   72 NGZ =   80
   dimension x,y,z NGXF=   144 NGYF=  144 NGZF=  160
   support grid    NGXF=   144 NGYF=  144 NGZF=  160
   ions per type =              24  32   1   1   1
   NGX,Y,Z   is equivalent  to a cutoff of   8.48,  8.64,  8.69 a.u.
   NGXF,Y,Z  is equivalent  to a cutoff of  16.95, 17.27, 17.39 a.u.

 SYSTEM =  unknown system                          
 POSCAR =  POSCAR-c3n4                             

 Startparameter for this run:
   NWRITE =      2    write-flag & timer
   PREC   = normal    normal or accurate (medium, high low for compatibility)
   ISTART =      0    job   : 0-new  1-cont  2-samecut
   ICHARG =      2    charge: 1-file 2-atom 10-const
   ISPIN  =      2    spin polarized calculation?
   LNONCOLLINEAR =      F non collinear calculations
   LSORBIT =      F    spin-orbit coupling
   INIWAV =      1    electr: 0-lowe 1-rand  2-diag
   LASPH  =      F    aspherical Exc in radial PAW
   METAGGA=      F    non-selfconsistent MetaGGA calc.

 Electronic Relaxation 1
   ENCUT  =  440.0 eV  32.34 Ry    5.69 a.u.  24.15 23.71 26.17*2*pi/ulx,y,z
   ENINI  =  440.0     initial cutoff
   ENAUG  =  644.9 eV  augmentation charge cutoff
   NELM   =    100;   NELMIN=  2; NELMDL= -5     # of ELM steps 
   EDIFF  = 0.1E-03   stopping-criterion for ELM
   LREAL  =      F    real-space projection
   NLSPLINE    = F    spline interpolate recip. space projectors
   LCOMPAT=      F    compatible to vasp.4.4
   GGA_COMPAT  = T    GGA compatible to vasp.4.4-vasp.4.6
   LMAXPAW     = -100 max onsite density
   LMAXMIX     =    2 max onsite mixed and CHGCAR
   VOSKOWN=      0    Vosko Wilk Nusair interpolation
   ROPT   =    0.00000   0.00000   0.00000   0.00000
   ROPT   =    0.00000
 Ionic relaxation
   EDIFFG = -.1E-01   stopping-criterion for IOM
   NSW    =      0    number of steps for IOM
   NBLOCK =      1;   KBLOCK =      1    inner block; outer block 
   IBRION =     -1    ionic relax: 0-MD 1-quasi-New 2-CG
   NFREE  =      0    steps in history (QN), initial steepest desc. (CG)
   ISIF   =      2    stress and relaxation
   IWAVPR =     10    prediction:  0-non 1-charg 2-wave 3-comb
   ISYM   =      0    0-nonsym 1-usesym 2-fastsym
   LCORR  =      T    Harris-Foulkes like correction to forces

   POTIM  = 0.5000    time-step for ionic-motion
   TEIN   =    0.0    initial temperature
   TEBEG  =    0.0;   TEEND  =   0.0 temperature during run
   SMASS  =  -3.00    Nose mass-parameter (am)
   estimated Nose-frequenzy (Omega)   =  0.10E-29 period in steps =****** mass=  -0.456E-26a.u.
   SCALEE = 1.0000    scale energy and forces
   NPACO  =    256;   APACO  = 16.0  distance and # of slots for P.C.
   PSTRESS=    0.0 pullay stress

  Mass of Ions in am
   POMASS =  12.01 14.00 72.61 12.01 16.00
  Ionic Valenz
   ZVAL   =   4.00  5.00 14.00  4.00  6.00
  Atomic Wigner-Seitz radii
   RWIGS  =  -1.00 -1.00 -1.00 -1.00 -1.00
  virtual crystal weights 
   VCA    =   1.00  1.00  1.00  1.00  1.00
   NELECT =     280.0000    total number of electrons
   NUPDOWN=      -1.0000    fix difference up-down

 DOS related values:
   EMIN   = -14.00;   EMAX   =  6.00  energy-range for DOS
   EFERMI =   0.00
   ISMEAR =    -5;   SIGMA  =   0.20  broadening in eV -4-tet -1-fermi 0-gaus

 Electronic relaxation 2 (details)
   IALGO  =     38    algorithm
   LDIAG  =      T    sub-space diagonalisation (order eigenvalues)
   LSUBROT=      F    optimize rotation matrix (better conditioning)
   TURBO    =      0    0=normal 1=particle mesh
   IRESTART =      0    0=no restart 2=restart with 2 vectors
   NREBOOT  =      0    no. of reboots
   NMIN     =      0    reboot dimension
   EREF     =   0.00    reference energy to select bands
   IMIX   =      4    mixing-type and parameters
     AMIX     =   0.25;   BMIX     =  0.00
     AMIX_MAG =   1.00;   BMIX_MAG =  0.00
     AMIN     =   0.10
     WC   =   100.;   INIMIX=   1;  MIXPRE=   1;  MAXMIX= -45

 Intra band minimization:
   WEIMIN = 0.0000     energy-eigenvalue tresh-hold
   EBREAK =  0.15E-06  absolut break condition
   DEPER  =   0.30     relativ break condition  

   TIME   =   0.40     timestep for ELM

  volume/ion in A,a.u.               =      43.32       292.37
  Fermi-wavevector in a.u.,A,eV,Ry     =   0.783307  1.480236  8.348124  0.613570
  Thomas-Fermi vector in A             =   1.887209

 Write flags
   LWAVE        =      F    write WAVECAR
   LDOWNSAMPLE  =      F    k-point downsampling of WAVECAR
   LCHARG       =      F    write CHGCAR
   LVTOT        =      F    write LOCPOT, total local potential
   LVHAR        =      F    write LOCPOT, Hartree potential only
   LELF         =      F    write electronic localiz. function (ELF)
   LORBIT       =     11    0 simple, 1 ext, 2 COOP (PROOUT), +10 PAW based schemes


 Dipole corrections
   LMONO  =      F    monopole corrections only (constant potential shift)
   LDIPOL =      F    correct potential (dipole corrections)
   IDIPOL =      0    1-x, 2-y, 3-z, 4-all directions 
   EPSILON=  1.0000000 bulk dielectric constant

 Exchange correlation treatment:
   GGA     =    --    GGA type
   LEXCH   =     8    internal setting for exchange type
   VOSKOWN=      0    Vosko Wilk Nusair interpolation
   LHFCALC =     F    Hartree Fock is set to
   LHFONE  =     F    Hartree Fock one center treatment
   AEXX    =    0.0000 exact exchange contribution

 Linear response parameters
   LEPSILON=     F    determine dielectric tensor
   LRPA    =     F    only Hartree local field effects (RPA)
   LNABLA  =     F    use nabla operator in PAW spheres
   LVEL    =     F    velocity operator in full k-point grid
   LINTERFAST=   F  fast interpolation
   KINTER  =     0    interpolate to denser k-point grid
   CSHIFT  =0.1000    complex shift for real part using Kramers Kronig
   OMEGAMAX=  -1.0    maximum frequency
   DEG_THRESHOLD= 0.2000000E-02 threshold for treating states as degnerate
   RTIME   =   -0.100 relaxation time in fs
  (WPLASMAI=    0.000 imaginary part of plasma frequency in eV, 0.658/RTIME)
   DFIELD  = 0.0000000 0.0000000 0.0000000 field for delta impulse in time

 Orbital magnetization related:
   ORBITALMAG=     F  switch on orbital magnetization
   LCHIMAG   =     F  perturbation theory with respect to B field
   DQ        =  0.001000  dq finite difference perturbation B field
   LLRAUG    =     F  two centre corrections for induced B field



--------------------------------------------------------------------------------------------------------


 Static calculation
 charge density and potential will be updated during run
 spin polarized calculation
 Variant of blocked Davidson
 Davidson routine will perform the subspace rotation
 perform sub-space diagonalisation
    after iterative eigenvector-optimisation
 modified Broyden-mixing scheme, WC =      100.0
 initial mixing is a Kerker type mixing with AMIX =  0.2500 and BMIX =      0.0001
 Hartree-type preconditioning will be used
 using additional bands           32
 reciprocal scheme for non local part
 use partial core corrections
 calculate Harris-corrections to forces   (improved forces if not selfconsistent)
 use gradient corrections 
 use of overlap-Matrix (Vanderbilt PP)
 Fermi weights with tetrahedron method with Bloechl corrections


--------------------------------------------------------------------------------------------------------


  energy-cutoff  :      440.00
  volume of cell :     2556.15
      direct lattice vectors                 reciprocal lattice vectors
    14.120292719 -0.194555283  0.000000000     0.071402323  0.042258936 -0.000000000
    -7.060146360 11.929094814  0.000000000     0.001164522  0.084517871 -0.000000000
     0.000000000  0.000000000 15.300000000    -0.000000000 -0.000000000  0.065359477

  length of vectors
    14.121632988 13.861780899 15.300000000     0.082970533  0.084525893  0.065359477



 k-points in units of 2pi/SCALE and weight: K-Points                                
   0.00000000  0.00000000  0.00000000       0.111
   0.02427679  0.01436804  0.00000000       0.222
   0.00039594  0.02873608  0.00000000       0.222
   0.02467273  0.04310411  0.00000000       0.222
  -0.02388085  0.01436804  0.00000000       0.222

 k-points in reciprocal lattice and weights: K-Points                                
   0.00000000  0.00000000  0.00000000       0.111
   0.33333333  0.00000000  0.00000000       0.222
   0.00000000  0.33333333  0.00000000       0.222
   0.33333333  0.33333333  0.00000000       0.222
  -0.33333333  0.33333333  0.00000000       0.222

 position of ions in fractional coordinates (direct lattice) 
   0.10608912  0.21430753  0.45607062
   0.28688247  0.39547386  0.45732233
   0.10442429  0.39184453  0.45411559
   0.44698006  0.06242192  0.51925001
   0.44856711  0.39331884  0.44022052
   0.11082264  0.05360713  0.47064154
   0.10080135  0.71447157  0.49648039
   0.28524328  0.89241905  0.51166528
   0.10740863  0.89432706  0.50982088
   0.44842255  0.54883294  0.51391205
   0.44504511  0.88739868  0.49984321
   0.09430729  0.54777671  0.49695400
   0.61436039  0.22155893  0.49445656
   0.78204986  0.39034904  0.43343300
   0.60898803  0.39312061  0.45956774
   0.94125557  0.05377828  0.48282522
   0.94016045  0.38479503  0.42840507
   0.61952723  0.06332755  0.52477685
   0.61183914  0.71273127  0.53350690
   0.78802322  0.89503146  0.52999769
   0.60780015  0.89260058  0.52732472
   0.94073467  0.56110748  0.44615370
   0.94911327  0.89473156  0.54073507
   0.61918783  0.55549847  0.50137923
   0.16672669  0.33517019  0.45240599
   0.16339192  0.16220216  0.44959418
   0.33719000  0.00171206  0.53278136
   0.50714161  0.34513269  0.42295579
   0.34121030  0.35192287  0.42031036
   0.50507833  0.17387234  0.51121557
   0.15881712  0.99208818  0.46718434
   0.00004849  0.99952825  0.49796266
   0.16558026  0.83290086  0.51020851
   0.14352427  0.65270237  0.52686720
   0.33650104  0.49452042  0.50527730
   0.50118045  0.83314938  0.49898020
   0.33443816  0.83355055  0.49054325
   0.50029200  0.65190701  0.54815073
   0.14997981  0.49205863  0.50010804
   0.99124760  0.49670937  0.46236941
   0.66772912  0.33155440  0.45759622
   0.67514781  0.17496084  0.51455893
   0.83062192  0.99109818  0.48586845
   0.00666857  0.34333976  0.41495129
   0.83132418  0.33043281  0.41709012
   0.99618023  0.16339501  0.46663168
   0.66551431  0.00277208  0.54644809
   0.50370499  0.00368911  0.51047508
   0.66690730  0.83239859  0.53635004
   0.67175945  0.66676318  0.51483380
   0.83449627  0.50451841  0.42724760
   0.00955897  0.84603204  0.55272738
   0.84340327  0.85051098  0.56713807
   0.00553448  0.67439273  0.45339931
   0.66680176  0.49523210  0.49746099
   0.50312817  0.49795508  0.48713264
   0.30179327  0.61185655  0.55901484
   0.29594063  0.60012496  0.76707651
   0.22352484  0.52033831  0.79822591

 position of ions in cartesian coordinates  (Angst):
  -0.01503315  2.53585463  6.97788048
   1.25876115  4.66183068  6.99703171
  -1.29197823  4.65403426  6.94796847
   5.87078138  0.65767467  7.94452513
   3.55701037  4.60466658  6.73537388
   1.18637396  0.61792335  7.20081563
  -3.62092931  8.50338761  7.59614996
  -2.27289051 10.59025587  7.82847881
  -4.79743860 10.64761536  7.80025940
   2.45701669  6.45983724  7.86285433
   0.01900264 10.49927715  7.64760114
  -2.53573717  6.51613236  7.60339625
   7.11071011  2.52347046  7.56518534
   8.28685162  4.50435874  6.63152497
   5.82360026  4.57109120  7.03138642
  12.91112160  0.45839991  7.38722593
  10.55863147  4.40734325  6.55459753
   8.30080402  0.63490808  8.02908582
   3.60736070  8.38320241  8.16265564
   4.80806535 10.52360110  8.10896463
   2.28042528 10.52966622  8.06806821
   9.32194797  6.51047941  6.82615158
   7.08482136 10.48868261  8.27324652
   4.82121292  6.50612767  7.67110224
  -0.01212090  3.96583936  6.92181159
   1.16197073  1.90313613  6.87879103
   4.74913410 -0.04517880  8.15155487
   4.72430070  4.01845349  6.47122363
   2.33336240  4.13173699  6.43074849
   5.90428964  1.97587395  7.82159822
  -4.76174350 11.80381530  7.14792034
  -7.05613099 11.92345779  7.61882870
  -3.54236027  9.90353879  7.80619024
  -2.58156948  7.75822503  8.06106819
   1.26010664  5.83371287  7.73074263
   1.19465809  9.84121068  7.63439700
  -1.16262424  9.87843684  7.50531178
   2.46171057  7.67932611  8.38670617
  -1.35624716  5.84063466  7.65165299
  10.48986548  5.73244067  7.07425201
   7.08770813  3.82523359  7.00122213
   8.29803557  1.95577085  7.87275158
   4.73132644 11.66130229  7.43378732
  -2.32986684  4.09443510  6.34875479
   9.40563674  3.78002579  6.38147883
  12.91276375  1.75534247  7.13946472
   9.37768560 -0.09641090  8.36065574
   7.08641627 -0.05399074  7.81026872
   3.54007041  9.80001135  8.20615561
   4.77799450  7.82318682  7.87695712
   8.22135783  5.85609225  6.53688821
  -5.83813449 10.09053664  8.45672892
   5.90436908  9.98173755  8.67721249
  -4.68316293  8.04381810  6.93700939
   5.91902485  5.77794091  7.61115313
   3.58868125  5.84226714  7.45312937
  -0.05838757  7.24017938  8.55292700
  -0.05820171  7.10137077 11.73627060
  -0.51742849  6.16367714 12.21285643



--------------------------------------------------------------------------------------------------------


 k-point  1 :   0.0000 0.0000 0.0000  plane waves:   53561
 k-point  2 :   0.3333 0.0000 0.0000  plane waves:   53587
 k-point  3 :   0.0000 0.3333 0.0000  plane waves:   53527
 k-point  4 :   0.3333 0.3333 0.0000  plane waves:   53548
 k-point  5 :  -0.3333 0.3333 0.0000  plane waves:   53572

 maximum and minimum number of plane-waves per node :      4486     4442

 maximum number of plane-waves:     53587
 maximum index in each direction: 
   IXMAX=   24   IYMAX=   23   IZMAX=   26
   IXMIN=  -24   IYMIN=  -24   IZMIN=  -26


 parallel 3D FFT for wavefunctions:
    minimum data exchange during FFTs selected (reduces bandwidth)
 parallel 3D FFT for charge:
    minimum data exchange during FFTs selected (reduces bandwidth)


 total amount of memory used by VASP MPI-rank0    94985. kBytes
=======================================================================

   base      :      30000. kBytes
   nonl-proj :      20284. kBytes
   fftplans  :       3433. kBytes
   grid      :      10043. kBytes
   one-center:        155. kBytes
   wavefun   :      31070. kBytes

     INWAV:  cpu time    0.0001: real time    0.0001
 Broyden mixing: mesh for mixing (old mesh)
   NGX = 49   NGY = 47   NGZ = 53
  (NGX  =144   NGY  =144   NGZ  =160)
  gives a total of 122059 points

 initial charge density was supplied:
 charge density of overlapping atoms calculated
 number of electron     280.0000000 magnetization       2.0000000
 keeping initial charge density in first step


--------------------------------------------------------------------------------------------------------


 Maximum index for augmentation-charges          285 (set IRDMAX)


--------------------------------------------------------------------------------------------------------


 First call to EWALD:  gamma=   0.130
 Maximum number of real-space cells 3x 3x 3
 Maximum number of reciprocal cells 3x 3x 3

    FEWALD:  cpu time    0.0118: real time    0.0118


--------------------------------------- Iteration      1(   1)  ---------------------------------------


    POTLOK:  cpu time    0.1541: real time    0.1786
    SETDIJ:  cpu time    0.0104: real time    0.0106
     EDDAV:  cpu time   13.1856: real time   13.1934
 BZINTS: Fermi energy:  8.952517;280.000000 electrons
         Band energy:***********;  BLOECHL correction: -0.033258
       DOS:  cpu time    0.1724: real time    0.1724
    --------------------------------------------
      LOOP:  cpu time   13.5225: real time   13.5550

 eigenvalue-minimisations  :  3992
 total energy-change (2. order) : 0.2646829E+04  (-0.1042954E+05)
 number of electron     280.0000000 magnetization       2.0000000
 augmentation part      280.0000000 magnetization       2.0000000

 Free energy of the ion-electron system (eV)
  ---------------------------------------------------
  alpha Z        PSCENC =       145.77389662
  Ewald energy   TEWEN  =     27688.07516886
  -Hartree energ DENC   =    -39583.45701255
  -exchange      EXHF   =         0.00000000
  -V(xc)+E(xc)   XCENC  =      1066.01904806
  PAW double counting   =     11453.83848114   -11942.90478952
  entropy T*S    EENTRO =         0.00000000
  eigenvalues    EBANDS =     -1352.25154908
  atomic energy  EATOM  =     15171.73615219
  Solvation  Ediel_sol  =         0.00000000
  ---------------------------------------------------
  free energy    TOTEN  =      2646.82939571 eV

  energy without entropy =     2646.82939571  energy(sigma->0) =     2646.82939571


--------------------------------------------------------------------------------------------------------




--------------------------------------- Iteration      1(   2)  ---------------------------------------


     EDDAV:  cpu time   15.3793: real time   15.3910
 BZINTS: Fermi energy:  0.073538;280.000000 electrons
         Band energy:***********;  BLOECHL correction:  0.000000
       DOS:  cpu time    0.0172: real time    0.0172
    --------------------------------------------
      LOOP:  cpu time   15.3965: real time   15.4081

 eigenvalue-minimisations  :  4816
 total energy-change (2. order) :-0.2613134E+04  (-0.2512410E+04)
 number of electron     280.0000000 magnetization       2.0000000
 augmentation part      280.0000000 magnetization       2.0000000

 Free energy of the ion-electron system (eV)
  ---------------------------------------------------
  alpha Z        PSCENC =       145.77389662
  Ewald energy   TEWEN  =     27688.07516886
  -Hartree energ DENC   =    -39583.45701255
  -exchange      EXHF   =         0.00000000
  -V(xc)+E(xc)   XCENC  =      1066.01904806
  PAW double counting   =     11453.83848114   -11942.90478952
  entropy T*S    EENTRO =         0.00000000
  eigenvalues    EBANDS =     -3965.38515463
  atomic energy  EATOM  =     15171.73615219
  Solvation  Ediel_sol  =         0.00000000
  ---------------------------------------------------
  free energy    TOTEN  =        33.69579017 eV

  energy without entropy =       33.69579017  energy(sigma->0) =       33.69579017


--------------------------------------------------------------------------------------------------------




--------------------------------------- Iteration      1(   3)  ---------------------------------------


     EDDAV:  cpu time   13.2333: real time   13.2456
 BZINTS: Fermi energy: -3.483629;280.000000 electrons
         Band energy:***********;  BLOECHL correction: -0.017206
       DOS:  cpu time    0.0252: real time    0.0252
    --------------------------------------------
      LOOP:  cpu time   13.2585: real time   13.2708

 eigenvalue-minimisations  :  4048
 total energy-change (2. order) :-0.5361864E+03  (-0.5320773E+03)
 number of electron     280.0000000 magnetization       2.0000000
 augmentation part      280.0000000 magnetization       2.0000000

 Free energy of the ion-electron system (eV)
  ---------------------------------------------------
  alpha Z        PSCENC =       145.77389662
  Ewald energy   TEWEN  =     27688.07516886
  -Hartree energ DENC   =    -39583.45701255
  -exchange      EXHF   =         0.00000000
  -V(xc)+E(xc)   XCENC  =      1066.01904806
  PAW double counting   =     11453.83848114   -11942.90478952
  entropy T*S    EENTRO =         0.00000000
  eigenvalues    EBANDS =     -4501.57152475
  atomic energy  EATOM  =     15171.73615219
  Solvation  Ediel_sol  =         0.00000000
  ---------------------------------------------------
  free energy    TOTEN  =      -502.49057995 eV

  energy without entropy =     -502.49057995  energy(sigma->0) =     -502.49057995


--------------------------------------------------------------------------------------------------------




--------------------------------------- Iteration      1(   4)  ---------------------------------------


     EDDAV:  cpu time   14.2516: real time   14.2554
 BZINTS: Fermi energy: -3.941235;280.000000 electrons
         Band energy:***********;  BLOECHL correction:  0.000000
       DOS:  cpu time    0.0165: real time    0.0165
    --------------------------------------------
      LOOP:  cpu time   14.2680: real time   14.2719

 eigenvalue-minimisations  :  4376
 total energy-change (2. order) :-0.2274523E+02  (-0.2220633E+02)
 number of electron     280.0000000 magnetization       2.0000000
 augmentation part      280.0000000 magnetization       2.0000000

 Free energy of the ion-electron system (eV)
  ---------------------------------------------------
  alpha Z        PSCENC =       145.77389662
  Ewald energy   TEWEN  =     27688.07516886
  -Hartree energ DENC   =    -39583.45701255
  -exchange      EXHF   =         0.00000000
  -V(xc)+E(xc)   XCENC  =      1066.01904806
  PAW double counting   =     11453.83848114   -11942.90478952
  entropy T*S    EENTRO =         0.00000000
  eigenvalues    EBANDS =     -4524.31675564
  atomic energy  EATOM  =     15171.73615219
  Solvation  Ediel_sol  =         0.00000000
  ---------------------------------------------------
  free energy    TOTEN  =      -525.23581084 eV

  energy without entropy =     -525.23581084  energy(sigma->0) =     -525.23581084


--------------------------------------------------------------------------------------------------------




--------------------------------------- Iteration      1(   5)  ---------------------------------------


     EDDAV:  cpu time   15.8021: real time   15.8059
 BZINTS: Fermi energy: -3.981245;280.000000 electrons
         Band energy:***********;  BLOECHL correction:  0.000000
       DOS:  cpu time    0.0169: real time    0.0169
    CHARGE:  cpu time    0.4225: real time    0.4226
    MIXING:  cpu time    0.0037: real time    0.0038
    --------------------------------------------
      LOOP:  cpu time   16.2452: real time   16.2492

 eigenvalue-minimisations  :  4984
 total energy-change (2. order) :-0.9115764E+00  (-0.9017917E+00)
 number of electron     279.9999919 magnetization       0.0000001
 augmentation part       20.2060017 magnetization       0.0283959

 Broyden mixing:
  rms(total) = 0.41166E+01    rms(broyden)= 0.41137E+01
  rms(prec ) = 0.45386E+01
  weight for this iteration     100.00

 Free energy of the ion-electron system (eV)
  ---------------------------------------------------
  alpha Z        PSCENC =       145.77389662
  Ewald energy   TEWEN  =     27688.07516886
  -Hartree energ DENC   =    -39583.45701255
  -exchange      EXHF   =         0.00000000
  -V(xc)+E(xc)   XCENC  =      1066.01904806
  PAW double counting   =     11453.83848114   -11942.90478952
  entropy T*S    EENTRO =         0.00000000
  eigenvalues    EBANDS =     -4525.22833203
  atomic energy  EATOM  =     15171.73615219
  Solvation  Ediel_sol  =         0.00000000
  ---------------------------------------------------
  free energy    TOTEN  =      -526.14738723 eV

  energy without entropy =     -526.14738723  energy(sigma->0) =     -526.14738723


--------------------------------------------------------------------------------------------------------




--------------------------------------- Iteration      1(   6)  ---------------------------------------


    POTLOK:  cpu time    0.1387: real time    0.1392
    SETDIJ:  cpu time    0.0106: real time    0.0106
     EDDAV:  cpu time   14.0967: real time   14.0989
 BZINTS: Fermi energy: -3.541135;280.000000 electrons
         Band energy:***********;  BLOECHL correction:  0.000000
       DOS:  cpu time    0.0173: real time    0.0173
    CHARGE:  cpu time    0.4132: real time    0.4132
    MIXING:  cpu time    0.0036: real time    0.0071
    --------------------------------------------
      LOOP:  cpu time   14.6800: real time   14.6864

 eigenvalue-minimisations  :  4392
 total energy-change (2. order) : 0.2662639E+02  (-0.5230008E+01)
 number of electron     279.9999927 magnetization      -0.0000001
 augmentation part       19.0803524 magnetization       0.0085745

 Broyden mixing:
  rms(total) = 0.25446E+01    rms(broyden)= 0.25442E+01
  rms(prec ) = 0.27151E+01
  weight for this iteration     100.00

 eigenvalues of (default mixing * dielectric matrix)
  average eigenvalue GAMMA=   1.4172
  1.4172

 Free energy of the ion-electron system (eV)
  ---------------------------------------------------
  alpha Z        PSCENC =       145.77389662
  Ewald energy   TEWEN  =     27688.07516886
  -Hartree energ DENC   =    -39885.97756078
  -exchange      EXHF   =         0.00000000
  -V(xc)+E(xc)   XCENC  =      1080.77941096
  PAW double counting   =     14937.55834421   -15428.78376612
  entropy T*S    EENTRO =         0.00000000
  eigenvalues    EBANDS =     -4208.68263892
  atomic energy  EATOM  =     15171.73615219
  Solvation  Ediel_sol  =         0.00000000
  ---------------------------------------------------
  free energy    TOTEN  =      -499.52099298 eV

  energy without entropy =     -499.52099298  energy(sigma->0) =     -499.52099298


--------------------------------------------------------------------------------------------------------




--------------------------------------- Iteration      1(   7)  ---------------------------------------


    POTLOK:  cpu time    0.1416: real time    0.1419
    SETDIJ:  cpu time    0.0105: real time    0.0105
     EDDAV:  cpu time   13.5831: real time   13.5868
 BZINTS: Fermi energy: -3.086022;280.000000 electrons
         Band energy:***********;  BLOECHL correction:  0.000000
       DOS:  cpu time    0.0176: real time    0.0176
    CHARGE:  cpu time    0.3970: real time    0.3971
    MIXING:  cpu time    0.0030: real time    0.0036
    --------------------------------------------
      LOOP:  cpu time   14.1527: real time   14.1574

 eigenvalue-minimisations  :  4136
 total energy-change (2. order) : 0.4912754E+01  (-0.4092834E+01)
 number of electron     279.9999926 magnetization      -0.0000000
 augmentation part       18.6473493 magnetization      -0.0002690

 Broyden mixing:
  rms(total) = 0.16240E+01    rms(broyden)= 0.16236E+01
  rms(prec ) = 0.17467E+01
  weight for this iteration     100.00

 eigenvalues of (default mixing * dielectric matrix)
  average eigenvalue GAMMA=   1.5405
  0.9817  2.0993

 Free energy of the ion-electron system (eV)
  ---------------------------------------------------
  alpha Z        PSCENC =       145.77389662
  Ewald energy   TEWEN  =     27688.07516886
  -Hartree energ DENC   =    -40160.34336079
  -exchange      EXHF   =         0.00000000
  -V(xc)+E(xc)   XCENC  =      1092.15846253
  PAW double counting   =     19647.89764682   -20142.33413347
  entropy T*S    EENTRO =         0.00000000
  eigenvalues    EBANDS =     -3937.57207200
  atomic energy  EATOM  =     15171.73615219
  Solvation  Ediel_sol  =         0.00000000
  ---------------------------------------------------
  free energy    TOTEN  =      -494.60823925 eV

  energy without entropy =     -494.60823925  energy(sigma->0) =     -494.60823925


--------------------------------------------------------------------------------------------------------




--------------------------------------- Iteration      1(   8)  ---------------------------------------


    POTLOK:  cpu time    0.1276: real time    0.1394
    SETDIJ:  cpu time    0.0102: real time    0.0102
     EDDAV:  cpu time   13.4387: real time   13.4419
 BZINTS: Fermi energy: -2.605901;280.000000 electrons
         Band energy:***********;  BLOECHL correction:  0.000000
       DOS:  cpu time    0.0178: real time    0.0178
    CHARGE:  cpu time    0.4020: real time    0.4021
    MIXING:  cpu time    0.0029: real time    0.0029
    --------------------------------------------
      LOOP:  cpu time   13.9993: real time   14.0145

 eigenvalue-minimisations  :  4064
 total energy-change (2. order) : 0.1701387E+01  (-0.1690319E+01)
 number of electron     279.9999931 magnetization       0.0000000
 augmentation part       18.4576816 magnetization      -0.0016601

 Broyden mixing:
  rms(total) = 0.11192E+01    rms(broyden)= 0.11189E+01
  rms(prec ) = 0.11851E+01
  weight for this iteration     100.00

 eigenvalues of (default mixing * dielectric matrix)
  average eigenvalue GAMMA=   1.6975
  3.1675  1.2528  0.6721

 Free energy of the ion-electron system (eV)
  ---------------------------------------------------
  alpha Z        PSCENC =       145.77389662
  Ewald energy   TEWEN  =     27688.07516886
  -Hartree energ DENC   =    -40265.52122923
  -exchange      EXHF   =         0.00000000
  -V(xc)+E(xc)   XCENC  =      1096.56885388
  PAW double counting   =     22853.87856467   -23350.50983264
  entropy T*S    EENTRO =         0.00000000
  eigenvalues    EBANDS =     -3832.90842686
  atomic energy  EATOM  =     15171.73615219
  Solvation  Ediel_sol  =         0.00000000
  ---------------------------------------------------
  free energy    TOTEN  =      -492.90685251 eV

  energy without entropy =     -492.90685251  energy(sigma->0) =     -492.90685251


--------------------------------------------------------------------------------------------------------




--------------------------------------- Iteration      1(   9)  ---------------------------------------


    POTLOK:  cpu time    0.1383: real time    0.1389
    SETDIJ:  cpu time    0.0108: real time    0.0108
     EDDAV:  cpu time   14.8838: real time   14.8870
 BZINTS: Fermi energy: -2.355839;280.000000 electrons
         Band energy:***********;  BLOECHL correction:  0.000000
       DOS:  cpu time    0.0164: real time    0.0164
    CHARGE:  cpu time    0.4152: real time    0.4153
    MIXING:  cpu time    0.0030: real time    0.0030
    --------------------------------------------
      LOOP:  cpu time   15.4675: real time   15.4715

 eigenvalue-minimisations  :  4672
 total energy-change (2. order) : 0.1918177E-01  (-0.1178224E+01)
 number of electron     279.9999930 magnetization       0.0000000
 augmentation part       18.5102329 magnetization      -0.0006451

 Broyden mixing:
  rms(total) = 0.57618E+00    rms(broyden)= 0.57589E+00
  rms(prec ) = 0.72976E+00
  weight for this iteration     100.00

 eigenvalues of (default mixing * dielectric matrix)
  average eigenvalue GAMMA=   1.6019
  3.6112  1.3347  0.7307  0.7307

 Free energy of the ion-electron system (eV)
  ---------------------------------------------------
  alpha Z        PSCENC =       145.77389662
  Ewald energy   TEWEN  =     27688.07516886
  -Hartree energ DENC   =    -40347.13260300
  -exchange      EXHF   =         0.00000000
  -V(xc)+E(xc)   XCENC  =      1099.84597718
  PAW double counting   =     27282.94520848   -27783.99611455
  entropy T*S    EENTRO =         0.00000000
  eigenvalues    EBANDS =     -3750.13535652
  atomic energy  EATOM  =     15171.73615219
  Solvation  Ediel_sol  =         0.00000000
  ---------------------------------------------------
  free energy    TOTEN  =      -492.88767074 eV

  energy without entropy =     -492.88767074  energy(sigma->0) =     -492.88767074


--------------------------------------------------------------------------------------------------------




--------------------------------------- Iteration      1(  10)  ---------------------------------------


    POTLOK:  cpu time    0.1405: real time    0.1409
    SETDIJ:  cpu time    0.0107: real time    0.0107
     EDDAV:  cpu time   14.7880: real time   14.7893
 BZINTS: Fermi energy: -2.069517;280.000000 electrons
         Band energy:***********;  BLOECHL correction:  0.000000
       DOS:  cpu time    0.0167: real time    0.0167
    CHARGE:  cpu time    0.4010: real time    0.4011
    MIXING:  cpu time    0.0034: real time    0.0034
    --------------------------------------------
      LOOP:  cpu time   15.3603: real time   15.3620

 eigenvalue-minimisations  :  4680
 total energy-change (2. order) : 0.5626216E+00  (-0.6321800E+00)
 number of electron     279.9999931 magnetization       0.0000000
 augmentation part       18.4746508 magnetization      -0.0003845

 Broyden mixing:
  rms(total) = 0.30994E+00    rms(broyden)= 0.30921E+00
  rms(prec ) = 0.36724E+00
  weight for this iteration     100.00

 eigenvalues of (default mixing * dielectric matrix)
  average eigenvalue GAMMA=   1.5024
  3.8349  1.5196  1.0191  0.5691  0.5691

 Free energy of the ion-electron system (eV)
  ---------------------------------------------------
  alpha Z        PSCENC =       145.77389662
  Ewald energy   TEWEN  =     27688.07516886
  -Hartree energ DENC   =    -40357.19824481
  -exchange      EXHF   =         0.00000000
  -V(xc)+E(xc)   XCENC  =      1100.62108762
  PAW double counting   =     28753.76005083   -29254.64373563
  entropy T*S    EENTRO =         0.00000000
  eigenvalues    EBANDS =     -3740.44942480
  atomic energy  EATOM  =     15171.73615219
  Solvation  Ediel_sol  =         0.00000000
  ---------------------------------------------------
  free energy    TOTEN  =      -492.32504912 eV

  energy without entropy =     -492.32504912  energy(sigma->0) =     -492.32504912


--------------------------------------------------------------------------------------------------------




--------------------------------------- Iteration      1(  11)  ---------------------------------------


    POTLOK:  cpu time    0.1407: real time    0.1414
    SETDIJ:  cpu time    0.0106: real time    0.0106
     EDDAV:  cpu time   13.5414: real time   13.5425
 BZINTS: Fermi energy: -2.149537;280.000000 electrons
         Band energy:***********;  BLOECHL correction:  0.000000
       DOS:  cpu time    0.0154: real time    0.0154
    CHARGE:  cpu time    0.4033: real time    0.4034
    MIXING:  cpu time    0.0039: real time    0.0039
    --------------------------------------------
      LOOP:  cpu time   14.1152: real time   14.1170

 eigenvalue-minimisations  :  4112
 total energy-change (2. order) : 0.7247009E-01  (-0.1611557E+00)
 number of electron     279.9999931 magnetization      -0.0000000
 augmentation part       18.4734510 magnetization      -0.0002067

 Broyden mixing:
  rms(total) = 0.18503E+00    rms(broyden)= 0.18481E+00
  rms(prec ) = 0.22672E+00
  weight for this iteration     100.00

 eigenvalues of (default mixing * dielectric matrix)
  average eigenvalue GAMMA=   1.4496
  3.8334  1.6948  1.2048  0.8917  0.5364  0.5364

 Free energy of the ion-electron system (eV)
  ---------------------------------------------------
  alpha Z        PSCENC =       145.77389662
  Ewald energy   TEWEN  =     27688.07516886
  -Hartree energ DENC   =    -40341.98673999
  -exchange      EXHF   =         0.00000000
  -V(xc)+E(xc)   XCENC  =      1100.22036163
  PAW double counting   =     29523.76956352   -30024.41527376
  entropy T*S    EENTRO =         0.00000000
  eigenvalues    EBANDS =     -3755.42570810
  atomic energy  EATOM  =     15171.73615219
  Solvation  Ediel_sol  =         0.00000000
  ---------------------------------------------------
  free energy    TOTEN  =      -492.25257903 eV

  energy without entropy =     -492.25257903  energy(sigma->0) =     -492.25257903


--------------------------------------------------------------------------------------------------------




--------------------------------------- Iteration      1(  12)  ---------------------------------------


    POTLOK:  cpu time    0.1386: real time    0.1393
    SETDIJ:  cpu time    0.0108: real time    0.0108
     EDDAV:  cpu time   14.0419: real time   14.0445
 BZINTS: Fermi energy: -2.200800;280.000000 electrons
         Band energy:***********;  BLOECHL correction:  0.000000
       DOS:  cpu time    0.0160: real time    0.0160
    CHARGE:  cpu time    0.4113: real time    0.4113
    MIXING:  cpu time    0.0040: real time    0.0040
    --------------------------------------------
      LOOP:  cpu time   14.6227: real time   14.6260

 eigenvalue-minimisations  :  4192
 total energy-change (2. order) : 0.2947154E-01  (-0.9964012E-01)
 number of electron     279.9999930 magnetization      -0.0000000
 augmentation part       18.4752693 magnetization      -0.0000537

 Broyden mixing:
  rms(total) = 0.14645E+00    rms(broyden)= 0.14616E+00
  rms(prec ) = 0.19737E+00
  weight for this iteration     100.00

 eigenvalues of (default mixing * dielectric matrix)
  average eigenvalue GAMMA=   1.4375
  3.8255  2.1928  1.3117  0.8446  0.8446  0.5217  0.5217

 Free energy of the ion-electron system (eV)
  ---------------------------------------------------
  alpha Z        PSCENC =       145.77389662
  Ewald energy   TEWEN  =     27688.07516886
  -Hartree energ DENC   =    -40321.90681367
  -exchange      EXHF   =         0.00000000
  -V(xc)+E(xc)   XCENC  =      1099.55987285
  PAW double counting   =     29742.66473902   -30242.80909696
  entropy T*S    EENTRO =         0.00000000
  eigenvalues    EBANDS =     -3775.31702641
  atomic energy  EATOM  =     15171.73615219
  Solvation  Ediel_sol  =         0.00000000
  ---------------------------------------------------
  free energy    TOTEN  =      -492.22310749 eV

  energy without entropy =     -492.22310749  energy(sigma->0) =     -492.22310749


--------------------------------------------------------------------------------------------------------




--------------------------------------- Iteration      1(  13)  ---------------------------------------


    POTLOK:  cpu time    0.1364: real time    0.1368
    SETDIJ:  cpu time    0.0105: real time    0.0105
     EDDAV:  cpu time   13.4489: real time   13.4512
 BZINTS: Fermi energy: -2.230808;280.000000 electrons
         Band energy:***********;  BLOECHL correction:  0.000000
       DOS:  cpu time    0.0156: real time    0.0156
    CHARGE:  cpu time    0.4182: real time    0.4182
    MIXING:  cpu time    0.0047: real time    0.0047
    --------------------------------------------
      LOOP:  cpu time   14.0342: real time   14.0369

 eigenvalue-minimisations  :  4152
 total energy-change (2. order) : 0.4030731E-01  (-0.5144462E-01)
 number of electron     279.9999931 magnetization      -0.0000000
 augmentation part       18.4877805 magnetization       0.0000173

 Broyden mixing:
  rms(total) = 0.65249E-01    rms(broyden)= 0.64904E-01
  rms(prec ) = 0.85028E-01
  weight for this iteration     100.00

 eigenvalues of (default mixing * dielectric matrix)
  average eigenvalue GAMMA=   1.4040
  3.8153  2.4986  1.3709  0.9500  0.7819  0.7819  0.5168  0.5168

 Free energy of the ion-electron system (eV)
  ---------------------------------------------------
  alpha Z        PSCENC =       145.77389662
  Ewald energy   TEWEN  =     27688.07516886
  -Hartree energ DENC   =    -40307.99627321
  -exchange      EXHF   =         0.00000000
  -V(xc)+E(xc)   XCENC  =      1099.05998143
  PAW double counting   =     29873.17406025   -30373.18289620
  entropy T*S    EENTRO =         0.00000000
  eigenvalues    EBANDS =     -3788.82289013
  atomic energy  EATOM  =     15171.73615219
  Solvation  Ediel_sol  =         0.00000000
  ---------------------------------------------------
  free energy    TOTEN  =      -492.18280019 eV

  energy without entropy =     -492.18280019  energy(sigma->0) =     -492.18280019


--------------------------------------------------------------------------------------------------------




--------------------------------------- Iteration      1(  14)  ---------------------------------------


    POTLOK:  cpu time    0.1378: real time    0.1382
    SETDIJ:  cpu time    0.0107: real time    0.0107
     EDDAV:  cpu time   13.0454: real time   13.0492
 BZINTS: Fermi energy: -2.244561;280.000000 electrons
         Band energy:***********;  BLOECHL correction:  0.000000
       DOS:  cpu time    0.0166: real time    0.0166
    CHARGE:  cpu time    0.3975: real time    0.3975
    MIXING:  cpu time    0.0046: real time    0.0046
    --------------------------------------------
      LOOP:  cpu time   13.6126: real time   13.6169

 eigenvalue-minimisations  :  3928
 total energy-change (2. order) : 0.2256322E-02  (-0.1231585E-01)
 number of electron     279.9999930 magnetization      -0.0000000
 augmentation part       18.4923516 magnetization       0.0000221

 Broyden mixing:
  rms(total) = 0.39676E-01    rms(broyden)= 0.39586E-01
  rms(prec ) = 0.50744E-01
  weight for this iteration     100.00

 eigenvalues of (default mixing * dielectric matrix)
  average eigenvalue GAMMA=   1.3947
  3.7975  2.5318  1.3551  1.1868  1.1868  0.7191  0.7191  0.5814  0.4744

 Free energy of the ion-electron system (eV)
  ---------------------------------------------------
  alpha Z        PSCENC =       145.77389662
  Ewald energy   TEWEN  =     27688.07516886
  -Hartree energ DENC   =    -40302.80816790
  -exchange      EXHF   =         0.00000000
  -V(xc)+E(xc)   XCENC  =      1098.86961425
  PAW double counting   =     29932.25964699   -30432.15428124
  entropy T*S    EENTRO =         0.00000000
  eigenvalues    EBANDS =     -3793.93257363
  atomic energy  EATOM  =     15171.73615219
  Solvation  Ediel_sol  =         0.00000000
  ---------------------------------------------------
  free energy    TOTEN  =      -492.18054387 eV

  energy without entropy =     -492.18054387  energy(sigma->0) =     -492.18054387


--------------------------------------------------------------------------------------------------------




--------------------------------------- Iteration      1(  15)  ---------------------------------------


    POTLOK:  cpu time    0.1386: real time    0.1391
    SETDIJ:  cpu time    0.0107: real time    0.0107
     EDDAV:  cpu time   14.4619: real time   14.4649
 BZINTS: Fermi energy: -2.250813;280.000000 electrons
         Band energy:***********;  BLOECHL correction:  0.000000
       DOS:  cpu time    0.0162: real time    0.0162
    CHARGE:  cpu time    0.4157: real time    0.4157
    MIXING:  cpu time    0.0050: real time    0.0050
    --------------------------------------------
      LOOP:  cpu time   15.0480: real time   15.0515

 eigenvalue-minimisations  :  4472
 total energy-change (2. order) : 0.3596509E-03  (-0.5338680E-02)
 number of electron     279.9999930 magnetization       0.0000000
 augmentation part       18.4935756 magnetization      -0.0000023

 Broyden mixing:
  rms(total) = 0.32335E-01    rms(broyden)= 0.32245E-01
  rms(prec ) = 0.43752E-01
  weight for this iteration     100.00

 eigenvalues of (default mixing * dielectric matrix)
  average eigenvalue GAMMA=   1.3949
  3.7446  2.4016  1.9492  1.2176  1.2176  1.0102  0.6569  0.6569  0.6343  0.4602

 Free energy of the ion-electron system (eV)
  ---------------------------------------------------
  alpha Z        PSCENC =       145.77389662
  Ewald energy   TEWEN  =     27688.07516886
  -Hartree energ DENC   =    -40303.06516920
  -exchange      EXHF   =         0.00000000
  -V(xc)+E(xc)   XCENC  =      1098.87442341
  PAW double counting   =     29949.16697217   -30449.11439711
  entropy T*S    EENTRO =         0.00000000
  eigenvalues    EBANDS =     -3793.62723115
  atomic energy  EATOM  =     15171.73615219
  Solvation  Ediel_sol  =         0.00000000
  ---------------------------------------------------
  free energy    TOTEN  =      -492.18018422 eV

  energy without entropy =     -492.18018422  energy(sigma->0) =     -492.18018422


--------------------------------------------------------------------------------------------------------




--------------------------------------- Iteration      1(  16)  ---------------------------------------


    POTLOK:  cpu time    0.1446: real time    0.1450
    SETDIJ:  cpu time    0.0109: real time    0.0109
     EDDAV:  cpu time   14.0021: real time   14.0048
 BZINTS: Fermi energy: -2.240810;280.000000 electrons
         Band energy:***********;  BLOECHL correction:  0.000000
       DOS:  cpu time    0.0157: real time    0.0157
    CHARGE:  cpu time    0.4155: real time    0.4155
    MIXING:  cpu time    0.0049: real time    0.0049
    --------------------------------------------
      LOOP:  cpu time   14.5937: real time   14.5968

 eigenvalue-minimisations  :  4360
 total energy-change (2. order) : 0.7240021E-03  (-0.3129922E-02)
 number of electron     279.9999930 magnetization      -0.0000000
 augmentation part       18.4919382 magnetization      -0.0000209

 Broyden mixing:
  rms(total) = 0.21135E-01    rms(broyden)= 0.21053E-01
  rms(prec ) = 0.27697E-01
  weight for this iteration     100.00

 eigenvalues of (default mixing * dielectric matrix)
  average eigenvalue GAMMA=   1.4186
  3.6622  2.9678  2.1494  1.2681  1.2681  0.9567  0.9567  0.6277  0.6277  0.6641
  0.4564

 Free energy of the ion-electron system (eV)
  ---------------------------------------------------
  alpha Z        PSCENC =       145.77389662
  Ewald energy   TEWEN  =     27688.07516886
  -Hartree energ DENC   =    -40304.07068625
  -exchange      EXHF   =         0.00000000
  -V(xc)+E(xc)   XCENC  =      1098.90335530
  PAW double counting   =     29947.57498975   -30447.53060551
  entropy T*S    EENTRO =         0.00000000
  eigenvalues    EBANDS =     -3792.64173117
  atomic energy  EATOM  =     15171.73615219
  Solvation  Ediel_sol  =         0.00000000
  ---------------------------------------------------
  free energy    TOTEN  =      -492.17946021 eV

  energy without entropy =     -492.17946021  energy(sigma->0) =     -492.17946021


--------------------------------------------------------------------------------------------------------




--------------------------------------- Iteration      1(  17)  ---------------------------------------


    POTLOK:  cpu time    0.1385: real time    0.1388
    SETDIJ:  cpu time    0.0106: real time    0.0106
     EDDAV:  cpu time   13.5021: real time   13.5031
 BZINTS: Fermi energy: -2.244561;280.000000 electrons
         Band energy:***********;  BLOECHL correction:  0.000000
       DOS:  cpu time    0.0156: real time    0.0156
    CHARGE:  cpu time    0.4072: real time    0.4073
    MIXING:  cpu time    0.0052: real time    0.0052
    --------------------------------------------
      LOOP:  cpu time   14.0793: real time   14.0807

 eigenvalue-minimisations  :  4152
 total energy-change (2. order) : 0.2693292E-03  (-0.1047465E-02)
 number of electron     279.9999930 magnetization       0.0000000
 augmentation part       18.4921389 magnetization      -0.0000193

 Broyden mixing:
  rms(total) = 0.11689E-01    rms(broyden)= 0.11647E-01
  rms(prec ) = 0.15076E-01
  weight for this iteration     100.00

 eigenvalues of (default mixing * dielectric matrix)
  average eigenvalue GAMMA=   1.4674
  3.6004  3.3547  2.0446  2.0446  1.1747  1.1747  0.9843  0.7894  0.7894  0.5997
  0.5997  0.4532

 Free energy of the ion-electron system (eV)
  ---------------------------------------------------
  alpha Z        PSCENC =       145.77389662
  Ewald energy   TEWEN  =     27688.07516886
  -Hartree energ DENC   =    -40303.97760936
  -exchange      EXHF   =         0.00000000
  -V(xc)+E(xc)   XCENC  =      1098.90016154
  PAW double counting   =     29954.86286197   -30454.82864481
  entropy T*S    EENTRO =         0.00000000
  eigenvalues    EBANDS =     -3792.72117789
  atomic energy  EATOM  =     15171.73615219
  Solvation  Ediel_sol  =         0.00000000
  ---------------------------------------------------
  free energy    TOTEN  =      -492.17919088 eV

  energy without entropy =     -492.17919088  energy(sigma->0) =     -492.17919088


--------------------------------------------------------------------------------------------------------




--------------------------------------- Iteration      1(  18)  ---------------------------------------


    POTLOK:  cpu time    0.1412: real time    0.1418
    SETDIJ:  cpu time    0.0111: real time    0.0111
     EDDAV:  cpu time   12.5576: real time   12.5617
 BZINTS: Fermi energy: -2.240810;280.000000 electrons
         Band energy:***********;  BLOECHL correction:  0.000000
       DOS:  cpu time    0.0159: real time    0.0159
    CHARGE:  cpu time    0.4071: real time    0.4072
    MIXING:  cpu time    0.0056: real time    0.0056
    --------------------------------------------
      LOOP:  cpu time   13.1386: real time   13.1433

 eigenvalue-minimisations  :  3728
 total energy-change (2. order) : 0.6830068E-04  (-0.1046386E-03)
 number of electron     279.9999930 magnetization       0.0000000
 augmentation part       18.4923858 magnetization      -0.0000202

 Broyden mixing:
  rms(total) = 0.50874E-02    rms(broyden)= 0.50851E-02
  rms(prec ) = 0.61731E-02
  weight for this iteration     100.00

 eigenvalues of (default mixing * dielectric matrix)
  average eigenvalue GAMMA=   1.4934
  3.5268  3.5268  2.9739  1.8644  1.2214  1.2214  0.9768  0.8873  0.8873  0.6060
  0.6060  0.6616  0.4538

 Free energy of the ion-electron system (eV)
  ---------------------------------------------------
  alpha Z        PSCENC =       145.77389662
  Ewald energy   TEWEN  =     27688.07516886
  -Hartree energ DENC   =    -40304.11842490
  -exchange      EXHF   =         0.00000000
  -V(xc)+E(xc)   XCENC  =      1098.90571498
  PAW double counting   =     29960.11261374   -30460.07537186
  entropy T*S    EENTRO =         0.00000000
  eigenvalues    EBANDS =     -3792.58887220
  atomic energy  EATOM  =     15171.73615219
  Solvation  Ediel_sol  =         0.00000000
  ---------------------------------------------------
  free energy    TOTEN  =      -492.17912258 eV

  energy without entropy =     -492.17912258  energy(sigma->0) =     -492.17912258


--------------------------------------------------------------------------------------------------------




--------------------------------------- Iteration      1(  19)  ---------------------------------------


    POTLOK:  cpu time    0.1379: real time    0.1387
    SETDIJ:  cpu time    0.0103: real time    0.0103
     EDDAV:  cpu time    8.8803: real time    8.8810
 BZINTS: Fermi energy: -2.240810;280.000000 electrons
         Band energy:***********;  BLOECHL correction:  0.000000
       DOS:  cpu time    0.0159: real time    0.0159
    --------------------------------------------
      LOOP:  cpu time    9.0444: real time    9.0459

 eigenvalue-minimisations  :  2200
 total energy-change (2. order) :-0.1117315E-04  (-0.1561153E-04)
 number of electron     279.9999930 magnetization       0.0000000
 augmentation part       18.4923858 magnetization      -0.0000202

 Free energy of the ion-electron system (eV)
  ---------------------------------------------------
  alpha Z        PSCENC =       145.77389662
  Ewald energy   TEWEN  =     27688.07516886
  -Hartree energ DENC   =    -40304.50119019
  -exchange      EXHF   =         0.00000000
  -V(xc)+E(xc)   XCENC  =      1098.91950881
  PAW double counting   =     29957.97278156   -30457.93795676
  entropy T*S    EENTRO =         0.00000000
  eigenvalues    EBANDS =     -3792.21749484
  atomic energy  EATOM  =     15171.73615219
  Solvation  Ediel_sol  =         0.00000000
  ---------------------------------------------------
  free energy    TOTEN  =      -492.17913376 eV

  energy without entropy =     -492.17913376  energy(sigma->0) =     -492.17913376


--------------------------------------------------------------------------------------------------------




 average (electrostatic) potential at core
  the test charge radii are     0.6991  0.7089  0.9911  0.6991  0.7215
  (the norm of the test charge is              1.0000)
       1 -60.5639       2 -60.9451       3 -60.9570       4 -60.5784       5 -60.5878
       6 -60.6081       7 -60.7366       8 -60.6395       9 -60.5677      10 -61.2090
      11 -60.7512      12 -61.1906      13 -60.5566      14 -60.5156      15 -60.3221
      16 -60.5946      17 -60.5892      18 -60.5585      19 -60.7793      20 -60.5921
      21 -60.6435      22 -60.6383      23 -60.6644      24 -60.5574      25 -74.5324
[...]
   -.172E+02 0.693E+02 0.163E+03   0.178E+02 -.719E+02 -.164E+03   -.519E+00 0.270E+01 0.119E+01   -.837E-03 -.169E-01 -.131E-01
   -.613E+02 -.174E+02 0.798E+02   0.638E+02 0.188E+02 -.804E+02   -.259E+01 -.137E+01 0.539E+00   0.519E-02 -.464E-02 -.255E-02
   0.438E+02 -.385E+02 -.836E+01   -.444E+02 0.360E+02 0.775E+01   0.524E+00 0.245E+01 0.624E+00   0.540E-02 -.206E-01 -.325E-02
   0.423E+02 -.183E+02 -.229E+02   -.396E+02 0.201E+02 0.226E+02   -.268E+01 -.176E+01 0.264E+00   0.798E-02 -.699E-02 -.150E-02
   -.124E+02 0.632E+01 -.398E+02   0.922E+01 -.479E+01 0.395E+02   0.310E+01 -.147E+01 0.237E+00   0.175E-02 -.516E-02 -.119E-02
   -.359E+02 0.194E+02 -.447E+02   0.349E+02 -.176E+02 0.453E+02   0.104E+01 -.181E+01 -.556E+00   -.318E-01 0.276E-01 0.131E-01
   -.422E+01 0.776E+01 0.625E+02   0.421E+01 -.105E+02 -.619E+02   0.483E-01 0.279E+01 -.598E+00   -.983E-02 -.588E-02 0.236E-02
   0.344E+02 0.147E+02 -.337E+02   -.332E+02 -.126E+02 0.340E+02   -.126E+01 -.203E+01 -.296E+00   -.834E-02 -.832E-02 -.738E-02
   -.286E+01 -.280E+02 -.170E+02   0.296E+01 0.246E+02 0.173E+02   -.934E-01 0.330E+01 -.292E+00   0.245E-01 -.137E-01 -.351E-03
   0.392E+02 0.277E+02 0.142E+03   -.364E+02 -.262E+02 -.141E+03   -.274E+01 -.148E+01 -.691E+00   0.478E-01 0.326E-02 -.296E-02
   -.238E+02 0.274E+02 0.745E+02   0.208E+02 -.260E+02 -.739E+02   0.299E+01 -.132E+01 -.473E+00   0.414E-01 -.179E-01 -.383E-02
   0.601E+02 -.188E+02 0.481E+02   -.626E+02 0.202E+02 -.483E+02   0.256E+01 -.140E+01 0.174E+00   -.104E-01 0.102E-01 -.225E-02
   0.879E+01 0.823E+02 0.165E+03   -.903E+01 -.848E+02 -.167E+03   0.167E+00 0.259E+01 0.122E+01   -.483E-02 0.613E-02 0.767E-02
   -.648E+02 -.549E+02 -.784E+02   0.673E+02 0.561E+02 0.789E+02   -.245E+01 -.129E+01 -.442E+00   0.991E-04 0.106E-01 -.445E-02
   -.416E+02 -.387E+02 -.852E+02   0.420E+02 0.363E+02 0.846E+02   -.349E+00 0.244E+01 0.550E+00   -.536E-02 0.197E-01 0.333E-02
   0.139E+02 0.660E+01 -.784E+02   -.107E+02 -.521E+01 0.779E+02   -.310E+01 -.133E+01 0.506E+00   0.749E-02 0.163E-01 -.699E-03
   -.447E+02 -.129E+02 -.508E+02   0.419E+02 0.147E+02 0.501E+02   0.277E+01 -.185E+01 0.690E+00   -.172E-01 0.150E-01 -.119E-02
   0.754E+02 -.555E+02 0.119E+03   -.778E+02 0.571E+02 -.120E+03   0.245E+01 -.171E+01 0.322E+00   0.133E-01 -.220E-01 0.224E-02
   -.866E+01 0.570E+02 -.142E+03   0.866E+01 -.601E+02 0.143E+03   -.253E-01 0.310E+01 -.101E+01   0.869E-02 -.554E-02 0.277E-02
   -.860E+02 -.278E+02 -.335E+02   0.886E+02 0.289E+02 0.341E+02   -.274E+01 -.103E+01 -.623E+00   0.157E-01 0.266E-01 0.693E-02
   -.647E+01 0.426E+02 0.143E+03   0.658E+01 -.434E+02 -.145E+03   -.158E-03 0.653E+00 0.213E+01   -.846E-01 -.126E-02 0.121E-03
   -.184E+03 -.350E+02 0.177E+03   0.215E+03 0.522E+02 -.188E+03   -.308E+02 -.172E+02 0.106E+02   -.182E-01 -.262E-01 -.606E-03
   0.160E+03 -.148E+03 -.197E+03   -.190E+03 0.165E+03 0.207E+03   0.302E+02 -.165E+02 -.106E+02   0.129E-01 -.173E-01 -.657E-02
   -.312E+00 0.178E+03 0.330E+03   0.285E+01 -.209E+03 -.349E+03   -.263E+01 0.302E+02 0.192E+02   0.313E-01 -.440E-01 -.240E-01
   -.412E+02 0.162E+03 0.353E+03   0.392E+02 -.191E+03 -.375E+03   0.201E+01 0.288E+02 0.217E+02   -.317E-01 -.331E-01 -.254E-01
   0.185E+03 -.972E+02 -.103E+03   -.215E+03 0.117E+03 0.104E+03   0.295E+02 -.196E+02 -.827E+00   0.326E-01 -.288E-01 0.709E-03
   -.143E+03 -.904E+02 0.214E+03   0.173E+03 0.102E+03 -.231E+03   -.300E+02 -.120E+02 0.171E+02   0.835E-03 -.144E-01 0.370E-02
   -.390E+01 0.835E+01 -.286E+01   0.402E+01 -.893E+01 0.309E+01   -.110E+00 0.524E+00 -.222E+00   0.314E-02 0.328E-03 -.865E-03
   0.279E+02 -.361E+02 -.556E+02   -.283E+02 0.374E+02 0.585E+02   0.354E+00 -.129E+01 -.293E+01   0.919E-02 -.208E-01 -.503E-02
   0.859E+00 -.768E+02 -.222E+03   0.220E+02 0.917E+02 0.242E+03   -.228E+02 -.148E+02 -.197E+02   -.550E-02 -.130E-01 -.147E-01
   0.134E+02 0.671E+02 -.369E+02   -.336E+02 -.607E+02 0.460E+02   0.202E+02 -.655E+01 -.917E+01   -.517E-01 0.268E-01 0.147E-01
   -.266E+02 0.903E+02 0.143E+03   0.287E+02 -.123E+03 -.153E+03   -.212E+01 0.327E+02 0.971E+01   -.238E-01 0.119E-01 0.442E-02
   0.130E+02 0.879E+02 0.156E+03   -.151E+02 -.121E+03 -.166E+03   0.203E+01 0.327E+02 0.993E+01   -.939E-02 -.683E-02 0.605E-02
   0.161E+02 -.766E+02 -.246E+03   -.418E+02 0.914E+02 0.261E+03   0.256E+02 -.148E+02 -.152E+02   -.240E-01 0.255E-01 0.758E-02
   -.874E+01 0.659E+02 -.539E+02   0.279E+02 -.595E+02 0.657E+02   -.191E+02 -.649E+01 -.118E+02   -.407E-01 -.107E-01 -.145E-01
   0.598E+02 0.275E+02 0.525E+02   -.642E+02 -.305E+02 -.510E+02   0.440E+01 0.296E+01 -.161E+01   -.481E-02 -.245E-01 -.883E-02
   0.113E+02 0.192E+02 0.110E+03   -.129E+02 -.197E+02 -.113E+03   0.152E+01 0.551E+00 0.320E+01   0.902E-01 -.202E-01 -.528E-02
   -.180E+03 -.993E+02 -.121E+03   0.210E+03 0.118E+03 0.123E+03   -.298E+02 -.189E+02 -.228E+01   -.264E-02 0.574E-02 -.109E-01
   0.146E+03 -.866E+02 0.165E+03   -.176E+03 0.988E+02 -.179E+03   0.309E+02 -.122E+02 0.147E+02   0.811E-03 0.175E-01 -.599E-04
   0.273E+02 0.181E+03 0.351E+03   -.243E+02 -.211E+03 -.370E+03   -.290E+01 0.300E+02 0.194E+02   -.242E-01 0.378E-01 0.299E-01
   0.284E+01 0.220E+03 0.283E+03   -.487E+01 -.254E+03 -.292E+03   0.201E+01 0.342E+02 0.890E+01   0.147E-01 0.460E-01 0.170E-01
   0.187E+03 -.434E+02 0.705E+02   -.218E+03 0.619E+02 -.729E+02   0.313E+02 -.186E+02 0.234E+01   -.127E-01 0.128E-01 -.280E-02
   -.148E+03 -.147E+03 -.236E+03   0.178E+03 0.163E+03 0.249E+03   -.292E+02 -.158E+02 -.131E+02   -.141E-01 0.133E-01 -.779E-02
   -.316E+00 -.410E+02 0.693E+01   0.429E+00 0.425E+02 -.925E+01   -.149E+00 -.150E+01 0.233E+01   -.213E-02 0.428E-02 0.556E-03
   -.232E+02 -.356E+02 -.117E+03   0.229E+02 0.375E+02 0.121E+03   0.309E+00 -.202E+01 -.363E+01   -.796E-02 0.205E-01 -.425E-03
   -.218E+03 -.728E+02 -.169E+02   0.248E+03 0.915E+02 0.148E+02   -.301E+02 -.188E+02 0.209E+01   0.849E-02 0.373E-01 0.812E-02
   0.173E+03 -.130E+03 0.248E+03   -.204E+03 0.146E+03 -.254E+03   0.310E+02 -.163E+02 0.624E+01   0.679E-01 -.298E-01 0.371E-02
   0.105E+02 0.157E+03 -.306E+03   -.698E+01 -.187E+03 0.326E+03   -.354E+01 0.301E+02 -.195E+02   0.123E-01 -.179E-02 -.553E-02
   -.349E+02 0.132E+03 -.347E+03   0.333E+02 -.161E+03 0.370E+03   0.166E+01 0.289E+02 -.223E+02   0.152E-01 0.131E-01 -.113E-03
   0.191E+03 -.113E+03 0.228E+03   -.216E+03 0.135E+03 -.241E+03   0.254E+02 -.213E+02 0.126E+02   0.271E-01 -.290E-01 0.888E-02
   -.167E+03 -.861E+02 -.132E+03   0.198E+03 0.976E+02 0.144E+03   -.317E+02 -.116E+02 -.118E+02   0.601E-01 0.298E-02 0.882E-02
   -.573E+02 0.384E+02 0.222E+02   0.607E+02 -.419E+02 -.223E+02   -.342E+01 0.348E+01 0.962E-01   -.822E-02 0.250E-01 0.638E-02
   0.301E+02 -.158E+03 -.636E+03   -.314E+02 0.175E+03 0.651E+03   0.145E+01 -.170E+02 -.153E+02   -.129E+00 0.259E-01 -.527E-02
   -.857E+02 -.176E+03 -.215E+03   0.968E+02 0.198E+03 0.205E+03   -.111E+02 -.227E+02 0.107E+02   -.948E-02 -.519E-04 -.304E-02
   0.956E+02 0.200E+03 -.458E+03   -.119E+03 -.248E+03 0.483E+03   0.235E+02 0.480E+02 -.246E+02   -.741E-02 0.696E-02 -.740E-02
 -----------------------------------------------------------------------------------------------
   -.128E+02 -.194E+02 0.118E+02   -.853E-13 -.313E-12 0.341E-12   0.129E+02 0.193E+02 -.118E+02   -.140E+00 0.110E-01 -.397E-01


 POSITION                                       TOTAL-FORCE (eV/Angst)
 -----------------------------------------------------------------------------------
     -0.01503      2.53585      6.97788        -0.027627      0.073309      0.015249
      1.25876      4.66183      6.99703         0.030989      0.152656      0.056493
     -1.29198      4.65403      6.94797        -0.087836      0.108295      0.001270
      5.87078      0.65767      7.94453         0.031203     -0.036267      0.002663
      3.55701      4.60467      6.73537         0.056269      0.064422      0.045745
      1.18637      0.61792      7.20082        -0.034597      0.026148     -0.002622
     -3.62093      8.50339      7.59615        -0.002778      0.025081      0.020027
     -2.27289     10.59026      7.82848         0.045084     -0.048909     -0.030305
     -4.79744     10.64762      7.80026        -0.018181      0.019119     -0.019146
      2.45702      6.45984      7.86285         0.055111      0.063460      0.018897
      0.01900     10.49928      7.64760         0.032837     -0.037141     -0.003021
     -2.53574      6.51613      7.60340        -0.090575      0.010087     -0.004982
      7.11071      2.52347      7.56519         0.036185     -0.084691      0.008275
      8.28685      4.50436      6.63152         0.023608     -0.059875     -0.002864
      5.82360      4.57109      7.03139         0.009144      0.082025      0.085434
     12.91112      0.45840      7.38723         0.025489      0.025182     -0.016248
     10.55863      4.40734      6.55460        -0.063738      0.091182      0.023335
      8.30080      0.63491      8.02909         0.006219     -0.074695      0.054029
      3.60736      8.38320      8.16266         0.015456      0.115680     -0.007433
      4.80807     10.52360      8.10896        -0.002984      0.042701      0.010107
      2.28043     10.52967      8.06807         0.017062     -0.007022     -0.008586
      9.32195      6.51048      6.82615         0.052949     -0.061868      0.035183
      7.08482     10.48868      8.27325        -0.017789     -0.002662      0.022164
      4.82121      6.50613      7.67110        -0.091604      0.120665     -0.002693
     -0.01212      3.96584      6.92181         0.023450     -0.151449     -0.002161
      1.16197      1.90314      6.87879         0.068271     -0.029412     -0.022456
      4.74913     -0.04518      8.15155        -0.045485      0.018592      0.009614
      4.72430      4.01845      6.47122        -0.064076      0.002784      0.009004
      2.33336      4.13174      6.43075        -0.038499      0.025303     -0.008311
      5.90429      1.97587      7.82160        -0.050348     -0.010788     -0.002378
     -4.76174     11.80382      7.14792         0.041101     -0.034839      0.015117
     -7.05613     11.92346      7.61883         0.018236     -0.058226      0.011579
     -3.54236      9.90354      7.80619         0.001719     -0.017991     -0.042616
     -2.58157      7.75823      8.06107        -0.021737      0.013480      0.001968
      1.26011      5.83371      7.73074        -0.057842     -0.148506     -0.038182
      1.19466      9.84121      7.63440        -0.016317      0.048341     -0.039130
     -1.16262      9.87844      7.50531        -0.044706      0.016725     -0.044275
      2.46171      7.67933      8.38671        -0.065264     -0.044471      0.012161
     -1.35625      5.84063      7.65165         0.069092     -0.130611      0.008431
     10.48987      5.73244      7.07425         0.066389     -0.038192     -0.036704
      7.08771      3.82523      7.00122         0.029412      0.027498      0.001923
      8.29804      1.95577      7.87275        -0.038176      0.057330     -0.045474
      4.73133     11.66130      7.43379        -0.005156     -0.022142      0.029631
     -2.32987      4.09444      6.34875         0.101676      0.047391     -0.023404
      9.40564      3.78003      6.38148        -0.005281      0.063911      0.005646
     12.91276      1.75534      7.13946        -0.012135     -0.017568     -0.037315
      9.37769     -0.09641      8.36066        -0.013137      0.061387      0.007098
      7.08642     -0.05399      7.81027        -0.038387      0.013985      0.006128
      3.54007      9.80001      8.20616         0.019401     -0.038819     -0.040687
      4.77799      7.82319      7.87696         0.018662     -0.087580     -0.037986
      8.22136      5.85609      6.53689        -0.008127     -0.047645     -0.005800
     -5.83813     10.09054      8.45673         0.008741     -0.001080     -0.009866
      5.90437      9.98174      8.67721         0.038469     -0.005769      0.002781
     -4.68316      8.04382      6.93701         0.025856      0.009492      0.009499
      5.91902      5.77794      7.61115         0.015059     -0.118531     -0.049506
      3.58868      5.84227      7.45313        -0.039302     -0.052430     -0.027910
     -0.05839      7.24018      8.55293         0.015762      0.052160      0.075346
     -0.05820      7.10137     11.73627        -0.003812     -0.018658      0.018004
     -0.51743      6.16368     12.21286         0.006596      0.009447     -0.010744
 -----------------------------------------------------------------------------------
    total drift:                                0.003043     -0.003446      0.008971


--------------------------------------------------------------------------------------------------------



  FREE ENERGIE OF THE ION-ELECTRON SYSTEM (eV)
  ---------------------------------------------------
  free  energy   TOTEN  =      -496.28713467 eV

  energy  without entropy=     -496.28713467  energy(sigma->0) =     -496.28713467



--------------------------------------------------------------------------------------------------------


    POTLOK:  cpu time    0.2542: real time    0.2542


--------------------------------------------------------------------------------------------------------


     LOOP+:  cpu time  288.4323: real time  288.5729
    4ORBIT:  cpu time    0.0000: real time    0.0000



 total charge     

# of ion       s       p       d       tot
------------------------------------------
    1        0.847   1.721   0.000   2.568
    2        0.832   1.700   0.000   2.532
    3        0.833   1.698   0.000   2.531
    4        0.859   1.730   0.000   2.589
    5        0.848   1.721   0.000   2.569
    6        0.863   1.740   0.000   2.602
    7        0.846   1.712   0.000   2.558
    8        0.842   1.696   0.000   2.538
    9        0.846   1.696   0.000   2.543
   10        0.866   1.768   0.000   2.634
   11        0.857   1.729   0.000   2.586
   12        0.866   1.768   0.000   2.634
   13        0.845   1.708   0.000   2.553
   14        0.838   1.705   0.000   2.543
   15        0.834   1.706   0.000   2.541
   16        0.865   1.748   0.000   2.613
   17        0.851   1.731   0.000   2.582
   18        0.856   1.726   0.000   2.582
   19        0.845   1.716   0.000   2.561
   20        0.846   1.700   0.000   2.547
   21        0.838   1.689   0.000   2.527
   22        0.858   1.731   0.000   2.589
   23        0.855   1.710   0.000   2.565
   24        0.860   1.749   0.000   2.609
   25        1.200   2.685   0.000   3.885
   26        1.270   2.657   0.000   3.926
   27        1.267   2.649   0.000   3.916
   28        1.266   2.616   0.000   3.882
   29        1.264   2.640   0.000   3.904
   30        1.267   2.649   0.000   3.916
   31        1.274   2.645   0.000   3.919
   32        1.231   2.746   0.000   3.978
   33        1.207   2.693   0.000   3.901
   34        1.262   2.661   0.000   3.924
   35        1.244   2.665   0.000   3.909
   36        1.260   2.634   0.000   3.894
   37        1.260   2.640   0.000   3.900
   38        1.261   2.659   0.000   3.919
   39        1.243   2.664   0.000   3.907
   40        1.229   2.760   0.000   3.989
   41        1.206   2.688   0.000   3.894
   42        1.265   2.636   0.000   3.901
   43        1.274   2.654   0.000   3.929
   44        1.265   2.642   0.000   3.907
   45        1.267   2.623   0.000   3.891
   46        1.271   2.663   0.000   3.934
   47        1.265   2.642   0.000   3.907
   48        1.227   2.749   0.000   3.976
   49        1.206   2.674   0.000   3.880
   50        1.268   2.655   0.000   3.923
   51        1.267   2.647   0.000   3.915
   52        1.265   2.621   0.000   3.886
   53        1.265   2.627   0.000   3.892
   54        1.266   2.639   0.000   3.905
   55        1.273   2.644   0.000   3.917
   56        1.229   2.761   0.000   3.990
   57        1.357   0.689  10.045  12.092
   58        1.035   1.434   0.000   2.469
   59        1.638   3.539   0.000   5.177
--------------------------------------------------
tot         64.511 132.191  10.045 206.747



 magnetization (x)

# of ion       s       p       d       tot
------------------------------------------
    1       -0.000  -0.000   0.000  -0.000
    2        0.000   0.001   0.000   0.001
    3       -0.000  -0.001   0.000  -0.001
    4       -0.000  -0.000   0.000  -0.000
    5        0.000   0.001   0.000   0.001
    6       -0.000  -0.000   0.000  -0.000
    7       -0.000  -0.000   0.000  -0.000
    8       -0.000  -0.000   0.000  -0.000
    9       -0.000  -0.000   0.000  -0.000
   10       -0.000  -0.000   0.000  -0.000
   11        0.000   0.000   0.000   0.000
   12        0.000   0.000   0.000   0.000
   13       -0.000  -0.000   0.000  -0.000
   14       -0.000  -0.001   0.000  -0.001
   15        0.000   0.001   0.000   0.001
   16        0.000   0.000   0.000   0.000
   17       -0.000  -0.001   0.000  -0.001
   18       -0.000  -0.000   0.000  -0.000
   19        0.000   0.000   0.000   0.000
   20        0.000   0.000   0.000   0.000
   21        0.000   0.000   0.000   0.000
   22       -0.000  -0.000   0.000  -0.000
   23        0.000   0.000   0.000   0.000
   24        0.000   0.001   0.000   0.001
   25       -0.000   0.000   0.000   0.000
   26        0.000  -0.000   0.000  -0.000
   27       -0.000  -0.000   0.000  -0.000
   28       -0.000  -0.000   0.000  -0.000
   29       -0.000  -0.000   0.000  -0.000
   30       -0.000  -0.000   0.000  -0.000
   31       -0.000  -0.000   0.000  -0.000
   32       -0.000  -0.000   0.000  -0.000
   33        0.000  -0.000   0.000   0.000
   34       -0.000  -0.000   0.000  -0.000
   35        0.000   0.000   0.000   0.000
   36        0.000  -0.000   0.000  -0.000
   37       -0.000  -0.000   0.000  -0.000
   38        0.000   0.000   0.000   0.000
   39        0.000  -0.000   0.000  -0.000
   40       -0.000  -0.001   0.000  -0.001
   41        0.000  -0.000   0.000  -0.000
   42        0.000   0.000   0.000   0.000
   43        0.000   0.000   0.000   0.000
   44        0.000   0.000   0.000   0.000
   45        0.000   0.000   0.000   0.000
   46        0.000   0.000   0.000   0.000
   47        0.000   0.000   0.000   0.000
   48       -0.000  -0.000   0.000  -0.000
   49       -0.000   0.000   0.000   0.000
   50        0.000  -0.000   0.000  -0.000
   51       -0.000  -0.000   0.000  -0.000
   52       -0.000  -0.000   0.000  -0.000
   53        0.000   0.000   0.000   0.000
   54        0.000   0.000   0.000   0.000
   55        0.000   0.000   0.000   0.000
   56        0.000   0.001   0.000   0.001
   57        0.000   0.000   0.000   0.000
   58        0.000   0.000   0.000   0.000
   59        0.000   0.000   0.000   0.000
--------------------------------------------------
tot         -0.000  -0.000   0.000  -0.000

 BZINTS: Fermi energy: -2.240810;280.000000 electrons
         Band energy:***********;  BLOECHL correction:  0.000000

 total amount of memory used by VASP MPI-rank0    94985. kBytes
=======================================================================

   base      :      30000. kBytes
   nonl-proj :      20284. kBytes
   fftplans  :       3433. kBytes
   grid      :      10043. kBytes
   one-center:        155. kBytes
   wavefun   :      31070. kBytes

  
  
 General timing and accounting informations for this job:
 ========================================================
  
                  Total CPU time used (sec):      303.903
                            User time (sec):      302.643
                          System time (sec):        1.260
                         Elapsed time (sec):      304.433
  
                   Maximum memory used (kb):      173388.
                   Average memory used (kb):           0.
  
                          Minor page faults:        56826
                          Major page faults:            0
                 Voluntary context switches:          885
